
     Program PWSCF v.7.1 starts on  2Mar2024 at  9:49:23 

     This program is part of the open-source Quantum ESPRESSO suite
     for quantum simulation of materials; please cite
         "P. Giannozzi et al., J. Phys.:Condens. Matter 21 395502 (2009);
         "P. Giannozzi et al., J. Phys.:Condens. Matter 29 465901 (2017);
         "P. Giannozzi et al., J. Chem. Phys. 152 154105 (2020);
          URL http://www.quantum-espresso.org", 
     in publications or presentations arising from this work. More details at
     http://www.quantum-espresso.org/quote

     Parallel version (MPI & OpenMP), running on     128 processor cores
     Number of MPI processes:               128
     Threads/MPI process:                     1

     MPI processes distributed on     1 nodes
     1759328 MiB available memory on the printing compute node when the environment starts
 
     Reading input from espresso.pwi
Warning: card &CELL ignored
Warning: card    CELL_DYNAMICS    = 'BFGS' ignored
Warning: card / ignored

     Current dimensions of program PWSCF are:
     Max number of different atomic species (ntypx) = 10
     Max number of k-points (npk) =  40000
     Max angular momentum in pseudopotentials (lmaxx) =  4
     file Pb.pbe-dn-kjpaw_psl.1.0.0.UPF: wavefunction(s)  6S 6P 5D renormalized
     file I.pbe-dn-kjpaw_psl.1.0.0.UPF: wavefunction(s)  5S 5P renormalized

     **************************************************************************
     Initializing libbeef V0.1.2 with the BEEF-vdW functional.
     Citation: Wellendorff et al., PRB 85, 235149 (2012).
     **************************************************************************


     IMPORTANT: XC functional enforced from input :
     Exchange-correlation= BEEF-VDW
                           (   1   4  43  14   2   0   0)
     Any further DFT definition will be discarded
     Please, verify this is what you really want

 
     R & G space division:  proc/nbgrp/npool/nimage =     128
     Subspace diagonalization in iterative solution of the eigenvalue problem:
     a serial algorithm will be used

 
     Parallelization info
     --------------------
     sticks:   dense  smooth     PW     G-vecs:    dense   smooth      PW
     Min         238     190     47                26444    18918    2361
     Max         239     191     48                26451    18927    2368
     Sum       30577   24439   6121              3385235  2422379  302703
 
     Using Slab Decomposition
 


     bravais-lattice index     =            4
     lattice parameter (alat)  =      35.6073  a.u.
     unit-cell volume          =   30614.2220 (a.u.)^3
     number of atoms/cell      =           96
     number of atomic types    =            2
     number of electrons       =      1530.00
     number of Kohn-Sham states=          918
     kinetic-energy cutoff     =      70.0000  Ry
     charge density cutoff     =     350.0000  Ry
     scf convergence threshold =      1.0E-07
     mixing beta               =       0.7000
     number of iterations used =            8  plain     mixing
     energy convergence thresh.=      1.0E-04
     force convergence thresh. =      1.0E-03
     Exchange-correlation= BEEF-VDW
                           (   1   4  43  14   2   0   0)
     nstep                     =           50


     celldm(1)=  35.607290  celldm(2)=   0.000000  celldm(3)=   0.783025
     celldm(4)=   0.000000  celldm(5)=   0.000000  celldm(6)=   0.000000

     crystal axes: (cart. coord. in units of alat)
               a(1) = (   1.000000   0.000000   0.000000 )  
               a(2) = (  -0.500000   0.866025   0.000000 )  
               a(3) = (   0.000000   0.000000   0.783025 )  

     reciprocal axes: (cart. coord. in units 2 pi/alat)
               b(1) = (  1.000000  0.577350 -0.000000 )  
               b(2) = (  0.000000  1.154701  0.000000 )  
               b(3) = (  0.000000 -0.000000  1.277098 )  


     PseudoPot. # 1 for Pb read from file:
     //group///packages/espresso/pseudo/psl_1.0.0/pslibrary.1.0.0/pbe/PSEUDOPOTENTIALS/Pb.pbe-dn-kjpaw_psl.1.0.0.UPF
     MD5 check sum: 39ab5b8a6bbd56b7735ad9f188aac93a
     Pseudo is Projector augmented-wave + core cor, Zval = 14.0
     Generated using 'atomic' code by A. Dal Corso  v.7.1
     Shape of augmentation charge: PSQ
     Using radial grid of 1281 points,  6 beta functions with: 
                l(1) =   0
                l(2) =   0
                l(3) =   1
                l(4) =   1
                l(5) =   2
                l(6) =   2
     Q(r) pseudized with 0 coefficients 


     PseudoPot. # 2 for I  read from file:
     //group///packages/espresso/pseudo/psl_1.0.0/pslibrary.1.0.0/pbe/PSEUDOPOTENTIALS/I.pbe-dn-kjpaw_psl.1.0.0.UPF
     MD5 check sum: bfa8781bc1224d19af3f3980e3fab11e
     Pseudo is Projector augmented-wave + core cor, Zval = 17.0
     Generated using 'atomic' code by A. Dal Corso  v.7.1
     Shape of augmentation charge: PSQ
     Using radial grid of 1247 points,  6 beta functions with: 
                l(1) =   0
                l(2) =   0
                l(3) =   1
                l(4) =   1
                l(5) =   2
                l(6) =   2
     Q(r) pseudized with 0 coefficients 


     atomic species   valence    mass     pseudopotential
        Pb            14.00   207.20000     Pb( 1.00)
        I             17.00   126.90447     I ( 1.00)

     No symmetry found


                                    s                        frac. trans.

      isym =  1     identity                                     

 cryst.   s( 1) = (     1          0          0      )
                  (     0          1          0      )
                  (     0          0          1      )

 cart.    s( 1) = (  1.0000000  0.0000000  0.0000000 )
                  (  0.0000000  1.0000000  0.0000000 )
                  (  0.0000000  0.0000000  1.0000000 )


     point group C_1 (1)    
     there are  1 classes
     the character table:

       E    
A      1.00

     the symmetry operations in each class and the name of the first element:

     E        1
          identity                                               

   Cartesian axes

     site n.     atom                  positions (alat units)
         1           Pb  tau(   1) = (   0.1250086   0.2164870   0.7830203  )
         2           Pb  tau(   2) = (   0.1250034   0.2164916   0.3915076  )
         3           Pb  tau(   3) = (   0.0000077   0.4329922   0.7830161  )
         4           Pb  tau(   4) = (   0.0000025   0.4329968   0.3915034  )
         5           Pb  tau(   5) = (  -0.1249932   0.6494975   0.7830119  )
         6           Pb  tau(   6) = (  -0.1249984   0.6495021   0.3914992  )
         7           Pb  tau(   7) = (  -0.2499941   0.8660028   0.7830077  )
         8           Pb  tau(   8) = (  -0.2499993   0.8660074   0.3914950  )
         9           Pb  tau(   9) = (   0.3750086   0.2164859   0.7830237  )
        10           Pb  tau(  10) = (   0.3750034   0.2164905   0.3915110  )
        11           Pb  tau(  11) = (   0.2500077   0.4329912   0.7830194  )
        12           Pb  tau(  12) = (   0.2500025   0.4329958   0.3915068  )
        13           Pb  tau(  13) = (   0.1250068   0.6494965   0.7830152  )
        14           Pb  tau(  14) = (   0.1250016   0.6495011   0.3915026  )
        15           Pb  tau(  15) = (   0.0000059   0.8660017   0.7830110  )
        16           Pb  tau(  16) = (   0.0000007   0.8660063   0.3914983  )
        17           Pb  tau(  17) = (   0.6250086   0.2164849   0.7830270  )
        18           Pb  tau(  18) = (   0.6250034   0.2164895   0.3915143  )
        19           Pb  tau(  19) = (   0.5000077   0.4329901   0.7830228  )
        20           Pb  tau(  20) = (   0.5000025   0.4329947   0.3915101  )
        21           Pb  tau(  21) = (   0.3750068   0.6494954   0.7830186  )
        22           Pb  tau(  22) = (   0.3750016   0.6495000   0.3915059  )
        23           Pb  tau(  23) = (   0.2500059   0.8660007   0.7830144  )
        24           Pb  tau(  24) = (   0.2500007   0.8660053   0.3915017  )
        25           Pb  tau(  25) = (   0.8750086   0.2164838   0.7830303  )
        26           Pb  tau(  26) = (   0.8750034   0.2164884   0.3915177  )
        27           Pb  tau(  27) = (   0.7500077   0.4329891   0.7830261  )
        28           Pb  tau(  28) = (   0.7500025   0.4329937   0.3915135  )
        29           Pb  tau(  29) = (   0.6250068   0.6494944   0.7830219  )
        30           Pb  tau(  30) = (   0.6250016   0.6494990   0.3915092  )
        31           Pb  tau(  31) = (   0.5000059   0.8659996   0.7830177  )
        32           Pb  tau(  32) = (   0.5000007   0.8660042   0.3915050  )
        33           I   tau(  33) = (   0.1250108   0.0721500   0.6824290  )
        34           I   tau(  34) = (   0.0000047   0.2886599   0.2909121  )
        35           I   tau(  35) = (   0.0000099   0.2886553   0.6824248  )
        36           I   tau(  36) = (  -0.1249962   0.5051652   0.2909079  )
        37           I   tau(  37) = (  -0.1249910   0.5051606   0.6824206  )
        38           I   tau(  38) = (  -0.2499972   0.7216704   0.2909037  )
        39           I   tau(  39) = (  -0.2499919   0.7216658   0.6824164  )
        40           I   tau(  40) = (   0.3750056   0.0721536   0.2909197  )
        41           I   tau(  41) = (   0.3750108   0.0721490   0.6824324  )
        42           I   tau(  42) = (   0.2500047   0.2886589   0.2909155  )
        43           I   tau(  43) = (   0.2500099   0.2886543   0.6824282  )
        44           I   tau(  44) = (   0.1250038   0.5051641   0.2909113  )
        45           I   tau(  45) = (   0.1250090   0.5051595   0.6824240  )
        46           I   tau(  46) = (   0.0000028   0.7216694   0.2909071  )
        47           I   tau(  47) = (   0.0000081   0.7216648   0.6824197  )
        48           I   tau(  48) = (   0.6250056   0.0721525   0.2909230  )
        49           I   tau(  49) = (   0.6250108   0.0721479   0.6824357  )
        50           I   tau(  50) = (   0.5000047   0.2886578   0.2909188  )
        51           I   tau(  51) = (   0.5000099   0.2886532   0.6824315  )
        52           I   tau(  52) = (   0.3750038   0.5051631   0.2909146  )
        53           I   tau(  53) = (   0.3750090   0.5051585   0.6824273  )
        54           I   tau(  54) = (   0.2500028   0.7216683   0.2909104  )
        55           I   tau(  55) = (   0.2500081   0.7216637   0.6824231  )
        56           I   tau(  56) = (   0.8750056   0.0721515   0.2909264  )
        57           I   tau(  57) = (   0.8750108   0.0721469   0.6824391  )
        58           I   tau(  58) = (   0.7500047   0.2886567   0.2909222  )
        59           I   tau(  59) = (   0.7500099   0.2886521   0.6824348  )
        60           I   tau(  60) = (   0.6250038   0.5051620   0.2909180  )
        61           I   tau(  61) = (   0.6250090   0.5051574   0.6824306  )
        62           I   tau(  62) = (   0.5000028   0.7216673   0.2909137  )
        63           I   tau(  63) = (   0.5000081   0.7216627   0.6824264  )
        64           I   tau(  64) = (  -0.0000018   0.1443297   0.1005933  )
        65           I   tau(  65) = (   0.0000034   0.1443251   0.4921060  )
        66           I   tau(  66) = (  -0.1250027   0.3608350   0.1005891  )
        67           I   tau(  67) = (  -0.1249975   0.3608304   0.4921018  )
        68           I   tau(  68) = (  -0.2500036   0.5773403   0.1005849  )
        69           I   tau(  69) = (  -0.2499984   0.5773357   0.4920975  )
        70           I   tau(  70) = (  -0.3750045   0.7938455   0.1005807  )
        71           I   tau(  71) = (  -0.3749993   0.7938409   0.4920933  )
        72           I   tau(  72) = (   0.2499982   0.1443287   0.1005966  )
        73           I   tau(  73) = (   0.2500034   0.1443241   0.4921093  )
        74           I   tau(  74) = (   0.1249973   0.3608340   0.1005924  )
        75           I   tau(  75) = (   0.1250025   0.3608294   0.4921051  )
        76           I   tau(  76) = (  -0.0000036   0.5773392   0.1005882  )
        77           I   tau(  77) = (   0.0000016   0.5773346   0.4921009  )
        78           I   tau(  78) = (  -0.1250045   0.7938445   0.1005840  )
        79           I   tau(  79) = (  -0.1249993   0.7938399   0.4920967  )
        80           I   tau(  80) = (   0.4999982   0.1443276   0.1006000  )
        81           I   tau(  81) = (   0.5000034   0.1443230   0.4921126  )
        82           I   tau(  82) = (   0.3749973   0.3608329   0.1005958  )
        83           I   tau(  83) = (   0.3750025   0.3608283   0.4921084  )
        84           I   tau(  84) = (   0.2499964   0.5773382   0.1005915  )
        85           I   tau(  85) = (   0.2500016   0.5773336   0.4921042  )
        86           I   tau(  86) = (   0.1249955   0.7938434   0.1005873  )
        87           I   tau(  87) = (   0.1250007   0.7938388   0.4921000  )
        88           I   tau(  88) = (   0.7499982   0.1443266   0.1006033  )
        89           I   tau(  89) = (   0.7500034   0.1443220   0.4921160  )
        90           I   tau(  90) = (   0.6249973   0.3608319   0.1005991  )
        91           I   tau(  91) = (   0.6250025   0.3608273   0.4921118  )
        92           I   tau(  92) = (   0.4999964   0.5773371   0.1005949  )
        93           I   tau(  93) = (   0.5000016   0.5773325   0.4921076  )
        94           I   tau(  94) = (   0.3749955   0.7938424   0.1005907  )
        95           I   tau(  95) = (   0.3750007   0.7938378   0.4921034  )
        96           Pb  tau(  96) = (   0.1250056   0.0721546   0.2909163  )

   Crystallographic axes

     site n.     atom                  positions (cryst. coord.)
         1           Pb  tau(   1) = (  0.2499975  0.2499776  0.9999935  )
         2           Pb  tau(   2) = (  0.2499949  0.2499829  0.4999935  )
         3           Pb  tau(   3) = (  0.2499959  0.4999764  0.9999882  )
         4           Pb  tau(   4) = (  0.2499933  0.4999817  0.4999882  )
         5           Pb  tau(   5) = (  0.2499944  0.7499751  0.9999828  )
         6           Pb  tau(   6) = (  0.2499918  0.7499804  0.4999828  )
         7           Pb  tau(   7) = (  0.2499928  0.9999739  0.9999774  )
         8           Pb  tau(   8) = (  0.2499903  0.9999792  0.4999774  )
         9           Pb  tau(   9) = (  0.4999968  0.2499764  0.9999978  )
        10           Pb  tau(  10) = (  0.4999943  0.2499817  0.4999978  )
        11           Pb  tau(  11) = (  0.4999953  0.4999752  0.9999924  )
        12           Pb  tau(  12) = (  0.4999927  0.4999805  0.4999924  )
        13           Pb  tau(  13) = (  0.4999938  0.7499739  0.9999871  )
        14           Pb  tau(  14) = (  0.4999912  0.7499792  0.4999871  )
        15           Pb  tau(  15) = (  0.4999922  0.9999727  0.9999817  )
        16           Pb  tau(  16) = (  0.4999896  0.9999780  0.4999817  )
        17           Pb  tau(  17) = (  0.7499962  0.2499752  1.0000021  )
        18           Pb  tau(  18) = (  0.7499936  0.2499805  0.5000021  )
        19           Pb  tau(  19) = (  0.7499947  0.4999739  0.9999967  )
        20           Pb  tau(  20) = (  0.7499921  0.4999793  0.4999967  )
        21           Pb  tau(  21) = (  0.7499932  0.7499727  0.9999913  )
        22           Pb  tau(  22) = (  0.7499906  0.7499780  0.4999913  )
        23           Pb  tau(  23) = (  0.7499916  0.9999714  0.9999860  )
        24           Pb  tau(  24) = (  0.7499890  0.9999767  0.4999860  )
        25           Pb  tau(  25) = (  0.9999956  0.2499740  1.0000064  )
        26           Pb  tau(  26) = (  0.9999930  0.2499793  0.5000064  )
        27           Pb  tau(  27) = (  0.9999941  0.4999727  1.0000010  )
        28           Pb  tau(  28) = (  0.9999915  0.4999780  0.5000010  )
        29           Pb  tau(  29) = (  0.9999926  0.7499715  0.9999956  )
        30           Pb  tau(  30) = (  0.9999900  0.7499768  0.4999956  )
        31           Pb  tau(  31) = (  0.9999910  0.9999702  0.9999902  )
        32           Pb  tau(  32) = (  0.9999884  0.9999755  0.4999902  )
        33           I   tau(  33) = (  0.1666667  0.0833117  0.8715286  )
        34           I   tau(  34) = (  0.1666625  0.3333157  0.3715233  )
        35           I   tau(  35) = (  0.1666651  0.3333104  0.8715233  )
        36           I   tau(  36) = (  0.1666610  0.5833145  0.3715179  )
        37           I   tau(  37) = (  0.1666636  0.5833092  0.8715179  )
        38           I   tau(  38) = (  0.1666595  0.8333132  0.3715125  )
        39           I   tau(  39) = (  0.1666621  0.8333079  0.8715125  )
        40           I   tau(  40) = (  0.4166635  0.0833158  0.3715329  )
        41           I   tau(  41) = (  0.4166661  0.0833105  0.8715329  )
        42           I   tau(  42) = (  0.4166619  0.3333145  0.3715275  )
        43           I   tau(  43) = (  0.4166645  0.3333092  0.8715275  )
        44           I   tau(  44) = (  0.4166604  0.5833133  0.3715222  )
        45           I   tau(  45) = (  0.4166630  0.5833080  0.8715221  )
        46           I   tau(  46) = (  0.4166589  0.8333120  0.3715168  )
        47           I   tau(  47) = (  0.4166614  0.8333067  0.8715168  )
        48           I   tau(  48) = (  0.6666629  0.0833146  0.3715372  )
        49           I   tau(  49) = (  0.6666655  0.0833093  0.8715372  )
        50           I   tau(  50) = (  0.6666613  0.3333133  0.3715318  )
        51           I   tau(  51) = (  0.6666639  0.3333080  0.8715318  )
        52           I   tau(  52) = (  0.6666598  0.5833121  0.3715264  )
        53           I   tau(  53) = (  0.6666624  0.5833068  0.8715264  )
        54           I   tau(  54) = (  0.6666582  0.8333108  0.3715210  )
        55           I   tau(  55) = (  0.6666608  0.8333055  0.8715210  )
        56           I   tau(  56) = (  0.9166623  0.0833134  0.3715414  )
        57           I   tau(  57) = (  0.9166648  0.0833080  0.8715414  )
        58           I   tau(  58) = (  0.9166607  0.3333121  0.3715361  )
        59           I   tau(  59) = (  0.9166633  0.3333068  0.8715361  )
        60           I   tau(  60) = (  0.9166592  0.5833108  0.3715307  )
        61           I   tau(  61) = (  0.9166618  0.5833055  0.8715307  )
        62           I   tau(  62) = (  0.9166576  0.8333096  0.3715253  )
        63           I   tau(  63) = (  0.9166602  0.8333043  0.8715253  )
        64           I   tau(  64) = (  0.0833270  0.1666576  0.1284675  )
        65           I   tau(  65) = (  0.0833296  0.1666523  0.6284675  )
        66           I   tau(  66) = (  0.0833255  0.4166564  0.1284621  )
        67           I   tau(  67) = (  0.0833281  0.4166511  0.6284621  )
        68           I   tau(  68) = (  0.0833239  0.6666551  0.1284567  )
        69           I   tau(  69) = (  0.0833265  0.6666498  0.6284567  )
        70           I   tau(  70) = (  0.0833224  0.9166539  0.1284513  )
        71           I   tau(  71) = (  0.0833250  0.9166486  0.6284513  )
        72           I   tau(  72) = (  0.3333264  0.1666564  0.1284717  )
        73           I   tau(  73) = (  0.3333290  0.1666511  0.6284717  )
        74           I   tau(  74) = (  0.3333249  0.4166552  0.1284664  )
        75           I   tau(  75) = (  0.3333275  0.4166499  0.6284663  )
        76           I   tau(  76) = (  0.3333233  0.6666539  0.1284610  )
        77           I   tau(  77) = (  0.3333259  0.6666486  0.6284610  )
        78           I   tau(  78) = (  0.3333218  0.9166527  0.1284556  )
        79           I   tau(  79) = (  0.3333244  0.9166473  0.6284556  )
        80           I   tau(  80) = (  0.5833258  0.1666552  0.1284760  )
        81           I   tau(  81) = (  0.5833284  0.1666499  0.6284760  )
        82           I   tau(  82) = (  0.5833243  0.4166539  0.1284706  )
        83           I   tau(  83) = (  0.5833269  0.4166486  0.6284706  )
        84           I   tau(  84) = (  0.5833227  0.6666527  0.1284652  )
        85           I   tau(  85) = (  0.5833253  0.6666474  0.6284652  )
        86           I   tau(  86) = (  0.5833212  0.9166514  0.1284599  )
        87           I   tau(  87) = (  0.5833238  0.9166461  0.6284599  )
        88           I   tau(  88) = (  0.8333252  0.1666540  0.1284803  )
        89           I   tau(  89) = (  0.8333278  0.1666487  0.6284803  )
        90           I   tau(  90) = (  0.8333237  0.4166527  0.1284749  )
        91           I   tau(  91) = (  0.8333262  0.4166474  0.6284749  )
        92           I   tau(  92) = (  0.8333221  0.6666515  0.1284695  )
        93           I   tau(  93) = (  0.8333247  0.6666462  0.6284695  )
        94           I   tau(  94) = (  0.8333206  0.9166502  0.1284641  )
        95           I   tau(  95) = (  0.8333232  0.9166449  0.6284641  )
        96           Pb  tau(  96) = (  0.1666641  0.0833170  0.3715286  )

     number of k points=     1  Gaussian smearing, width (Ry)=  0.0100
                       cart. coord. in units 2pi/alat
        k(    1) = (   0.0000000   0.0000000   0.0000000), wk =   2.0000000

                       cryst. coord.
        k(    1) = (   0.0000000   0.0000000   0.0000000), wk =   2.0000000

     Dense  grid:  3385235 G-vectors     FFT dimensions: ( 216, 216, 180)

     Smooth grid:  2422379 G-vectors     FFT dimensions: ( 192, 192, 150)

     Dynamical RAM for                 wfc:      33.13 MB

     Dynamical RAM for     wfc (w. buffer):      33.13 MB

     Dynamical RAM for           str. fact:       0.81 MB

     Dynamical RAM for           local pot:       0.00 MB

     Dynamical RAM for          nlocal pot:      62.36 MB

     Dynamical RAM for                qrad:       3.00 MB

     Dynamical RAM for          rho,v,vnew:       3.35 MB

     Dynamical RAM for               rhoin:       1.12 MB

     Dynamical RAM for            rho*nmix:       6.46 MB

     Dynamical RAM for           G-vectors:       1.66 MB

     Dynamical RAM for          h,s,v(r/c):     617.23 MB

     Dynamical RAM for          <psi|beta>:      24.21 MB

     Dynamical RAM for                 psi:     132.51 MB

     Dynamical RAM for                hpsi:     132.51 MB

     Dynamical RAM for                spsi:     132.51 MB

     Dynamical RAM for      wfcinit/wfcrot:      85.55 MB

     Dynamical RAM for           addusdens:     100.50 MB

     Dynamical RAM for          addusforce:     150.99 MB

     Dynamical RAM for         addusstress:      81.13 MB

     Estimated static dynamical RAM per process >     110.19 MB

     Estimated max dynamical RAM per process >       1.13 GB

     Estimated total dynamical RAM >     144.45 GB

     Atomic positions and unit cell read from directory:
     ./PbI2.save/
     Atomic positions from file used, from input discarded
 

     Check: negative core charge=   -0.000001

     The initial density is read from file :
     ./PbI2.save/charge-density


     starting charge    1531.0000, renormalised to    1530.0000


     %%%%%%%%%%%%%%%%%%%%%%%%%%%%%%%%%%%%%%%%%%%%%%%%%%%%%%%%%%%%%%%%%%%%%%%%
     %                                                                      %
     % You are using vdW-DF, which was implemented by the Thonhauser group. %
     % Please cite the following two papers that made this development      %
     % possible and the two reviews that describe the various versions:     %
     %                                                                      %
     %   T. Thonhauser et al., PRL 115, 136402 (2015).                      %
     %   T. Thonhauser et al., PRB 76, 125112 (2007).                       %
     %   K. Berland et al., Rep. Prog. Phys. 78, 066501 (2015).             %
     %   D.C. Langreth et al., J. Phys.: Condens. Matter 21, 084203 (2009). %
     %                                                                      %
     % If you are calculating stress with vdW-DF, please also cite:         %
     %                                                                      %
     %   R. Sabatini et al., J. Phys.: Condens. Matter 24, 424209 (2012).   %
     %                                                                      %
     %%%%%%%%%%%%%%%%%%%%%%%%%%%%%%%%%%%%%%%%%%%%%%%%%%%%%%%%%%%%%%%%%%%%%%%%

     %%%%%%%%%%%%%%%%%%%%%%%%%%%%%%%%%%%%%%%%%%%%%%%%%%%%%%%%%%%%%%%%%%%%%%%%
     %                                                                      %
     %  vdW-DF NEWS:                                                        %
     %                                                                      %
     %  * vdW-DF3 is now available. DOI: 10.1021/acs.jctc.0c00471           %
     %    use with input_dft = 'vdW-DF3-opt1' or 'vdW-DF3-opt2'             %
     %                                                                      %
     %  * Unscreened and range-separated vdW-DF hybrid functionals          %
     %    DOI: 10.1063/1.4986522 and 10.1088/1361-648X/ac2ad2               %
     %    use with input_dft = 'vdW-DF-cx0' (etc) and 'vdW-DF-ahcx'         %
     %                                                                      %
     %%%%%%%%%%%%%%%%%%%%%%%%%%%%%%%%%%%%%%%%%%%%%%%%%%%%%%%%%%%%%%%%%%%%%%%%


     Carrying out vdW-DF run using the following parameters:
     Nqs    =  20  Npoints =  1024  r_max =  100.000
     q_mesh =  0.00001000  0.04494208  0.09755937  0.15916263
               0.23128650  0.31572767  0.41458969  0.53033537
               0.66584808  0.82450364  1.01025438  1.22772762
               1.48234092  1.78043706  2.12944203  2.53805004
               3.01644009  3.57652955  4.23227104  5.00000000


     -----------------------------------------------
     Non-local corr. energy    =      45.70146039 Ry
     -----------------------------------------------

     Wavefunctions not found or not readable, recomputing them from scratch
     Starting wfcs are  864 randomized atomic wfcs +   54 random wfcs
     Checking if some PAW data can be deallocated... 
       PAW data deallocated on   63 nodes for type:  1
       PAW data deallocated on   65 nodes for type:  2

     total cpu time spent up to now is       17.4 secs

     Self-consistent Calculation

     iteration #  1     ecut=    70.00 Ry     beta= 0.70
     Davidson diagonalization with overlap

---- Real-time Memory Report at c_bands before calling an iterative solver
           546 MiB given to the printing process from OS
             0 MiB allocation reported by mallinfo(arena+hblkhd)
       1737049 MiB available memory on the node where the printing process lives
------------------
     c_bands:  4 eigenvalues not converged
     ethr =  1.00E-05,  avg # of iterations = 20.0


     -----------------------------------------------
     Non-local corr. energy    =      45.76553240 Ry
     -----------------------------------------------


     total cpu time spent up to now is      353.1 secs

     total energy              =  -65089.82699206 Ry
     estimated scf accuracy    <       0.07984646 Ry

     iteration #  2     ecut=    70.00 Ry     beta= 0.70
     Davidson diagonalization with overlap

---- Real-time Memory Report at c_bands before calling an iterative solver
          1263 MiB given to the printing process from OS
             0 MiB allocation reported by mallinfo(arena+hblkhd)
       1725040 MiB available memory on the node where the printing process lives
------------------
     ethr =  5.22E-06,  avg # of iterations = 12.0


     -----------------------------------------------
     Non-local corr. energy    =      45.75493564 Ry
     -----------------------------------------------


     total cpu time spent up to now is      539.2 secs

     total energy              =  -65089.79411711 Ry
     estimated scf accuracy    <       0.40107427 Ry

     iteration #  3     ecut=    70.00 Ry     beta= 0.70
     Davidson diagonalization with overlap

---- Real-time Memory Report at c_bands before calling an iterative solver
          1263 MiB given to the printing process from OS
             0 MiB allocation reported by mallinfo(arena+hblkhd)
       1724938 MiB available memory on the node where the printing process lives
------------------
     ethr =  5.22E-06,  avg # of iterations = 15.0


     -----------------------------------------------
     Non-local corr. energy    =      45.74427964 Ry
     -----------------------------------------------


     total cpu time spent up to now is      755.8 secs

     total energy              =  -65089.86438892 Ry
     estimated scf accuracy    <       0.01970573 Ry

     iteration #  4     ecut=    70.00 Ry     beta= 0.70
     Davidson diagonalization with overlap

---- Real-time Memory Report at c_bands before calling an iterative solver
          1263 MiB given to the printing process from OS
             0 MiB allocation reported by mallinfo(arena+hblkhd)
       1724821 MiB available memory on the node where the printing process lives
------------------
     ethr =  1.29E-06,  avg # of iterations = 15.0


     -----------------------------------------------
     Non-local corr. energy    =      45.74005974 Ry
     -----------------------------------------------


     total cpu time spent up to now is      942.4 secs

     total energy              =  -65089.86670886 Ry
     estimated scf accuracy    <       0.01245720 Ry

     iteration #  5     ecut=    70.00 Ry     beta= 0.70
     Davidson diagonalization with overlap

---- Real-time Memory Report at c_bands before calling an iterative solver
          1263 MiB given to the printing process from OS
             0 MiB allocation reported by mallinfo(arena+hblkhd)
       1724673 MiB available memory on the node where the printing process lives
------------------
     ethr =  8.14E-07,  avg # of iterations = 12.0


     -----------------------------------------------
     Non-local corr. energy    =      45.73623959 Ry
     -----------------------------------------------


     total cpu time spent up to now is     1076.3 secs

     total energy              =  -65089.86862087 Ry
     estimated scf accuracy    <       0.00141021 Ry

     iteration #  6     ecut=    70.00 Ry     beta= 0.70
     Davidson diagonalization with overlap

---- Real-time Memory Report at c_bands before calling an iterative solver
          1263 MiB given to the printing process from OS
             0 MiB allocation reported by mallinfo(arena+hblkhd)
       1724552 MiB available memory on the node where the printing process lives
------------------
     ethr =  9.22E-08,  avg # of iterations = 14.0


     -----------------------------------------------
     Non-local corr. energy    =      45.73119770 Ry
     -----------------------------------------------


     total cpu time spent up to now is     1268.9 secs

     total energy              =  -65089.86892084 Ry
     estimated scf accuracy    <       0.00049022 Ry

     iteration #  7     ecut=    70.00 Ry     beta= 0.70
     Davidson diagonalization with overlap

---- Real-time Memory Report at c_bands before calling an iterative solver
          1263 MiB given to the printing process from OS
             0 MiB allocation reported by mallinfo(arena+hblkhd)
       1724417 MiB available memory on the node where the printing process lives
------------------
     ethr =  3.20E-08,  avg # of iterations = 13.0


     -----------------------------------------------
     Non-local corr. energy    =      45.72666755 Ry
     -----------------------------------------------


     total cpu time spent up to now is     1460.4 secs

     total energy              =  -65089.86901449 Ry
     estimated scf accuracy    <       0.00013148 Ry

     iteration #  8     ecut=    70.00 Ry     beta= 0.70
     Davidson diagonalization with overlap

---- Real-time Memory Report at c_bands before calling an iterative solver
          1263 MiB given to the printing process from OS
             0 MiB allocation reported by mallinfo(arena+hblkhd)
       1724304 MiB available memory on the node where the printing process lives
------------------
     ethr =  8.59E-09,  avg # of iterations = 13.0


     -----------------------------------------------
     Non-local corr. energy    =      45.72640549 Ry
     -----------------------------------------------


     total cpu time spent up to now is     1650.9 secs

     total energy              =  -65089.86903906 Ry
     estimated scf accuracy    <       0.00004718 Ry

     iteration #  9     ecut=    70.00 Ry     beta= 0.70
     Davidson diagonalization with overlap

---- Real-time Memory Report at c_bands before calling an iterative solver
          1263 MiB given to the printing process from OS
             0 MiB allocation reported by mallinfo(arena+hblkhd)
       1724178 MiB available memory on the node where the printing process lives
------------------
     ethr =  3.08E-09,  avg # of iterations = 14.0


     -----------------------------------------------
     Non-local corr. energy    =      45.72676429 Ry
     -----------------------------------------------


     total cpu time spent up to now is     1827.0 secs

     total energy              =  -65089.86905078 Ry
     estimated scf accuracy    <       0.00000864 Ry

     iteration # 10     ecut=    70.00 Ry     beta= 0.70
     Davidson diagonalization with overlap

---- Real-time Memory Report at c_bands before calling an iterative solver
          1263 MiB given to the printing process from OS
             0 MiB allocation reported by mallinfo(arena+hblkhd)
       1724054 MiB available memory on the node where the printing process lives
------------------
     c_bands:  1 eigenvalues not converged
     ethr =  5.65E-10,  avg # of iterations = 20.0


     -----------------------------------------------
     Non-local corr. energy    =      45.72691389 Ry
     -----------------------------------------------


     total cpu time spent up to now is     2181.8 secs

     total energy              =  -65089.86905378 Ry
     estimated scf accuracy    <       0.00000107 Ry

     iteration # 11     ecut=    70.00 Ry     beta= 0.70
     Davidson diagonalization with overlap

---- Real-time Memory Report at c_bands before calling an iterative solver
          1263 MiB given to the printing process from OS
             0 MiB allocation reported by mallinfo(arena+hblkhd)
       1724051 MiB available memory on the node where the printing process lives
------------------
     c_bands:  1 eigenvalues not converged
     ethr =  7.02E-11,  avg # of iterations = 20.0


     -----------------------------------------------
     Non-local corr. energy    =      45.72705176 Ry
     -----------------------------------------------


     total cpu time spent up to now is     2430.3 secs

     total energy              =  -65089.86905411 Ry
     estimated scf accuracy    <       0.00000017 Ry

     iteration # 12     ecut=    70.00 Ry     beta= 0.70
     Davidson diagonalization with overlap

---- Real-time Memory Report at c_bands before calling an iterative solver
          1263 MiB given to the printing process from OS
             0 MiB allocation reported by mallinfo(arena+hblkhd)
       1724054 MiB available memory on the node where the printing process lives
------------------
     c_bands:  1 eigenvalues not converged
     ethr =  1.13E-11,  avg # of iterations = 20.0


     -----------------------------------------------
     Non-local corr. energy    =      45.72697075 Ry
     -----------------------------------------------


     total cpu time spent up to now is     2762.9 secs

     total energy              =  -65089.86905408 Ry
     estimated scf accuracy    <       0.00000011 Ry

     iteration # 13     ecut=    70.00 Ry     beta= 0.70
     Davidson diagonalization with overlap

---- Real-time Memory Report at c_bands before calling an iterative solver
          1263 MiB given to the printing process from OS
             0 MiB allocation reported by mallinfo(arena+hblkhd)
       1724003 MiB available memory on the node where the printing process lives
------------------
     c_bands:  1 eigenvalues not converged
     ethr =  7.00E-12,  avg # of iterations = 20.0


     -----------------------------------------------
     Non-local corr. energy    =      45.72693089 Ry
     -----------------------------------------------


     total cpu time spent up to now is     2999.2 secs

     End of self-consistent calculation

          k = 0.0000 0.0000 0.0000 (302703 PWs)   bands (ev):

   -41.5596 -41.5596 -41.5596 -41.5278 -41.5278 -41.5278 -41.5247 -41.5247
   -41.5247 -41.4311 -41.4311 -41.4311 -41.4307 -41.4307 -41.4306 -41.0399
   -41.0399 -41.0398 -41.0203 -41.0203 -41.0203 -41.0179 -41.0178 -41.0178
   -40.9570 -40.9570 -40.9569 -40.9564 -40.9563 -40.9563 -40.9378 -40.9378
   -40.9378 -40.9235 -40.9235 -40.9235 -40.9222 -40.9222 -40.9221 -40.8839
   -40.8839 -40.8839 -40.8839 -40.8839 -40.8838 -40.8802 -40.8802 -40.8801
   -40.8797 -40.8797 -40.8796 -40.8754 -40.8754 -40.8754 -40.8754 -40.8754
   -40.8754 -40.8708 -40.8708 -40.8708 -40.8708 -40.8708 -40.8708 -40.8486
   -40.8486 -40.8485 -40.8477 -40.8476 -40.8476 -40.8440 -40.8440 -40.8440
   -40.8440 -40.8440 -40.8440 -40.8436 -40.8435 -40.8435 -40.8435 -40.8435
   -40.8435 -40.8309 -40.8309 -40.8309 -40.8307 -40.8306 -40.8306 -40.8258
   -40.8258 -40.8258 -40.7819 -40.7819 -40.7703 -40.7703 -40.7661 -40.7652
   -40.7652 -40.7651 -40.7651 -40.7651 -40.7651 -40.7647 -40.7647 -40.7647
   -40.7647 -40.7647 -40.7647 -40.7546 -40.7546 -40.7546 -40.7545 -40.7545
   -40.7545 -40.7506 -40.7506 -40.7505 -40.7505 -40.7505 -40.7505 -40.7489
   -40.7489 -40.7489 -40.7489 -40.7488 -40.7488 -40.7333 -40.7333 -40.7333
   -40.7333 -40.7333 -40.7333 -40.7322 -40.7322 -40.7322 -40.7322 -40.7322
   -40.7322 -40.7274 -40.7274 -40.7274 -40.7273 -40.7273 -40.7273 -40.7206
   -40.7205 -40.7205 -40.7205 -40.7205 -40.7205 -40.7200 -40.7200 -40.7200
   -40.7199 -40.7199 -40.7199 -40.7117 -40.7117 -40.7117 -40.7095 -40.7095
   -40.7095 -40.7079 -40.7079 -40.7079 -40.7021 -40.7021 -40.7021 -40.7020
   -40.7020 -40.7020 -40.7016 -40.7016 -40.7016 -40.7012 -40.7012 -40.7012
   -40.6967 -40.6966 -40.6966 -40.6955 -40.6955 -40.6955 -40.6948 -40.6948
   -40.6948 -40.6881 -40.6881 -40.6881 -40.6880 -40.6880 -40.6880 -40.6857
   -40.6857 -40.6856 -40.6838 -40.6838 -40.6838 -40.6836 -40.6835 -40.6835
   -40.6610 -40.6610 -40.6610 -40.6606 -40.6606 -40.6606 -40.6593 -40.6593
   -40.6593 -40.6582 -40.6582 -40.6582 -40.6578 -40.6578 -40.6578 -40.6459
   -40.6459 -40.6459 -40.6455 -40.6455 -40.6455 -40.6424 -40.6424 -40.6412
   -40.6412 -40.6412 -40.6411 -40.6411 -40.6411 -40.6382 -40.6382 -40.6373
   -40.6373 -40.6373 -40.6364 -40.6362 -40.6361 -40.6361 -40.6355 -40.6355
   -40.6355 -40.6343 -40.6343 -40.6343 -40.6317 -40.6316 -40.6316 -40.6314
   -40.6313 -40.6313 -40.5961 -40.5961 -40.5961 -40.5955 -40.5954 -40.5954
   -40.5944 -40.5944 -40.5944 -40.5943 -40.5943 -40.5943 -40.5941 -40.5941
   -40.5941 -40.5930 -40.5930 -40.5929 -40.5929 -40.5929 -40.5929 -40.5920
   -40.5920 -40.5920 -40.5920 -40.5919 -40.5919 -40.5908 -40.5908 -40.5908
   -40.5908 -40.5908 -40.5908 -40.5893 -40.5893 -40.5893 -40.5893 -40.5893
   -40.5892 -40.5887 -40.5887 -40.5887 -40.5887 -40.5887 -40.5887 -40.5808
   -40.5808 -40.5808 -40.5787 -40.5787 -40.5787 -40.5783 -40.5783 -40.5783
   -40.5742 -40.5742 -40.5742 -40.5734 -40.5734 -40.5734 -40.5723 -40.5722
   -40.5721 -40.5695 -40.5695 -14.2036 -14.2036 -14.1834 -14.1804 -14.1804
   -13.2351 -13.2308 -13.2308 -13.2037 -13.2017 -13.2017 -13.1979 -13.1979
   -13.1961 -13.1740 -13.1739 -13.1650 -13.1569 -13.1553 -13.1553 -13.0731
   -13.0731 -13.0689 -13.0650 -13.0646 -13.0646 -13.0510 -13.0502 -13.0502
   -13.0462 -13.0411 -13.0411 -13.0399 -13.0399 -13.0395 -13.0392 -13.0377
   -13.0377 -13.0333 -13.0329 -13.0317 -13.0317 -13.0304 -13.0303 -13.0278
   -13.0277 -13.0257 -13.0183 -13.0183 -13.0183 -12.8751 -12.8751 -12.8689
   -12.8665 -12.8586 -12.8574 -12.8574 -12.8562 -12.8562 -12.8498 -12.8483
   -12.8483 -12.8453 -12.8453 -12.8440 -12.8367 -12.8366 -12.8366 -12.8324
   -12.8315 -12.8300 -12.8300 -12.8284 -12.8283 -12.8264 -12.8264 -12.8245
   -12.8216 -12.8216 -12.8208 -12.8208 -12.8180 -12.8172 -12.8168 -12.8165
   -12.8165 -12.8161 -12.8159 -12.8159 -12.8159 -12.8153 -12.8153 -12.8149
   -12.8149 -12.8145 -12.8135 -12.8126 -12.8126 -12.8119 -12.8114 -12.8114
   -12.8105 -12.8105 -12.8101 -12.8098 -12.8098 -12.8094 -12.8084 -12.8084
   -12.8073 -12.8066 -12.8066 -12.8042 -12.8041 -12.8041 -12.8036 -12.8035
   -12.8025 -12.8003 -12.8003 -12.7998 -12.7977 -12.7964 -12.7963 -12.7957
   -12.7954 -12.7954 -12.7950 -12.7949 -12.7940 -12.7809 -12.7809 -12.7805
   -12.7766 -12.7766 -12.7762 -12.7658 -12.7656 -12.7656 -12.7647 -12.7647
   -12.7645 -12.7615 -12.7615 -12.7614 -12.7285 -12.7285 -12.7187 -12.7161
   -12.7134 -12.7134 -12.7121 -12.7121 -12.7069 -12.7069 -12.7043 -12.6998
   -12.6977 -12.6977 -12.6949 -12.6945 -12.6945 -12.6931 -12.6930 -12.6922
    -8.5307  -8.2693  -8.2692  -8.0608  -8.0008  -7.9303  -7.9303  -7.8800
    -7.8800  -7.8547  -7.8454  -7.8454  -7.8142  -7.7469  -7.7469  -7.7443
    -7.7282  -7.6607  -7.6607  -7.6577  -7.6404  -7.6404  -7.6356  -7.6264
    -7.6059  -7.6059  -7.5883  -7.5883  -7.5857  -7.5680  -7.5605  -7.5605
    -7.5316  -7.5316  -7.5315  -7.5165  -7.5164  -7.5164  -7.4928  -7.4864
    -7.4864  -7.4790  -7.4586  -7.4569  -7.4569  -7.4334  -7.4334  -7.4253
    -7.4208  -7.4208  -7.4115  -7.4093  -7.4093  -7.3936  -7.3580  -7.3580
    -7.3546  -7.3405  -7.3342  -7.3342  -7.3108  -7.3108  -7.3097  -4.6187
    -3.7796  -3.7796  -3.7670  -3.7203  -3.7202  -3.7148  -3.6562  -3.6562
    -3.5518  -3.5512  -3.5512  -3.5298  -3.5009  -3.4959  -3.4959  -3.4754
    -3.4410  -3.4359  -3.4359  -3.3716  -3.3716  -3.3643  -3.2971  -3.2854
    -3.2854  -3.2725  -3.2725  -3.2021  -3.2021  -3.1759  -3.1148  -3.0009
     0.6793   0.6793   0.8024   1.0439   1.0439   1.1032   1.1796   1.1796
     1.2093   1.2151   1.2175   1.2176   1.2582   1.2582   1.3186   1.3755
     1.4040   1.4054   1.4054   1.4197   1.4213   1.4214   1.4717   1.4717
     1.4772   1.4784   1.4784   1.5536   1.5536   1.5604   1.5730   1.5730
     1.5790   1.5907   1.5908   1.5990   1.6518   1.6519   1.6848   1.6963
     1.6964   1.7178   1.7293   1.7293   1.7394   1.7394   1.7976   1.8305
     1.8305   1.8639   1.8692   1.9081   1.9081   1.9232   1.9725   2.0230
     2.0230   2.0305   2.0315   2.0315   2.0695   2.0695   2.0752   2.0998
     2.1130   2.1130   2.1230   2.1542   2.1542   2.1650   2.1651   2.1856
     2.2212   2.2235   2.2236   2.2306   2.2400   2.2400   2.2544   2.2557
     2.2694   2.2694   2.3077   2.3468   2.3468   2.3627   2.3627   2.3689
     2.3807   2.3807   2.3925   2.3925   2.3951   2.3986   2.4126   2.4126
     2.4150   2.4582   2.4582   2.4782   2.5196   2.5197   2.5442   2.5645
     2.5645   2.6213   2.6213   2.6246   2.6459   2.6467   2.6467   2.6563
     2.7266   2.7274   2.7274   2.7637   2.7637   2.7695   2.7772   2.7992
     2.7992   2.8277   2.8277   2.8403   2.8403   2.8557   2.8682   2.8682
     2.9084   2.9129   2.9129   2.9158   2.9250   2.9250   2.9372   2.9403
     2.9507   2.9507   2.9652   2.9652   2.9802   2.9802   2.9860   2.9947
     3.0372   3.0372   3.0634   3.0634   3.0717   3.0767   3.0767   3.0824
     3.0824   3.0872   3.0889   3.0889   3.0956   3.1046   3.1169   3.1169
     3.1219   3.1319   3.1319   3.1807   3.2036   3.2036   3.2352   3.2529
     3.2529   3.2744   3.2798   3.2955   3.2955   3.3194   3.3194   3.3327
     3.3615   3.3615   3.3787   3.4275   3.4276   3.4558   3.4624   3.4624
     3.4916   3.5060   3.5060   3.5085   3.5333   4.8121   5.4603   5.4603
     5.9143   6.1075   6.2526   6.4287   6.4287   6.5347   6.5348   6.5596
     6.5972   6.5972   6.6333   6.6861   6.6861   6.7081   6.7346   6.7346
     6.7547   6.7758   6.7758   6.8526   6.8527   6.8853   6.9390   6.9557
     6.9557   6.9676   6.9676   7.0016   7.0299   7.0299   7.0819   7.0819
     7.1377   7.1555   7.1691   7.1691   7.2074   7.2142   7.2315   7.2315
     7.2632   7.2859   7.2860   7.3061   7.3127   7.3127   7.3225   7.3361
     7.3362   7.3455   7.3455   7.3617   7.3706   7.3706   7.3830   7.3830
     7.3859   7.3901   7.4181   7.4182   7.4488   7.4488   7.4633   7.4633
     7.4679   7.4829   7.5204   7.5265   7.5265   7.5350   7.5433   7.5433
     7.5478   7.5610   7.5610   7.5708   7.5870   7.5870   7.6049   7.6049
     7.6377   7.6377   7.6381   7.6827   7.6827   7.6958   7.6976   7.7276
     7.7276   7.8105   7.8272   7.8330   7.8330   8.1075   8.1117   8.1117
     9.2198   9.2198   9.2430   9.7159   9.7777   9.7778   9.8530   9.8831
     9.8844   9.8844   9.9291   9.9394   9.9395  10.0388  10.0756  10.0756
    10.1148  10.1163  10.1163  10.1337  10.1337  10.1386  10.1517  10.1613
    10.1613  10.3598  10.4051  10.4059  10.4059  10.4689  10.4689  10.5112
    10.5112  10.5129  10.5429  10.5546  10.5546  10.5546  10.8247  10.8416
    10.8432  10.8433  10.8577  10.8578  10.9245  10.9636  10.9636  11.0131
    11.0438  11.0438  11.0849  11.0849  11.1518  11.1981

     occupation numbers 
     1.0000   1.0000   1.0000   1.0000   1.0000   1.0000   1.0000   1.0000
     1.0000   1.0000   1.0000   1.0000   1.0000   1.0000   1.0000   1.0000
     1.0000   1.0000   1.0000   1.0000   1.0000   1.0000   1.0000   1.0000
     1.0000   1.0000   1.0000   1.0000   1.0000   1.0000   1.0000   1.0000
     1.0000   1.0000   1.0000   1.0000   1.0000   1.0000   1.0000   1.0000
     1.0000   1.0000   1.0000   1.0000   1.0000   1.0000   1.0000   1.0000
     1.0000   1.0000   1.0000   1.0000   1.0000   1.0000   1.0000   1.0000
     1.0000   1.0000   1.0000   1.0000   1.0000   1.0000   1.0000   1.0000
     1.0000   1.0000   1.0000   1.0000   1.0000   1.0000   1.0000   1.0000
     1.0000   1.0000   1.0000   1.0000   1.0000   1.0000   1.0000   1.0000
     1.0000   1.0000   1.0000   1.0000   1.0000   1.0000   1.0000   1.0000
     1.0000   1.0000   1.0000   1.0000   1.0000   1.0000   1.0000   1.0000
     1.0000   1.0000   1.0000   1.0000   1.0000   1.0000   1.0000   1.0000
     1.0000   1.0000   1.0000   1.0000   1.0000   1.0000   1.0000   1.0000
     1.0000   1.0000   1.0000   1.0000   1.0000   1.0000   1.0000   1.0000
     1.0000   1.0000   1.0000   1.0000   1.0000   1.0000   1.0000   1.0000
     1.0000   1.0000   1.0000   1.0000   1.0000   1.0000   1.0000   1.0000
     1.0000   1.0000   1.0000   1.0000   1.0000   1.0000   1.0000   1.0000
     1.0000   1.0000   1.0000   1.0000   1.0000   1.0000   1.0000   1.0000
     1.0000   1.0000   1.0000   1.0000   1.0000   1.0000   1.0000   1.0000
     1.0000   1.0000   1.0000   1.0000   1.0000   1.0000   1.0000   1.0000
     1.0000   1.0000   1.0000   1.0000   1.0000   1.0000   1.0000   1.0000
     1.0000   1.0000   1.0000   1.0000   1.0000   1.0000   1.0000   1.0000
     1.0000   1.0000   1.0000   1.0000   1.0000   1.0000   1.0000   1.0000
     1.0000   1.0000   1.0000   1.0000   1.0000   1.0000   1.0000   1.0000
     1.0000   1.0000   1.0000   1.0000   1.0000   1.0000   1.0000   1.0000
     1.0000   1.0000   1.0000   1.0000   1.0000   1.0000   1.0000   1.0000
     1.0000   1.0000   1.0000   1.0000   1.0000   1.0000   1.0000   1.0000
     1.0000   1.0000   1.0000   1.0000   1.0000   1.0000   1.0000   1.0000
     1.0000   1.0000   1.0000   1.0000   1.0000   1.0000   1.0000   1.0000
     1.0000   1.0000   1.0000   1.0000   1.0000   1.0000   1.0000   1.0000
     1.0000   1.0000   1.0000   1.0000   1.0000   1.0000   1.0000   1.0000
     1.0000   1.0000   1.0000   1.0000   1.0000   1.0000   1.0000   1.0000
     1.0000   1.0000   1.0000   1.0000   1.0000   1.0000   1.0000   1.0000
     1.0000   1.0000   1.0000   1.0000   1.0000   1.0000   1.0000   1.0000
     1.0000   1.0000   1.0000   1.0000   1.0000   1.0000   1.0000   1.0000
     1.0000   1.0000   1.0000   1.0000   1.0000   1.0000   1.0000   1.0000
     1.0000   1.0000   1.0000   1.0000   1.0000   1.0000   1.0000   1.0000
     1.0000   1.0000   1.0000   1.0000   1.0000   1.0000   1.0000   1.0000
     1.0000   1.0000   1.0000   1.0000   1.0000   1.0000   1.0000   1.0000
     1.0000   1.0000   1.0000   1.0000   1.0000   1.0000   1.0000   1.0000
     1.0000   1.0000   1.0000   1.0000   1.0000   1.0000   1.0000   1.0000
     1.0000   1.0000   1.0000   1.0000   1.0000   1.0000   1.0000   1.0000
     1.0000   1.0000   1.0000   1.0000   1.0000   1.0000   1.0000   1.0000
     1.0000   1.0000   1.0000   1.0000   1.0000   1.0000   1.0000   1.0000
     1.0000   1.0000   1.0000   1.0000   1.0000   1.0000   1.0000   1.0000
     1.0000   1.0000   1.0000   1.0000   1.0000   1.0000   1.0000   1.0000
     1.0000   1.0000   1.0000   1.0000   1.0000   1.0000   1.0000   1.0000
     1.0000   1.0000   1.0000   1.0000   1.0000   1.0000   1.0000   1.0000
     1.0000   1.0000   1.0000   1.0000   1.0000   1.0000   1.0000   1.0000
     1.0000   1.0000   1.0000   1.0000   1.0000   1.0000   1.0000   1.0000
     1.0000   1.0000   1.0000   1.0000   1.0000   1.0000   1.0000   1.0000
     1.0000   1.0000   1.0000   1.0000   1.0000   1.0000   1.0000   1.0000
     1.0000   1.0000   1.0000   1.0000   1.0000   1.0000   1.0000   1.0000
     1.0000   1.0000   1.0000   1.0000   1.0000   1.0000   1.0000   1.0000
     1.0000   1.0000   1.0000   1.0000   1.0000   1.0000   1.0000   1.0000
     1.0000   1.0000   1.0000   1.0000   1.0000   1.0000   1.0000   1.0000
     1.0000   1.0000   1.0000   1.0000   1.0000   1.0000   1.0000   1.0000
     1.0000   1.0000   1.0000   1.0000   1.0000   1.0000   1.0000   1.0000
     1.0000   1.0000   1.0000   1.0000   1.0000   1.0000   1.0000   1.0000
     1.0000   1.0000   1.0000   1.0000   1.0000   1.0000   1.0000   1.0000
     1.0000   1.0000   1.0000   1.0000   1.0000   1.0000   1.0000   1.0000
     1.0000   1.0000   1.0000   1.0000   1.0000   1.0000   1.0000   1.0000
     1.0000   1.0000   1.0000   1.0000   1.0000   1.0000   1.0000   1.0000
     1.0000   1.0000   1.0000   1.0000   1.0000   1.0000   1.0000   1.0000
     1.0000   1.0000   1.0000   1.0000   1.0000   1.0000   1.0000   1.0000
     1.0000   1.0000   1.0000   1.0000   1.0000   1.0000   1.0000   1.0000
     1.0000   1.0000   1.0000   1.0000   1.0000   1.0000   1.0000   1.0000
     1.0000   1.0000   1.0000   1.0000   1.0000   1.0000   1.0000   1.0000
     1.0000   1.0000   1.0000   1.0000   1.0000   1.0000   1.0000   1.0000
     1.0000   1.0000   1.0000   1.0000   1.0000   1.0000   1.0000   1.0000
     1.0000   1.0000   1.0000   1.0000   1.0000   1.0000   1.0000   1.0000
     1.0000   1.0000   1.0000   1.0000   1.0000   1.0000   1.0000   1.0000
     1.0000   1.0000   1.0000   1.0000   1.0000   1.0000   1.0000   1.0000
     1.0000   1.0000   1.0000   1.0000   1.0000   1.0000   1.0000   1.0000
     1.0000   1.0000   1.0000   1.0000   1.0000   1.0000   1.0000   1.0000
     1.0000   1.0000   1.0000   1.0000   1.0000   1.0000   1.0000   1.0000
     1.0000   1.0000   1.0000   1.0000   1.0000   1.0000   1.0000   1.0000
     1.0000   1.0000   1.0000   1.0000   1.0000   1.0000   1.0000   1.0000
     1.0000   1.0000   1.0000   1.0000   1.0000   1.0000   1.0000   1.0000
     1.0000   1.0000   1.0000   1.0000   1.0000   1.0000   1.0000   1.0000
     1.0000   1.0000   1.0000   1.0000   1.0000   1.0000   1.0000   1.0000
     1.0000   1.0000   1.0000   1.0000   1.0000   1.0000   1.0000   1.0000
     1.0000   1.0000   1.0000   1.0000   1.0000   1.0000   1.0000   1.0000
     1.0000   1.0000   1.0000   1.0000   1.0000   1.0000   1.0000   1.0000
     1.0000   1.0000   1.0000   1.0000   1.0000   1.0000   1.0000   1.0000
     1.0000   1.0000   1.0000   1.0000   1.0000   1.0000   1.0000   1.0000
     1.0000   1.0000   1.0000   1.0000   1.0000   1.0000   1.0000   1.0000
     1.0000   1.0000   1.0000   1.0000   1.0000   1.0000   1.0000   1.0000
     1.0000   1.0000   1.0000   1.0000   1.0000   1.0000   1.0000   1.0000
     1.0000   1.0000   1.0000   1.0000   1.0000   1.0000   1.0000   1.0000
     1.0000   1.0000   1.0000   1.0000   1.0000   1.0000   1.0000   1.0000
     1.0000   1.0000   1.0000   1.0000   1.0000   1.0000   1.0000   1.0000
     1.0000   1.0000   1.0000   1.0000   1.0000   1.0000   1.0000   1.0000
     1.0000   1.0000   1.0000   1.0000   1.0000   1.0000   1.0000   1.0000
     1.0000   1.0000   1.0000   1.0000   1.0000   0.0000   0.0000   0.0000
     0.0000   0.0000   0.0000   0.0000   0.0000   0.0000   0.0000   0.0000
     0.0000   0.0000   0.0000   0.0000   0.0000   0.0000   0.0000   0.0000
     0.0000   0.0000   0.0000   0.0000   0.0000   0.0000   0.0000   0.0000
     0.0000   0.0000   0.0000   0.0000   0.0000   0.0000   0.0000   0.0000
     0.0000   0.0000   0.0000   0.0000   0.0000   0.0000   0.0000   0.0000
     0.0000   0.0000   0.0000   0.0000   0.0000   0.0000   0.0000   0.0000
     0.0000   0.0000   0.0000   0.0000   0.0000   0.0000   0.0000   0.0000
     0.0000   0.0000   0.0000   0.0000   0.0000   0.0000   0.0000   0.0000
     0.0000   0.0000   0.0000   0.0000   0.0000   0.0000   0.0000   0.0000
     0.0000   0.0000   0.0000   0.0000   0.0000   0.0000   0.0000   0.0000
     0.0000   0.0000   0.0000   0.0000   0.0000   0.0000   0.0000   0.0000
     0.0000   0.0000   0.0000   0.0000   0.0000   0.0000   0.0000   0.0000
     0.0000   0.0000   0.0000   0.0000   0.0000   0.0000   0.0000   0.0000
     0.0000   0.0000   0.0000   0.0000   0.0000   0.0000   0.0000   0.0000
     0.0000   0.0000   0.0000   0.0000   0.0000   0.0000   0.0000   0.0000
     0.0000   0.0000   0.0000   0.0000   0.0000   0.0000   0.0000   0.0000
     0.0000   0.0000   0.0000   0.0000   0.0000   0.0000   0.0000   0.0000
     0.0000   0.0000   0.0000   0.0000   0.0000   0.0000   0.0000   0.0000
     0.0000   0.0000   0.0000   0.0000   0.0000   0.0000

     the Fermi energy is     4.1609 ev

!    total energy              =  -65089.86905406 Ry
     total all-electron energy =  -2276515.910706 Ry
     estimated scf accuracy    <       0.00000002 Ry
     smearing contrib. (-TS)   =      -0.00000000 Ry
     internal energy E=F+TS    =  -65089.86905406 Ry

     The total energy is F=E-TS. E is the sum of the following terms:
     one-electron contribution =  -11840.21955122 Ry
     hartree contribution      =    6623.24672627 Ry
     xc contribution           =   -4514.30085472 Ry
     ewald contribution        =   -9844.35773465 Ry
     one-center paw contrib.   =  -45514.23763973 Ry
      -> PAW hartree energy AE =      95.90849747 Ry
      -> PAW hartree energy PS =     -96.14559479 Ry
      -> PAW xc energy AE      =    -798.42707222 Ry
      -> PAW xc energy PS      =      33.30818279 Ry
      -> total E_H with PAW    =    6623.00962894 Ry
      -> total E_XC with PAW   =   -5279.41974415 Ry

     convergence has been achieved in  13 iterations


     -----------------------------------------------
     Non-local corr. energy    =      45.72693089 Ry
     -----------------------------------------------


     Forces acting on atoms (cartesian axes, Ry/au):

     atom    1 type  1   force =     0.00000068    0.00495346   -0.00498892
     atom    2 type  1   force =    -0.00000028    0.02191157    0.00900059
     atom    3 type  1   force =    -0.00046528    0.00203074    0.00017679
     atom    4 type  1   force =    -0.00364205    0.00408117   -0.00132323
     atom    5 type  1   force =     0.00152483   -0.00141787    0.00017540
     atom    6 type  1   force =     0.00171284   -0.00519703   -0.00132642
     atom    7 type  1   force =     0.00428918   -0.00247649   -0.00498888
     atom    8 type  1   force =     0.01897704   -0.01095521    0.00900254
     atom    9 type  1   force =     0.00580244    0.00335040   -0.00313160
     atom   10 type  1   force =     0.00518316    0.00299353    0.00041383
     atom   11 type  1   force =     0.00046537    0.00202956    0.00017633
     atom   12 type  1   force =     0.00364309    0.00408140   -0.00132380
     atom   13 type  1   force =     0.00000021   -0.00000038    0.00029330
     atom   14 type  1   force =     0.00000007    0.00000009   -0.00061764
     atom   15 type  1   force =     0.00199107   -0.00061260    0.00017440
     atom   16 type  1   force =     0.00535787    0.00111503   -0.00132703
     atom   17 type  1   force =     0.00000069    0.00003076    0.00049683
     atom   18 type  1   force =    -0.00000028    0.00086571   -0.00021235
     atom   19 type  1   force =     0.00002506   -0.00001538    0.00050003
     atom   20 type  1   force =     0.00074925   -0.00043012   -0.00021248
     atom   21 type  1   force =    -0.00152505   -0.00141775    0.00017483
     atom   22 type  1   force =    -0.00171250   -0.00519625   -0.00132625
     atom   23 type  1   force =    -0.00199148   -0.00061301    0.00017439
     atom   24 type  1   force =    -0.00535626    0.00111419   -0.00132604
     atom   25 type  1   force =    -0.00580285    0.00335052   -0.00313089
     atom   26 type  1   force =    -0.00518283    0.00299320    0.00041280
     atom   27 type  1   force =    -0.00002534   -0.00001634    0.00049934
     atom   28 type  1   force =    -0.00074941   -0.00042983   -0.00021195
     atom   29 type  1   force =    -0.00000022   -0.00670296   -0.00313382
     atom   30 type  1   force =    -0.00000031   -0.00598304    0.00041436
     atom   31 type  1   force =    -0.00428948   -0.00247714   -0.00498971
     atom   32 type  1   force =    -0.01897542   -0.01095385    0.00900040
     atom   33 type  2   force =    -0.00000072    0.00000106    0.00013285
     atom   34 type  2   force =     0.00264944   -0.00256336   -0.00039695
     atom   35 type  2   force =     0.00121028   -0.00161548    0.00012255
     atom   36 type  2   force =     0.00107655    0.00062275    0.00132979
     atom   37 type  2   force =     0.00012733    0.00007310    0.00036423
     atom   38 type  2   force =    -0.00089152    0.00357000   -0.00039746
     atom   39 type  2   force =    -0.00079605    0.00185713    0.00012202
     atom   40 type  2   force =    -0.00353980   -0.00101575   -0.00039845
     atom   41 type  2   force =    -0.00200705   -0.00024085    0.00012197
     atom   42 type  2   force =    -0.00265041   -0.00256292   -0.00039629
     atom   43 type  2   force =    -0.00121080   -0.00161496    0.00012231
     atom   44 type  2   force =    -0.00000002   -0.00046575    0.00047178
     atom   45 type  2   force =    -0.00000003   -0.00055991   -0.00041080
     atom   46 type  2   force =    -0.00040110    0.00023193    0.00047144
     atom   47 type  2   force =    -0.00048517    0.00027927   -0.00041172
     atom   48 type  2   force =    -0.00000090   -0.00124510    0.00132711
     atom   49 type  2   force =     0.00000023   -0.00014661    0.00036534
     atom   50 type  2   force =    -0.00121576   -0.00070128    0.00060353
     atom   51 type  2   force =    -0.00278983   -0.00160629    0.00124774
     atom   52 type  2   force =    -0.00107735    0.00062241    0.00132928
     atom   53 type  2   force =    -0.00012747    0.00007419    0.00036455
     atom   54 type  2   force =     0.00040279    0.00023306    0.00047032
     atom   55 type  2   force =     0.00048688    0.00028112   -0.00041079
     atom   56 type  2   force =     0.00354099   -0.00101547   -0.00039791
     atom   57 type  2   force =     0.00200591   -0.00024030    0.00012140
     atom   58 type  2   force =     0.00121645   -0.00070115    0.00060571
     atom   59 type  2   force =     0.00278946   -0.00160680    0.00124862
     atom   60 type  2   force =    -0.00000008    0.00140470    0.00060510
     atom   61 type  2   force =    -0.00000060    0.00321911    0.00124806
     atom   62 type  2   force =     0.00089190    0.00357320   -0.00039650
     atom   63 type  2   force =     0.00079555    0.00185706    0.00012214
     atom   64 type  2   force =     0.01222211   -0.00705627    0.01026730
     atom   65 type  2   force =     0.00221752   -0.00127724   -0.00037847
     atom   66 type  2   force =     0.00033912   -0.00112421    0.00014203
     atom   67 type  2   force =     0.00111872   -0.00087213    0.00008755
     atom   68 type  2   force =    -0.00080126    0.00085475    0.00014033
     atom   69 type  2   force =    -0.00019709    0.00140631    0.00008986
     atom   70 type  2   force =    -0.00000088    0.01411136    0.01026773
     atom   71 type  2   force =    -0.00000029    0.00256161   -0.00037509
     atom   72 type  2   force =    -0.01222239   -0.00705564    0.01026699
     atom   73 type  2   force =    -0.00221903   -0.00127867   -0.00037315
     atom   74 type  2   force =    -0.00000095   -0.00145631    0.00007077
     atom   75 type  2   force =    -0.00000041   -0.01274317   -0.00285220
     atom   76 type  2   force =    -0.00020067   -0.00011509   -0.00040207
     atom   77 type  2   force =    -0.00059798   -0.00034431   -0.00023585
     atom   78 type  2   force =    -0.00126182    0.00072810    0.00007147
     atom   79 type  2   force =    -0.01103726    0.00636628   -0.00284633
     atom   80 type  2   force =    -0.00114148    0.00026880    0.00014217
     atom   81 type  2   force =    -0.00131451   -0.00053117    0.00008787
     atom   82 type  2   force =    -0.00033953   -0.00112315    0.00014245
     atom   83 type  2   force =    -0.00111888   -0.00087100    0.00008848
     atom   84 type  2   force =     0.00020005   -0.00011456   -0.00040242
     atom   85 type  2   force =     0.00059780   -0.00034427   -0.00023486
     atom   86 type  2   force =    -0.00000011    0.00022822   -0.00040418
     atom   87 type  2   force =     0.00000032    0.00069095   -0.00023705
     atom   88 type  2   force =     0.00114111    0.00026870    0.00014254
     atom   89 type  2   force =     0.00131566   -0.00053153    0.00008638
     atom   90 type  2   force =     0.00000062   -0.00000054   -0.00006669
     atom   91 type  2   force =     0.00000042   -0.00000039   -0.00028391
     atom   92 type  2   force =     0.00080207    0.00085710    0.00013921
     atom   93 type  2   force =     0.00019632    0.00140646    0.00008844
     atom   94 type  2   force =     0.00126169    0.00072884    0.00007071
     atom   95 type  2   force =     0.01103685    0.00636535   -0.00284766
     atom   96 type  1   force =     0.00000126   -0.00000735   -0.02726841
     The non-local contrib.  to forces
     atom    1 type  1   force =    -0.00000506    0.06704717   -0.07808723
     atom    2 type  1   force =     0.00000631    0.14157203    0.10800979
     atom    3 type  1   force =     0.00424573    0.02227464    0.00104063
     atom    4 type  1   force =    -0.01464587    0.01955530   -0.00587693
     atom    5 type  1   force =     0.02142253   -0.00749068    0.00102246
     atom    6 type  1   force =     0.00966247   -0.02248134   -0.00582581
     atom    7 type  1   force =     0.05807815   -0.03352047   -0.07800909
     atom    8 type  1   force =     0.12257919   -0.07079947    0.10795683
     atom    9 type  1   force =     0.09603643    0.05541916   -0.05103364
     atom   10 type  1   force =     0.01763701    0.01015947   -0.00101948
     atom   11 type  1   force =    -0.00423455    0.02227742    0.00103953
     atom   12 type  1   force =     0.01464665    0.01955908   -0.00587258
     atom   13 type  1   force =     0.00000209   -0.00001073    0.00077946
     atom   14 type  1   force =     0.00000432   -0.00001553   -0.00439942
     atom   15 type  1   force =     0.01718141   -0.01483834    0.00102123
     atom   16 type  1   force =     0.02427596    0.00286802   -0.00583001
     atom   17 type  1   force =    -0.00000132   -0.01808653    0.02668853
     atom   18 type  1   force =     0.00000183    0.00369213    0.00178858
     atom   19 type  1   force =    -0.01561927    0.00902204    0.02669653
     atom   20 type  1   force =     0.00322979   -0.00188802    0.00180550
     atom   21 type  1   force =    -0.02141567   -0.00749324    0.00102478
     atom   22 type  1   force =    -0.00965583   -0.02248835   -0.00584080
     atom   23 type  1   force =    -0.01717171   -0.01483808    0.00102432
     atom   24 type  1   force =    -0.02427392    0.00287650   -0.00585073
     atom   25 type  1   force =    -0.09604449    0.05543148   -0.05105156
     atom   26 type  1   force =    -0.01762853    0.01015886   -0.00102765
     atom   27 type  1   force =     0.01563051    0.00902958    0.02669422
     atom   28 type  1   force =    -0.00322078   -0.00188423    0.00180394
     atom   29 type  1   force =     0.00000659   -0.11084969   -0.05098524
     atom   30 type  1   force =     0.00000479   -0.02041043   -0.00101536
     atom   31 type  1   force =    -0.05807906   -0.03351450   -0.07802478
     atom   32 type  1   force =    -0.12258153   -0.07080852    0.10797269
     atom   33 type  2   force =     0.00000462    0.00000028    0.23544234
     atom   34 type  2   force =     0.01244122   -0.02027876    0.23320581
     atom   35 type  2   force =     0.03562384   -0.01686639    0.25436037
     atom   36 type  2   force =     0.01291043    0.00745393    0.25528199
     atom   37 type  2   force =     0.00556797    0.00321129    0.25680258
     atom   38 type  2   force =    -0.01137450    0.02093713    0.23319248
     atom   39 type  2   force =     0.00317225    0.03929805    0.25435085
     atom   40 type  2   force =    -0.02380473   -0.00060725    0.23320256
     atom   41 type  2   force =    -0.03244660   -0.02240188    0.25435291
     atom   42 type  2   force =    -0.01243435   -0.02028937    0.23320065
     atom   43 type  2   force =    -0.03561977   -0.01687231    0.25435663
     atom   44 type  2   force =    -0.00000005   -0.00051631    0.24832590
     atom   45 type  2   force =    -0.00000282   -0.00490226    0.25124671
     atom   46 type  2   force =    -0.00045542    0.00025473    0.24832781
     atom   47 type  2   force =    -0.00423826    0.00244383    0.25125327
     atom   48 type  2   force =    -0.00000039   -0.01489496    0.25527580
     atom   49 type  2   force =    -0.00000554   -0.00641812    0.25680492
     atom   50 type  2   force =    -0.00815088   -0.00468078    0.25187738
     atom   51 type  2   force =    -0.04726197   -0.02725531    0.27516865
     atom   52 type  2   force =    -0.01291567    0.00745694    0.25528035
     atom   53 type  2   force =    -0.00556964    0.00320641    0.25680030
     atom   54 type  2   force =     0.00044760    0.00025132    0.24832523
     atom   55 type  2   force =     0.00423210    0.00244383    0.25124892
     atom   56 type  2   force =     0.02379363   -0.00061375    0.23320904
     atom   57 type  2   force =     0.03244155   -0.02240399    0.25435706
     atom   58 type  2   force =     0.00813614   -0.00467057    0.25187994
     atom   59 type  2   force =     0.04725520   -0.02725562    0.27517174
     atom   60 type  2   force =     0.00000155    0.00942193    0.25187891
     atom   61 type  2   force =    -0.00000362    0.05456456    0.27516438
     atom   62 type  2   force =     0.01137660    0.02093052    0.23319203
     atom   63 type  2   force =    -0.00316786    0.03929399    0.25435206
     atom   64 type  2   force =     0.19533724   -0.11275471   -0.05018139
     atom   65 type  2   force =     0.01917142   -0.01106666   -0.24858390
     atom   66 type  2   force =    -0.01540250   -0.00752481   -0.25910407
     atom   67 type  2   force =     0.00082833   -0.00899154   -0.24523375
     atom   68 type  2   force =    -0.01419637   -0.00957890   -0.25911055
     atom   69 type  2   force =    -0.00737178    0.00522424   -0.24522933
     atom   70 type  2   force =    -0.00001077    0.22554600   -0.05018433
     atom   71 type  2   force =    -0.00000390    0.02217563   -0.24857234
     atom   72 type  2   force =    -0.19534403   -0.11274828   -0.05017568
     atom   73 type  2   force =    -0.01918511   -0.01107144   -0.24857980
     atom   74 type  2   force =    -0.00000162   -0.01259896   -0.25333863
     atom   75 type  2   force =     0.00000024   -0.07326695   -0.27230336
     atom   76 type  2   force =    -0.01035947   -0.00596212   -0.26375873
     atom   77 type  2   force =    -0.00529331   -0.00303219   -0.25349850
     atom   78 type  2   force =    -0.01089610    0.00630087   -0.25334145
     atom   79 type  2   force =    -0.06344329    0.03664389   -0.27230621
     atom   80 type  2   force =     0.00120179    0.01709732   -0.25911080
     atom   81 type  2   force =    -0.00819203    0.00377780   -0.24523515
     atom   82 type  2   force =     0.01539702   -0.00751700   -0.25910309
     atom   83 type  2   force =    -0.00082757   -0.00897938   -0.24522998
     atom   84 type  2   force =     0.01036237   -0.00596237   -0.26375831
     atom   85 type  2   force =     0.00529052   -0.00303233   -0.25349530
     atom   86 type  2   force =     0.00000061    0.01197278   -0.26375803
     atom   87 type  2   force =    -0.00000161    0.00611595   -0.25349597
     atom   88 type  2   force =    -0.00119582    0.01709329   -0.25911203
     atom   89 type  2   force =     0.00819872    0.00377937   -0.24524008
     atom   90 type  2   force =     0.00000002   -0.00000829   -0.24954686
     atom   91 type  2   force =    -0.00000449   -0.00000971   -0.23767555
     atom   92 type  2   force =     0.01418729   -0.00957200   -0.25910902
     atom   93 type  2   force =     0.00736524    0.00522295   -0.24523062
     atom   94 type  2   force =     0.01089606    0.00630236   -0.25334357
     atom   95 type  2   force =     0.06344994    0.03664701   -0.27230665
     atom   96 type  1   force =    -0.00000236    0.00001168   -0.27521667
     The ionic contribution  to forces
     atom    1 type  1   force =     0.00039735   -0.66310136   -0.67781640
     atom    2 type  1   force =    -0.00004153   -6.65366164   -3.14572661
     atom    3 type  1   force =    -0.17010432   -0.48503005   -0.36766023
     atom    4 type  1   force =     0.44932568   -0.41708737    0.30749052
     atom    5 type  1   force =    -0.50403576    0.09407657   -0.36592690
     atom    6 type  1   force =    -0.13774781    0.59626002    0.30582181
     atom    7 type  1   force =    -0.57633903    0.33285085   -0.68463191
     atom    8 type  1   force =    -5.76220271    3.32799862   -3.14163328
     atom    9 type  1   force =    -1.98899381   -1.14525319    0.46797700
     atom   10 type  1   force =    -0.96489278   -0.55548524    0.15500423
     atom   11 type  1   force =     0.17038120   -0.48507564   -0.36746386
     atom   12 type  1   force =    -0.44875059   -0.41710607    0.30749977
     atom   13 type  1   force =     0.00027035   -0.00046167   -0.83844920
     atom   14 type  1   force =     0.00031313   -0.00067900    0.54690324
     atom   15 type  1   force =    -0.33355326    0.39034018   -0.36558814
     atom   16 type  1   force =    -0.58532019   -0.17883099    0.30649533
     atom   17 type  1   force =    -0.00002589    0.61706922   -0.67986477
     atom   18 type  1   force =    -0.00026100   -0.07153814    0.26241081
     atom   19 type  1   force =     0.53155228   -0.30817685   -0.68167911
     atom   20 type  1   force =    -0.06397364    0.03674573    0.26093562
     atom   21 type  1   force =     0.50410976    0.09409799   -0.36552092
     atom   22 type  1   force =     0.13753153    0.59634220    0.30659359
     atom   23 type  1   force =     0.33371733    0.39011517   -0.36541209
     atom   24 type  1   force =     0.58553151   -0.17953486    0.30730707
     atom   25 type  1   force =     1.98917411   -1.14621135    0.46972810
     atom   26 type  1   force =     0.96484300   -0.55593135    0.15599313
     atom   27 type  1   force =    -0.53240459   -0.30863222   -0.68141114
     atom   28 type  1   force =     0.06320852    0.03658380    0.26055966
     atom   29 type  1   force =    -0.00074478    2.29355658    0.46414159
     atom   30 type  1   force =    -0.00044982    1.11426336    0.15472601
     atom   31 type  1   force =     0.57598919    0.33216486   -0.68263030
     atom   32 type  1   force =     5.76221991    3.32805680   -3.14288824
     atom   33 type  2   force =     0.00022289    0.00026945  -14.69791241
     atom   34 type  2   force =     0.73315948   -1.21190961  -12.68697627
     atom   35 type  2   force =    -0.84508747    0.17546057  -14.64228040
     atom   36 type  2   force =    -0.24121248   -0.13962543  -13.76471058
     atom   37 type  2   force =    -0.11095250   -0.06589205  -15.25476444
     atom   38 type  2   force =    -0.68224872    1.23750738  -12.68409538
     atom   39 type  2   force =    -0.27228300   -0.81930565  -14.64388285
     atom   40 type  2   force =    -1.41394075   -0.02750379  -12.68451958
     atom   41 type  2   force =     0.57307375    0.64554213  -14.64375477
     atom   42 type  2   force =    -0.73273893   -1.21114758  -12.68670042
     atom   43 type  2   force =     0.84564967    0.17547816  -14.64254345
     atom   44 type  2   force =     0.00042795   -0.40413916  -13.35391187
     atom   45 type  2   force =     0.00043298   -0.04990221  -15.62317406
     atom   46 type  2   force =    -0.34858032    0.20108704  -13.35445095
     atom   47 type  2   force =    -0.04152227    0.02375317  -15.62321279
     atom   48 type  2   force =    -0.00022115    0.27829187  -13.76555225
     atom   49 type  2   force =     0.00014503    0.12835241  -15.25469547
     atom   50 type  2   force =    -0.15511575   -0.08918102  -13.96640825
     atom   51 type  2   force =     1.38557675    0.80129095  -15.29279057
     atom   52 type  2   force =     0.24121745   -0.13986765  -13.76499339
     atom   53 type  2   force =     0.11116550   -0.06584584  -15.25480106
     atom   54 type  2   force =     0.34916341    0.20089679  -13.35427326
     atom   55 type  2   force =     0.04215099    0.02362661  -15.62347391
     atom   56 type  2   force =     1.41525388   -0.02798669  -12.68534510
     atom   57 type  2   force =    -0.57334754    0.64478590  -14.64300043
     atom   58 type  2   force =     0.15493759   -0.08945618  -13.96645893
     atom   59 type  2   force =    -1.38634865    0.80130658  -15.29249050
     atom   60 type  2   force =    -0.00034527    0.17779424  -13.96625391
     atom   61 type  2   force =    -0.00036745   -1.60034234  -15.29260914
     atom   62 type  2   force =     0.68203059    1.23810988  -12.68464822
     atom   63 type  2   force =     0.27176112   -0.81965134  -14.64340094
     atom   64 type  2   force =    -5.81797118    3.36343111    9.25503652
     atom   65 type  2   force =     1.29777143   -0.74885736   11.59840999
     atom   66 type  2   force =     0.79879817   -0.27032884   14.58076770
     atom   67 type  2   force =     0.38724368    0.05392060   14.35849273
     atom   68 type  2   force =     0.16578053    0.82444704   14.58129644
     atom   69 type  2   force =     0.23974202    0.30736042   14.35836152
     atom   70 type  2   force =    -0.00121429   -6.71857565    9.25304258
     atom   71 type  2   force =     0.00013007    1.49775021   11.59937544
     atom   72 type  2   force =     5.81730469    3.36444240    9.25408496
     atom   73 type  2   force =    -1.29732633   -0.74877325   11.59932440
     atom   74 type  2   force =     0.00035741    0.19297102   14.50502038
     atom   75 type  2   force =     0.00039115    1.11010558   14.16024655
     atom   76 type  2   force =     0.05798898    0.03204252   14.45548855
     atom   77 type  2   force =     0.36100532    0.20595607   14.73850594
     atom   78 type  2   force =     0.17024221   -0.09865446   14.50461088
     atom   79 type  2   force =     0.95900518   -0.55399097   14.16064463
     atom   80 type  2   force =    -0.63211112   -0.55538231   14.58122863
     atom   81 type  2   force =    -0.14721449   -0.36058142   14.35791309
     atom   82 type  2   force =    -0.79882586   -0.26994620   14.58090956
     atom   83 type  2   force =    -0.38725266    0.05387257   14.35880425
     atom   84 type  2   force =    -0.05742471    0.03196319   14.45554297
     atom   85 type  2   force =    -0.36029004    0.20610730   14.73855570
     atom   86 type  2   force =     0.00022491   -0.06689384   14.45516773
     atom   87 type  2   force =     0.00049514   -0.41663605   14.73856491
     atom   88 type  2   force =     0.63239651   -0.55555926   14.58103607
     atom   89 type  2   force =     0.14678873   -0.36103412   14.35742031
     atom   90 type  2   force =    -0.00013007   -0.00027611   13.99736277
     atom   91 type  2   force =    -0.00013708   -0.00055750   14.60395034
     atom   92 type  2   force =    -0.16613751    0.82463243   14.58125463
     atom   93 type  2   force =    -0.24025302    0.30724618   14.35816510
     atom   94 type  2   force =    -0.16935407   -0.09855333   14.50444388
     atom   95 type  2   force =    -0.95996031   -0.55500971   14.16030649
     atom   96 type  1   force =    -0.00084350    0.00284016   13.57946553
     The local contribution  to forces
     atom    1 type  1   force =    -0.00038968    0.60268332    0.74901675
     atom    2 type  1   force =     0.00003614    6.53991211    3.05059131
     atom    3 type  1   force =     0.16535450    0.46530825    0.36694233
     atom    4 type  1   force =    -0.43895316    0.40229230   -0.30315176
     atom    5 type  1   force =     0.48456848   -0.08829696    0.36522463
     atom    6 type  1   force =     0.13007020   -0.57985913   -0.30153566
     atom    7 type  1   force =     0.52400130   -0.30263941    0.75575591
     atom    8 type  1   force =     5.66371884   -3.27110603    3.04655211
     atom    9 type  1   force =     1.90129649    1.09464997   -0.42149428
     atom   10 type  1   force =     0.95326414    0.54879611   -0.15343284
     atom   11 type  1   force =    -0.16564150    0.46534617    0.36674612
     atom   12 type  1   force =     0.43837860    0.40230700   -0.30316627
     atom   13 type  1   force =    -0.00027394    0.00047287    0.83824281
     atom   14 type  1   force =    -0.00031745    0.00069574   -0.54329447
     atom   15 type  1   force =     0.31883013   -0.37633638    0.36488551
     atom   16 type  1   force =     0.56730285    0.17728813   -0.30220664
     atom   17 type  1   force =     0.00002626   -0.59920376    0.65423824
     atom   18 type  1   force =     0.00025839    0.06892779   -0.26424665
     atom   19 type  1   force =    -0.51612686    0.29926593    0.65604627
     atom   20 type  1   force =     0.06167865   -0.03539462   -0.26278799
     atom   21 type  1   force =    -0.48464860   -0.08831501    0.36481528
     atom   22 type  1   force =    -0.12986036   -0.57993488   -0.30229370
     atom   23 type  1   force =    -0.31900552   -0.37611292    0.36470689
     atom   24 type  1   force =    -0.56751490    0.17798286   -0.30299863
     atom   25 type  1   force =    -1.90147176    1.09559616   -0.42322576
     atom   26 type  1   force =    -0.95322394    0.54924152   -0.15441633
     atom   27 type  1   force =     0.51696604    0.29971476    0.65577966
     atom   28 type  1   force =    -0.06092380   -0.03523583   -0.26241018
     atom   29 type  1   force =     0.00073806   -2.19233963   -0.41770931
     atom   30 type  1   force =     0.00044326   -1.10078748   -0.15315701
     atom   31 type  1   force =    -0.52365042   -0.30196201    0.75376885
     atom   32 type  1   force =    -5.66373234   -3.27115508    3.04778857
     atom   33 type  2   force =    -0.00022699   -0.00027011   14.46787299
     atom   34 type  2   force =    -0.74266678    1.22933831   12.45834314
     atom   35 type  2   force =     0.81144854   -0.16078614   14.39349807
     atom   36 type  2   force =     0.22969992    0.13297805   13.51646711
     atom   37 type  2   force =     0.10546686    0.06272705   15.00377565
     atom   38 type  2   force =     0.69262334   -1.25448038   12.45547408
     atom   39 type  2   force =     0.26820271    0.78282199   14.39510853
[...]
     atom   15 type  1   force =    -0.00000577    0.00000560    0.00000311
     atom   16 type  1   force =    -0.00000468    0.00001244   -0.00000485
     atom   17 type  1   force =    -0.00000004    0.00000210   -0.00001108
     atom   18 type  1   force =    -0.00000001    0.00000728    0.00000393
     atom   19 type  1   force =     0.00000200   -0.00000117   -0.00001096
     atom   20 type  1   force =     0.00000645   -0.00000378    0.00000403
     atom   21 type  1   force =     0.00000765    0.00000241    0.00000313
     atom   22 type  1   force =     0.00001296   -0.00000207   -0.00000495
     atom   23 type  1   force =     0.00000566    0.00000564    0.00000312
     atom   24 type  1   force =     0.00000463    0.00001240   -0.00000483
     atom   25 type  1   force =    -0.00000562    0.00000304   -0.00001300
     atom   26 type  1   force =     0.00000147   -0.00000094    0.00000339
     atom   27 type  1   force =    -0.00000201   -0.00000104   -0.00001097
     atom   28 type  1   force =    -0.00000643   -0.00000379    0.00000405
     atom   29 type  1   force =     0.00000009   -0.00000630   -0.00001305
     atom   30 type  1   force =     0.00000003    0.00000174    0.00000364
     atom   31 type  1   force =     0.00000678    0.00000391    0.00000610
     atom   32 type  1   force =     0.00000602    0.00000360   -0.00000244
     atom   33 type  2   force =     0.00000012   -0.00000001    0.00000953
     atom   34 type  2   force =     0.00000362   -0.00001021    0.00000354
     atom   35 type  2   force =    -0.00000757   -0.00000436    0.00000053
     atom   36 type  2   force =    -0.00000734   -0.00000427   -0.00000064
     atom   37 type  2   force =    -0.00001592   -0.00000905    0.00000149
     atom   38 type  2   force =    -0.00000688    0.00000715    0.00000378
     atom   39 type  2   force =    -0.00000739   -0.00000434    0.00000072
     atom   40 type  2   force =    -0.00000971    0.00000235    0.00000358
     atom   41 type  2   force =     0.00000029    0.00000842    0.00000055
     atom   42 type  2   force =    -0.00000345   -0.00001019    0.00000367
     atom   43 type  2   force =     0.00000761   -0.00000442    0.00000052
     atom   44 type  2   force =     0.00000002   -0.00000325   -0.00001526
     atom   45 type  2   force =    -0.00000007   -0.00001671    0.00001315
     atom   46 type  2   force =    -0.00000314    0.00000199   -0.00001494
     atom   47 type  2   force =    -0.00001465    0.00000859    0.00001289
     atom   48 type  2   force =    -0.00000003    0.00000874   -0.00000078
     atom   49 type  2   force =    -0.00000005    0.00001787    0.00000090
     atom   50 type  2   force =     0.00000555    0.00000285    0.00001048
     atom   51 type  2   force =    -0.00000051   -0.00000058   -0.00000618
     atom   52 type  2   force =     0.00000730   -0.00000429   -0.00000063
     atom   53 type  2   force =     0.00001588   -0.00000923    0.00000144
     atom   54 type  2   force =     0.00000311    0.00000202   -0.00001512
     atom   55 type  2   force =     0.00001458    0.00000856    0.00001300
     atom   56 type  2   force =     0.00000978    0.00000216    0.00000369
     atom   57 type  2   force =    -0.00000032    0.00000854    0.00000057
     atom   58 type  2   force =    -0.00000536    0.00000274    0.00001058
     atom   59 type  2   force =     0.00000044   -0.00000049   -0.00000621
     atom   60 type  2   force =     0.00000009   -0.00000695    0.00001024
     atom   61 type  2   force =     0.00000011    0.00000103   -0.00000624
     atom   62 type  2   force =     0.00000700    0.00000765    0.00000376
     atom   63 type  2   force =     0.00000748   -0.00000427    0.00000047
     atom   64 type  2   force =     0.00001318   -0.00000797   -0.00000083
     atom   65 type  2   force =    -0.00000048    0.00000019   -0.00000694
     atom   66 type  2   force =    -0.00000014   -0.00000039   -0.00000611
     atom   67 type  2   force =    -0.00001093   -0.00000815    0.00000283
     atom   68 type  2   force =    -0.00000036    0.00000007   -0.00000629
     atom   69 type  2   force =    -0.00001255   -0.00000542    0.00000289
     atom   70 type  2   force =     0.00000013    0.00001564   -0.00000098
     atom   71 type  2   force =     0.00000010   -0.00000059   -0.00000664
     atom   72 type  2   force =    -0.00001308   -0.00000794   -0.00000113
     atom   73 type  2   force =     0.00000056    0.00000002   -0.00000673
     atom   74 type  2   force =    -0.00000000   -0.00000498   -0.00000050
     atom   75 type  2   force =     0.00000004   -0.00001886    0.00000145
     atom   76 type  2   force =     0.00000534    0.00000333    0.00000590
     atom   77 type  2   force =    -0.00001837   -0.00001037   -0.00000500
     atom   78 type  2   force =    -0.00000436    0.00000263   -0.00000047
     atom   79 type  2   force =    -0.00001622    0.00000925    0.00000190
     atom   80 type  2   force =    -0.00000020    0.00000037   -0.00000630
     atom   81 type  2   force =    -0.00000164    0.00001334    0.00000279
     atom   82 type  2   force =     0.00000018   -0.00000046   -0.00000614
     atom   83 type  2   force =     0.00001100   -0.00000830    0.00000290
     atom   84 type  2   force =    -0.00000523    0.00000321    0.00000613
     atom   85 type  2   force =     0.00001843   -0.00001050   -0.00000466
     atom   86 type  2   force =    -0.00000005   -0.00000557    0.00000624
     atom   87 type  2   force =    -0.00000006    0.00002173   -0.00000488
     atom   88 type  2   force =     0.00000014    0.00000031   -0.00000635
     atom   89 type  2   force =     0.00000146    0.00001336    0.00000275
     atom   90 type  2   force =     0.00000004   -0.00000024   -0.00000611
     atom   91 type  2   force =     0.00000002   -0.00000012    0.00000571
     atom   92 type  2   force =     0.00000051    0.00000002   -0.00000621
     atom   93 type  2   force =     0.00001264   -0.00000544    0.00000294
     atom   94 type  2   force =     0.00000424    0.00000267   -0.00000033
     atom   95 type  2   force =     0.00001618    0.00000922    0.00000174
     atom   96 type  1   force =     0.00000007   -0.00000015   -0.00000591

     Total force =     0.003500     Total SCF correction =     0.000122


     Computing stress (Cartesian axis) and pressure



     -----------------------------------------------
     Non-local corr. energy    =      45.72760527 Ry
     -----------------------------------------------

          total   stress  (Ry/bohr**3)                   (kbar)     P=       -8.55
  -0.00005812  -0.00000000  -0.00000000           -8.55       -0.00       -0.00
  -0.00000000  -0.00005813   0.00000000           -0.00       -8.55        0.00
  -0.00000000   0.00000000  -0.00005808           -0.00        0.00       -8.54

     kinetic stress (kbar)  15065.29     -0.00     -0.00
                               -0.00  15065.29      0.00
                               -0.00      0.00  15076.43

     local   stress (kbar)  -7298.20     -0.02     -0.00
                               -0.02  -7298.27      0.01
                               -0.00      0.01   1094.10

     nonloc. stress (kbar)  -1185.04     -0.00      0.00
                               -0.00  -1185.04     -0.00
                                0.00     -0.00  -1190.88

     hartree stress (kbar)  11883.22      0.01      0.00
                                0.01  11883.25     -0.01
                                0.00     -0.01   8110.46

     exc-cor stress (kbar)   6915.00      0.00     -0.00
                                0.00   6915.01     -0.00
                               -0.00     -0.00   6913.88

     corecor stress (kbar) -11262.17     -0.00      0.00
                               -0.00 -11262.17     -0.00
                                0.00     -0.00 -11262.08

     ewald   stress (kbar) -14209.42      0.01      0.00
                                0.01 -14209.38     -0.01
                                0.00     -0.01 -18834.50

     hubbard stress (kbar)      0.00      0.00      0.00
                                0.00      0.00      0.00
                                0.00      0.00      0.00

     DFT-D   stress (kbar)      0.00      0.00      0.00
                                0.00      0.00      0.00
                                0.00      0.00      0.00

     XDM     stress (kbar)      0.00      0.00      0.00
                                0.00      0.00      0.00
                                0.00      0.00      0.00

     dft-nl  stress (kbar)     82.77     -0.00      0.00
                               -0.00     82.77      0.00
                                0.00      0.00     84.05

     TS-vdW  stress (kbar)      0.00      0.00      0.00
                                0.00      0.00      0.00
                                0.00      0.00      0.00

     MDB     stress (kbar)      0.00      0.00      0.00
                                0.00      0.00      0.00
                                0.00      0.00      0.00

     3D-RISM stress (kbar)      0.00      0.00      0.00
                                0.00      0.00      0.00
                                0.00      0.00      0.00

     Energy error            =      6.8E-05 Ry
     Gradient error          =      9.0E-04 Ry/Bohr

     bfgs converged in  26 scf cycles and  25 bfgs steps
     (criteria: energy <  1.0E-04 Ry, force <  1.0E-03 Ry/Bohr)

     End of BFGS Geometry Optimization

     Final energy             =  -65089.8946053304 Ry

     File ./PbI2.bfgs deleted, as requested
Begin final coordinates

ATOMIC_POSITIONS (angstrom)
Pb            2.3554264576        4.2178432626       14.5775544552
Pb            2.3553670228        4.3179849558        7.6122390341
Pb            0.0091231665        8.2138916631       14.7736057454
Pb           -0.0466452372        8.2003717202        7.3422848403
Pb           -2.3029577490       12.2185078193       14.7736474138
Pb           -2.3425207444       12.1770767683        7.3422497805
Pb           -4.5904642831       16.2483395598       14.5773613511
Pb           -4.5037295967       16.1984373330        7.6123385429
Pb            7.2262899955        4.1716853003       14.7068049530
Pb            7.0941532306        4.0954562857        7.4240144530
Pb            4.7016555591        8.2138955758       14.7736088992
Pb            4.7573914081        8.2003688494        7.3422920650
Pb            2.3553915776       12.2382609963       14.7158384839
Pb            2.3553710493       12.2383135198        7.3145803145
Pb            0.0433481317       16.2823977629       14.7737255168
Pb            0.0594607920       16.3374215253        7.3423236801
Pb           11.7766929341        4.0405289239       14.8474124421
Pb           11.7766553397        4.0987359810        7.4125575608
Pb            9.3878329764        8.1780247656       14.8473016455
Pb            9.4382310981        8.1490435723        7.4124766197
Pb            7.0137312625       12.2185172574       14.7736854503
Pb            7.0532990941       12.1770775491        7.3422937756
Pb            4.6674428091       16.2823901215       14.7737587600
Pb            4.6513020458       16.3374470633        7.3423612308
Pb           16.3271587058        4.1716379402       14.7069488666
Pb           16.4591508557        4.0954728785        7.4240556834
Pb           14.1655217550        8.1780076344       14.8473189319
Pb           14.1150891867        8.1490505818        7.4124676952
Pb           11.7766824623       12.0529351102       14.7064105731
Pb           11.7766646171       12.2058632353        7.4239664006
Pb            9.3012879329       16.2483173904       14.5774598060
Pb            9.2144949256       16.1984574472        7.6123277426
I             2.3553645996        1.3595748099       12.8982921298
I             0.0428724316        5.3966259131        5.5324570760
I            -0.0217935914        5.4354770423       12.8736342810
I            -2.3609214201        9.5153835912        5.4774826164
I            -2.3604648067        9.5156568104       12.8958634545
I            -4.7258088500       13.6564511832        5.5324195723
I            -4.7245663653       13.5808518570       12.8733597663
I             7.0079644226        1.3436163939        5.5324675721
I             7.0739280566        1.3802014777       12.8735613622
I             4.6678458926        5.3966280267        5.5324361628
I             4.7326008439        5.4355031701       12.8735789739
I             2.3553711228        9.5064309795        5.4789252954
I             2.3553745976        9.5103019452       12.8564949417
I            -0.0104704334       13.6042888558        5.4788528538
I            -0.0071474407       13.6023716945       12.8565871964
I            11.7766626219        1.3661411418        5.4775857426
I            11.7766719529        1.3655868776       12.8959456783
I             9.4218326042        5.4394135175        5.5219836815
I             9.4050876720        5.4296338542       12.8804262290
I             7.0716593803        9.5153953475        5.4774999514
I             7.0712067374        9.5156767780       12.8958719814
I             4.7212402317       13.6043041134        5.4789179350
I             4.7179170720       13.6023834447       12.8566026253
I            16.5453630326        1.3436494683        5.5324974134
I            16.4794541459        1.3801768131       12.8736741247
I            14.1314586827        5.4394124972        5.5219882967
I            14.1483943709        5.4295576688       12.8805070343
I            11.7766445370        9.5181450859        5.5219458562
I            11.7766750740        9.5369507121       12.8801970620
I             9.4365759776       13.6564694143        5.5324283987
I             9.4353310465       13.5808510786       12.8734131105
I             0.1047186688        2.6588133997        2.0466220930
I             0.0051516214        2.7164743023        9.2977365711
I            -2.3573443376        6.7917984043        1.9138767373
I            -2.3415826115        6.8118158996        9.2796283966
I            -4.7178974101       10.8801928622        1.9137596418
I            -4.6926006834       10.8840083228        9.2795454234
I            -7.0658346299       15.0779743323        2.0460709773
I            -7.0659042548       14.9640156711        9.2976890819
I             4.6063024041        2.6588863363        2.0464516441
I             4.7055777246        2.7164580580        9.2977180612
I             2.3553746657        6.7858868809        1.8713286965
I             2.3553676046        6.8384660620        9.3466611807
I             0.0188091183       10.8892635025        1.8981425312
I            -0.0072256987       10.8742856597        9.2386641959
I            -2.3666096372       14.9645469852        1.8713165561
I            -2.3209332849       14.9381531430        9.3467039245
I             9.4162179214        2.7248533048        1.9139132039
I             9.4255824897        2.7010605819        9.2796380027
I             7.0681117493        6.7917804378        1.9138387263
I             7.0523232720        6.8117753976        9.2796121141
I             4.6919543121       10.8892516975        1.8981665416
I             4.7179636208       10.8742780091        9.2386666776
I             2.3553733200       14.9362412200        1.8982434235
I             2.3553640185       14.9663790957        9.2387274057
I            14.1371075104        2.7248407586        1.9139521006
I            14.1277014928        2.7010844898        9.2796829403
I            11.7766553739        6.7989965067        1.9141099281
I            11.7766587231        6.7990108317        9.3106290212
I             9.4286644238       10.8802010667        1.9137594640
I             9.4033848788       10.8839939876        9.2795746554
I             7.0773617838       14.9645493447        1.8713800324
I             7.0317173196       14.9381826870        9.3467377937
Pb            2.3555841021        1.3588340552        3.6106565424
End final coordinates



     Writing all to output data dir ./PbI2.save/
 
     init_run     :     14.69s CPU     15.57s WALL (       1 calls)
     electrons    :  58891.79s CPU  60040.98s WALL (      26 calls)
     update_pot   :     48.99s CPU     50.66s WALL (      25 calls)
     forces       :    190.59s CPU    198.08s WALL (      26 calls)
     stress       :   2896.00s CPU   2928.20s WALL (      26 calls)

     Called by init_run:
     wfcinit      :      9.97s CPU     10.33s WALL (       1 calls)
     wfcinit:atom :      0.03s CPU      0.06s WALL (       1 calls)
     wfcinit:wfcr :      9.27s CPU      9.44s WALL (       1 calls)
     potinit      :      1.32s CPU      1.55s WALL (       1 calls)
     hinit0       :      1.02s CPU      1.12s WALL (       1 calls)

     Called by electrons:
     c_bands      :  57454.69s CPU  58517.94s WALL (     310 calls)
     sum_band     :    989.59s CPU   1036.58s WALL (     310 calls)
     v_of_rho     :    232.75s CPU    236.05s WALL (     316 calls)
     v_h          :      2.80s CPU      2.88s WALL (     316 calls)
     v_xc         :    267.56s CPU    271.27s WALL (     368 calls)
     newd         :    103.60s CPU    134.94s WALL (     316 calls)
     PAW_pot      :     96.03s CPU     98.37s WALL (     341 calls)
     mix_rho      :      9.06s CPU      9.34s WALL (     310 calls)
     vdW_kernel   :      0.24s CPU      0.25s WALL (       1 calls)

     Called by c_bands:
     init_us_2    :     26.46s CPU     27.07s WALL (     646 calls)
     init_us_2:cp :     26.46s CPU     27.06s WALL (     646 calls)
     cegterg      :  57332.52s CPU  58222.71s WALL (     310 calls)

     Called by sum_band:
     sum_band:wei :      0.08s CPU      0.09s WALL (     310 calls)
     sum_band:loo :    872.41s CPU    880.27s WALL (     310 calls)
     sum_band:buf :      0.00s CPU      0.00s WALL (     310 calls)
     sum_band:ini :     21.70s CPU     22.09s WALL (     310 calls)
     sum_band:cal :    402.41s CPU    406.21s WALL (     335 calls)
     sum_band:bec :      5.96s CPU      6.06s WALL (     335 calls)
     addusdens    :    100.40s CPU    138.91s WALL (     310 calls)
     addusd:skk   :      9.07s CPU      9.28s WALL (     620 calls)
     addusd:dgemm :     53.36s CPU     90.99s WALL (     620 calls)
     addusd:qvan2 :     35.77s CPU     36.15s WALL (     620 calls)

     Called by *egterg:
     cdiaghg      :  46341.93s CPU  46723.55s WALL (    4585 calls)
     cegterg:over :   2214.70s CPU   2283.69s WALL (    4320 calls)
     cegterg:upda :   1339.48s CPU   1364.48s WALL (    4320 calls)
     cegterg:last :    543.47s CPU    547.81s WALL (     315 calls)
     h_psi        :   5188.42s CPU   5256.61s WALL (    4631 calls)
     s_psi        :   1069.25s CPU   1078.18s WALL (    4631 calls)
     g_psi        :      5.29s CPU      5.36s WALL (    4320 calls)

     Called by h_psi:
     h_psi:calbec :   1188.45s CPU   1198.73s WALL (    4631 calls)
     vloc_psi     :   2902.98s CPU   2929.67s WALL (    4631 calls)
     add_vuspsi   :   1070.15s CPU   1079.56s WALL (    4631 calls)

     General routines
     calbec       :   1749.53s CPU   1765.03s WALL (    5096 calls)
     fft          :    191.16s CPU    193.42s WALL (   24295 calls)
     ffts         :      5.50s CPU      5.61s WALL (     626 calls)
     fftw         :   3198.59s CPU   3226.94s WALL ( 1923470 calls)
     interpolate  :      5.84s CPU      5.95s WALL (     316 calls)
 
     Parallel routines

     PAW routines
     PAW_pot      :     96.03s CPU     98.37s WALL (     341 calls)
 
     PWSCF        :     17h15m CPU     17h35m WALL

 
   This run was terminated on:   3:25: 6   3Mar2024            

=------------------------------------------------------------------------------=
   JOB DONE.
=------------------------------------------------------------------------------=
