
     Program PWSCF v.7.1 starts on 28Mar2024 at  6:34:17 

     This program is part of the open-source Quantum ESPRESSO suite
     for quantum simulation of materials; please cite
         "P. Giannozzi et al., J. Phys.:Condens. Matter 21 395502 (2009);
         "P. Giannozzi et al., J. Phys.:Condens. Matter 29 465901 (2017);
         "P. Giannozzi et al., J. Chem. Phys. 152 154105 (2020);
          URL http://www.quantum-espresso.org", 
     in publications or presentations arising from this work. More details at
     http://www.quantum-espresso.org/quote

     Parallel version (MPI & OpenMP), running on      20 processor cores
     Number of MPI processes:                20
     Threads/MPI process:                     1

     MPI processes distributed on     1 nodes
     1957255 MiB available memory on the printing compute node when the environment starts
 
     Reading input from espresso.pwi
Warning: card &CELL ignored
Warning: card    CELL_DYNAMICS    = 'BFGS' ignored
Warning: card / ignored

     Current dimensions of program PWSCF are:
     Max number of different atomic species (ntypx) = 10
     Max number of k-points (npk) =  40000
     Max angular momentum in pseudopotentials (lmaxx) =  4
     file Pb.pbe-dn-kjpaw_psl.1.0.0.UPF: wavefunction(s)  6S 6P 5D renormalized
     file I.pbe-dn-kjpaw_psl.1.0.0.UPF: wavefunction(s)  5S 5P renormalized

     **************************************************************************
     Initializing libbeef V0.1.2 with the BEEF-vdW functional.
     Citation: Wellendorff et al., PRB 85, 235149 (2012).
     **************************************************************************


     IMPORTANT: XC functional enforced from input :
     Exchange-correlation= BEEF-VDW
                           (   1   4  43  14   2   0   0)
     Any further DFT definition will be discarded
     Please, verify this is what you really want

 
     R & G space division:  proc/nbgrp/npool/nimage =      20
     Subspace diagonalization in iterative solution of the eigenvalue problem:
     a serial algorithm will be used

 
     Parallelization info
     --------------------
     sticks:   dense  smooth     PW     G-vecs:    dense   smooth      PW
     Min         381     306     80                42326    30292    4074
     Max         383     307     81                42331    30298    4079
     Sum        7639    6121   1615               846533   605897   81527
 
     Using Slab Decomposition
 


     bravais-lattice index     =            4
     lattice parameter (alat)  =      17.8060  a.u.
     unit-cell volume          =    7656.2263 (a.u.)^3
     number of atoms/cell      =           23
     number of atomic types    =            2
     number of electrons       =       372.00
     number of Kohn-Sham states=          223
     kinetic-energy cutoff     =      70.0000  Ry
     charge density cutoff     =     350.0000  Ry
     scf convergence threshold =      1.0E-07
     mixing beta               =       0.7000
     number of iterations used =            8  plain     mixing
     Exchange-correlation= BEEF-VDW
                           (   1   4  43  14   2   0   0)

     celldm(1)=  17.806016  celldm(2)=   0.000000  celldm(3)=   1.565971
     celldm(4)=   0.000000  celldm(5)=   0.000000  celldm(6)=   0.000000

     crystal axes: (cart. coord. in units of alat)
               a(1) = (   1.000000   0.000000   0.000000 )  
               a(2) = (  -0.500000   0.866025   0.000000 )  
               a(3) = (   0.000000   0.000000   1.565971 )  

     reciprocal axes: (cart. coord. in units 2 pi/alat)
               b(1) = (  1.000000  0.577350 -0.000000 )  
               b(2) = (  0.000000  1.154701  0.000000 )  
               b(3) = (  0.000000 -0.000000  0.638581 )  


     PseudoPot. # 1 for Pb read from file:
     /trace/group/acmegroup/atimmins/packages/espresso/pseudo/psl_1.0.0/pslibrary.1.0.0/pbe/PSEUDOPOTENTIALS/Pb.pbe-dn-kjpaw_psl.1.0.0.UPF
     MD5 check sum: 39ab5b8a6bbd56b7735ad9f188aac93a
     Pseudo is Projector augmented-wave + core cor, Zval = 14.0
     Generated using 'atomic' code by A. Dal Corso  v.7.1
     Shape of augmentation charge: PSQ
     Using radial grid of 1281 points,  6 beta functions with: 
                l(1) =   0
                l(2) =   0
                l(3) =   1
                l(4) =   1
                l(5) =   2
                l(6) =   2
     Q(r) pseudized with 0 coefficients 


     PseudoPot. # 2 for I  read from file:
     /trace/group/acmegroup/atimmins/packages/espresso/pseudo/psl_1.0.0/pslibrary.1.0.0/pbe/PSEUDOPOTENTIALS/I.pbe-dn-kjpaw_psl.1.0.0.UPF
     MD5 check sum: bfa8781bc1224d19af3f3980e3fab11e
     Pseudo is Projector augmented-wave + core cor, Zval = 17.0
     Generated using 'atomic' code by A. Dal Corso  v.7.1
     Shape of augmentation charge: PSQ
     Using radial grid of 1247 points,  6 beta functions with: 
                l(1) =   0
                l(2) =   0
                l(3) =   1
                l(4) =   1
                l(5) =   2
                l(6) =   2
     Q(r) pseudized with 0 coefficients 


     atomic species   valence    mass     pseudopotential
        Pb            14.00   207.20000     Pb( 1.00)
        I             17.00   126.90447     I ( 1.00)

     No symmetry found


                                    s                        frac. trans.

      isym =  1     identity                                     

 cryst.   s( 1) = (     1          0          0      )
                  (     0          1          0      )
                  (     0          0          1      )

 cart.    s( 1) = (  1.0000000  0.0000000  0.0000000 )
                  (  0.0000000  1.0000000  0.0000000 )
                  (  0.0000000  0.0000000  1.0000000 )


     point group C_1 (1)    
     there are  1 classes
     the character table:

       E    
A      1.00

     the symmetry operations in each class and the name of the first element:

     E        1
          identity                                               

   Cartesian axes

     site n.     atom                  positions (alat units)
         1           Pb  tau(   1) = (   0.2500068   0.4329836   0.7829793  )
         2           Pb  tau(   2) = (   0.0000153   0.8659852   1.5659567  )
         3           Pb  tau(   3) = (   0.0000051   0.8659943   0.7829710  )
         4           Pb  tau(   4) = (   0.7500170   0.4329726   1.5659715  )
         5           Pb  tau(   5) = (   0.7500068   0.4329816   0.7829858  )
         6           Pb  tau(   6) = (   0.5000153   0.8659833   1.5659633  )
         7           Pb  tau(   7) = (   0.5000051   0.8659923   0.7829776  )
         8           I   tau(   8) = (   0.2500107   0.1443099   0.5818649  )
         9           I   tau(   9) = (   0.2500209   0.1443009   1.3648506  )
        10           I   tau(  10) = (   0.0000091   0.5773207   0.5818567  )
        11           I   tau(  11) = (   0.0000193   0.5773116   1.3648424  )
        12           I   tau(  12) = (   0.7500107   0.1443080   0.5818714  )
        13           I   tau(  13) = (   0.7500209   0.1442990   1.3648571  )
        14           I   tau(  14) = (   0.5000091   0.5773187   0.5818632  )
        15           I   tau(  15) = (   0.5000193   0.5773097   1.3648489  )
        16           I   tau(  16) = (  -0.0000034   0.2886595   0.2011110  )
        17           I   tau(  17) = (   0.0000068   0.2886504   0.9840967  )
        18           I   tau(  18) = (  -0.2500051   0.7216702   0.2011027  )
        19           I   tau(  19) = (  -0.2499949   0.7216611   0.9840884  )
        20           I   tau(  20) = (   0.4999966   0.2886575   0.2011175  )
        21           I   tau(  21) = (   0.5000068   0.2886485   0.9841032  )
        22           I   tau(  22) = (   0.2499949   0.7216682   0.2011092  )
        23           I   tau(  23) = (   0.2500051   0.7216592   0.9840949  )

   Crystallographic axes

     site n.     atom                  positions (cryst. coord.)
         1           Pb  tau(   1) = (  0.4999900  0.4999663  0.4999959  )
         2           Pb  tau(   2) = (  0.4999921  0.9999536  0.9999906  )
         3           Pb  tau(   3) = (  0.4999871  0.9999640  0.4999906  )
         4           Pb  tau(   4) = (  0.9999938  0.4999537  1.0000001  )
         5           Pb  tau(   5) = (  0.9999888  0.4999641  0.5000001  )
         6           Pb  tau(   6) = (  0.9999910  0.9999514  0.9999948  )
         7           Pb  tau(   7) = (  0.9999860  0.9999618  0.4999948  )
         8           I   tau(   8) = (  0.3333281  0.1666348  0.3715680  )
         9           I   tau(   9) = (  0.3333331  0.1666243  0.8715680  )
        10           I   tau(  10) = (  0.3333253  0.6666325  0.3715628  )
        11           I   tau(  11) = (  0.3333303  0.6666220  0.8715628  )
        12           I   tau(  12) = (  0.8333270  0.1666326  0.3715722  )
        13           I   tau(  13) = (  0.8333320  0.1666221  0.8715722  )
        14           I   tau(  14) = (  0.8333242  0.6666303  0.3715669  )
        15           I   tau(  15) = (  0.8333292  0.6666198  0.8715669  )
        16           I   tau(  16) = (  0.1666542  0.3333152  0.1284257  )
        17           I   tau(  17) = (  0.1666592  0.3333048  0.6284257  )
        18           I   tau(  18) = (  0.1666514  0.8333129  0.1284204  )
        19           I   tau(  19) = (  0.1666564  0.8333025  0.6284204  )
        20           I   tau(  20) = (  0.6666531  0.3333130  0.1284299  )
        21           I   tau(  21) = (  0.6666581  0.3333026  0.6284299  )
        22           I   tau(  22) = (  0.6666503  0.8333107  0.1284246  )
        23           I   tau(  23) = (  0.6666553  0.8333003  0.6284246  )

     number of k points=     4  Gaussian smearing, width (Ry)=  0.0100
                       cart. coord. in units 2pi/alat
        k(    1) = (   0.0000000   0.0000000   0.0000000), wk =   0.5000000
        k(    2) = (   0.0000000  -0.5773503   0.0000000), wk =   0.5000000
        k(    3) = (   0.5000000  -0.2886751   0.0000000), wk =   0.5000000
        k(    4) = (  -0.5000000  -0.2886751   0.0000000), wk =   0.5000000

                       cryst. coord.
        k(    1) = (   0.0000000   0.0000000   0.0000000), wk =   0.5000000
        k(    2) = (   0.0000000  -0.5000000   0.0000000), wk =   0.5000000
        k(    3) = (   0.5000000  -0.5000000   0.0000000), wk =   0.5000000
        k(    4) = (  -0.5000000  -0.0000000   0.0000000), wk =   0.5000000

     Dense  grid:   846533 G-vectors     FFT dimensions: ( 108, 108, 180)

     Smooth grid:   605897 G-vectors     FFT dimensions: (  96,  96, 150)

     Dynamical RAM for                 wfc:      12.88 MB

     Dynamical RAM for     wfc (w. buffer):      64.41 MB

     Dynamical RAM for           str. fact:       1.29 MB

     Dynamical RAM for           local pot:       0.00 MB

     Dynamical RAM for          nlocal pot:      23.92 MB

     Dynamical RAM for                qrad:       3.00 MB

     Dynamical RAM for          rho,v,vnew:       4.34 MB

     Dynamical RAM for               rhoin:       1.45 MB

     Dynamical RAM for            rho*nmix:      10.33 MB

     Dynamical RAM for           G-vectors:       2.65 MB

     Dynamical RAM for          h,s,v(r/c):      36.42 MB

     Dynamical RAM for          <psi|beta>:       1.41 MB

     Dynamical RAM for                 psi:      51.53 MB

     Dynamical RAM for                hpsi:      51.53 MB

     Dynamical RAM for                spsi:      51.53 MB

     Dynamical RAM for      wfcinit/wfcrot:      26.91 MB

     Dynamical RAM for           addusdens:     130.48 MB

     Dynamical RAM for          addusforce:     150.24 MB

     Dynamical RAM for         addusstress:     129.83 MB

     Estimated static dynamical RAM per process >     107.01 MB

     Estimated max dynamical RAM per process >     309.77 MB

     Estimated total dynamical RAM >       6.05 GB

     Atomic positions and unit cell read from directory:
     ./PbI2.save/
     Atomic positions from file used, from input discarded
 

     Check: negative core charge=   -0.000002

     The initial density is read from file :
     ./PbI2.save/charge-density



     %%%%%%%%%%%%%%%%%%%%%%%%%%%%%%%%%%%%%%%%%%%%%%%%%%%%%%%%%%%%%%%%%%%%%%%%
     %                                                                      %
     % You are using vdW-DF, which was implemented by the Thonhauser group. %
     % Please cite the following two papers that made this development      %
     % possible and the two reviews that describe the various versions:     %
     %                                                                      %
     %   T. Thonhauser et al., PRL 115, 136402 (2015).                      %
     %   T. Thonhauser et al., PRB 76, 125112 (2007).                       %
     %   K. Berland et al., Rep. Prog. Phys. 78, 066501 (2015).             %
     %   D.C. Langreth et al., J. Phys.: Condens. Matter 21, 084203 (2009). %
     %                                                                      %
     % If you are calculating stress with vdW-DF, please also cite:         %
     %                                                                      %
     %   R. Sabatini et al., J. Phys.: Condens. Matter 24, 424209 (2012).   %
     %                                                                      %
     %%%%%%%%%%%%%%%%%%%%%%%%%%%%%%%%%%%%%%%%%%%%%%%%%%%%%%%%%%%%%%%%%%%%%%%%

     %%%%%%%%%%%%%%%%%%%%%%%%%%%%%%%%%%%%%%%%%%%%%%%%%%%%%%%%%%%%%%%%%%%%%%%%
     %                                                                      %
     %  vdW-DF NEWS:                                                        %
     %                                                                      %
     %  * vdW-DF3 is now available. DOI: 10.1021/acs.jctc.0c00471           %
     %    use with input_dft = 'vdW-DF3-opt1' or 'vdW-DF3-opt2'             %
     %                                                                      %
     %  * Unscreened and range-separated vdW-DF hybrid functionals          %
     %    DOI: 10.1063/1.4986522 and 10.1088/1361-648X/ac2ad2               %
     %    use with input_dft = 'vdW-DF-cx0' (etc) and 'vdW-DF-ahcx'         %
     %                                                                      %
     %%%%%%%%%%%%%%%%%%%%%%%%%%%%%%%%%%%%%%%%%%%%%%%%%%%%%%%%%%%%%%%%%%%%%%%%


     Carrying out vdW-DF run using the following parameters:
     Nqs    =  20  Npoints =  1024  r_max =  100.000
     q_mesh =  0.00001000  0.04494208  0.09755937  0.15916263
               0.23128650  0.31572767  0.41458969  0.53033537
               0.66584808  0.82450364  1.01025438  1.22772762
               1.48234092  1.78043706  2.12944203  2.53805004
               3.01644009  3.57652955  4.23227104  5.00000000


     -----------------------------------------------
     Non-local corr. energy    =      11.26047756 Ry
     -----------------------------------------------

     Starting wfcs from file
     Checking if some PAW data can be deallocated... 
       PAW data deallocated on   16 nodes for type:  1
       PAW data deallocated on    4 nodes for type:  2

     total cpu time spent up to now is        8.1 secs

     Self-consistent Calculation

     iteration #  1     ecut=    70.00 Ry     beta= 0.70
     Davidson diagonalization with overlap

---- Real-time Memory Report at c_bands before calling an iterative solver
           355 MiB given to the printing process from OS
             0 MiB allocation reported by mallinfo(arena+hblkhd)
       1953556 MiB available memory on the node where the printing process lives
------------------
     ethr =  1.00E-05,  avg # of iterations =  2.0

     Threshold (ethr) on eigenvalues was too large:
     Diagonalizing with lowered threshold

     Davidson diagonalization with overlap

---- Real-time Memory Report at c_bands before calling an iterative solver
           451 MiB given to the printing process from OS
             0 MiB allocation reported by mallinfo(arena+hblkhd)
       1953066 MiB available memory on the node where the printing process lives
------------------
     ethr =  6.32E-12,  avg # of iterations = 11.8


     -----------------------------------------------
     Non-local corr. energy    =      11.26047874 Ry
     -----------------------------------------------


     total cpu time spent up to now is       50.2 secs

     End of self-consistent calculation

          k = 0.0000 0.0000 0.0000 ( 75645 PWs)   bands (ev):

   -42.0253 -42.0252 -42.0252 -42.0250 -42.0250 -42.0249 -42.0248 -42.0248
   -42.0248 -42.0246 -42.0245 -42.0244 -42.0226 -42.0226 -42.0226 -42.0222
   -42.0222 -42.0221 -42.0217 -42.0216 -42.0216 -42.0212 -42.0212 -42.0212
   -42.0211 -42.0210 -42.0210 -42.0206 -42.0206 -42.0206 -41.9724 -41.9724
   -41.9722 -41.9722 -41.9692 -41.9692 -41.9690 -41.9690 -41.9682 -41.9680
   -40.8333 -40.8333 -40.8311 -40.8311 -40.8311 -40.8311 -40.8230 -40.8229
   -40.8229 -40.8229 -40.1511 -40.1511 -40.1510 -40.1510 -40.1509 -40.1509
   -40.1504 -40.1503 -40.1503 -40.1503 -40.1502 -40.1502 -40.0823 -40.0822
   -40.0822 -40.0822 -40.0821 -40.0821 -40.0812 -40.0811 -40.0811 -40.0811
   -40.0810 -40.0810 -40.0594 -40.0594 -40.0594 -40.0594 -40.0593 -40.0593
   -14.2206 -14.2206 -14.2043 -14.2007 -14.2007 -14.1921 -14.1862 -14.1862
   -14.1755 -14.1721 -14.1714 -14.1714 -14.1702 -14.1682 -14.1682 -14.1664
   -14.1664 -14.1592 -14.1592 -14.1560 -12.7621 -12.7410 -12.7410 -12.7245
   -12.7245 -12.7242 -12.7154 -12.7150 -12.7150 -12.6944 -12.6943 -12.6790
   -12.6734 -12.6707 -12.6706  -9.3180  -8.8810  -8.8571  -8.8570  -8.8042
    -8.7541  -8.7541  -8.7119  -7.8063  -7.6876  -7.1033  -6.9838  -6.9445
    -6.9444  -6.8945  -6.8945  -4.9345  -4.9104  -4.9104  -4.3978  -3.3967
    -3.3966  -3.0309  -0.2755  -0.2724  -0.2724   0.6960   0.6997   0.6997
     0.7159   0.7159   0.7294   1.3450   1.3653   1.3653   1.4281   1.4761
     1.4761   1.4853   1.4853   1.5009   1.6093   1.6187   1.6187   1.6486
     1.6591   1.6591   1.7053   1.7053   1.7721   2.3799   2.3799   2.4253
     2.4883   2.6103   2.6103   2.7108   2.7763   2.7763   2.7842   3.2849
     3.2849   3.3465   3.3571   3.4824   3.4825   3.5084   3.6879   3.6879
     3.7657   3.7658   4.7684   5.4959   5.4960   5.5358   5.5753   5.5753
     6.1936   6.2040   6.2040   6.3806   6.4682   6.4682   6.4763   7.0237
     7.0238   7.4111   7.4111   7.5000   7.8471   7.9198   7.9199   8.2216
     8.2216   8.2231   9.0281   9.6822   9.8540   9.8799   9.8799  10.1758
    10.1758  10.3962  10.5589  10.5589  10.5805  10.7627  10.8192

     occupation numbers 
     1.0000   1.0000   1.0000   1.0000   1.0000   1.0000   1.0000   1.0000
     1.0000   1.0000   1.0000   1.0000   1.0000   1.0000   1.0000   1.0000
     1.0000   1.0000   1.0000   1.0000   1.0000   1.0000   1.0000   1.0000
     1.0000   1.0000   1.0000   1.0000   1.0000   1.0000   1.0000   1.0000
     1.0000   1.0000   1.0000   1.0000   1.0000   1.0000   1.0000   1.0000
     1.0000   1.0000   1.0000   1.0000   1.0000   1.0000   1.0000   1.0000
     1.0000   1.0000   1.0000   1.0000   1.0000   1.0000   1.0000   1.0000
     1.0000   1.0000   1.0000   1.0000   1.0000   1.0000   1.0000   1.0000
     1.0000   1.0000   1.0000   1.0000   1.0000   1.0000   1.0000   1.0000
     1.0000   1.0000   1.0000   1.0000   1.0000   1.0000   1.0000   1.0000
     1.0000   1.0000   1.0000   1.0000   1.0000   1.0000   1.0000   1.0000
     1.0000   1.0000   1.0000   1.0000   1.0000   1.0000   1.0000   1.0000
     1.0000   1.0000   1.0000   1.0000   1.0000   1.0000   1.0000   1.0000
     1.0000   1.0000   1.0000   1.0000   1.0000   1.0000   1.0000   1.0000
     1.0000   1.0000   1.0000   1.0000   1.0000   1.0000   1.0000   1.0000
     1.0000   1.0000   1.0000   1.0000   1.0000   1.0000   1.0000   1.0000
     1.0000   1.0000   1.0000   1.0000   1.0000   1.0000   1.0000   1.0000
     1.0000   1.0000   1.0000   1.0000   1.0000   1.0000   1.0000   1.0000
     1.0000   1.0000   1.0000   1.0000   1.0000   1.0000   1.0000   1.0000
     1.0000   1.0000   1.0000   1.0000   1.0000   1.0000   1.0000   1.0000
     1.0000   1.0000   1.0000   1.0000   1.0000   1.0000   1.0000   1.0000
     1.0000   1.0000   1.0000   1.0000   1.0000   1.0000   1.0000   1.0000
     1.0000   1.0000   1.0000   1.0000   1.0000   1.0000   1.0000   1.0000
     1.0000   1.0000   0.0000   0.0000   0.0000   0.0000   0.0000   0.0000
     0.0000   0.0000   0.0000   0.0000   0.0000   0.0000   0.0000   0.0000
     0.0000   0.0000   0.0000   0.0000   0.0000   0.0000   0.0000   0.0000
     0.0000   0.0000   0.0000   0.0000   0.0000   0.0000   0.0000   0.0000
     0.0000   0.0000   0.0000   0.0000   0.0000   0.0000   0.0000

          k = 0.0000-0.5774 0.0000 ( 75730 PWs)   bands (ev):

   -42.0253 -42.0253 -42.0252 -42.0250 -42.0250 -42.0249 -42.0248 -42.0248
   -42.0248 -42.0246 -42.0245 -42.0245 -42.0226 -42.0226 -42.0226 -42.0222
   -42.0222 -42.0222 -42.0217 -42.0216 -42.0216 -42.0212 -42.0212 -42.0212
   -42.0211 -42.0210 -42.0210 -42.0206 -42.0206 -42.0206 -41.9724 -41.9724
   -41.9722 -41.9722 -41.9692 -41.9692 -41.9690 -41.9690 -41.9682 -41.9680
   -40.8333 -40.8333 -40.8311 -40.8311 -40.8311 -40.8311 -40.8230 -40.8229
   -40.8229 -40.8229 -40.1511 -40.1511 -40.1510 -40.1510 -40.1509 -40.1509
   -40.1504 -40.1503 -40.1503 -40.1503 -40.1502 -40.1502 -40.0822 -40.0822
   -40.0822 -40.0822 -40.0821 -40.0821 -40.0812 -40.0811 -40.0811 -40.0811
   -40.0810 -40.0810 -40.0594 -40.0594 -40.0594 -40.0594 -40.0593 -40.0593
   -14.2182 -14.2165 -14.2032 -14.2002 -14.1996 -14.1904 -14.1845 -14.1820
   -14.1804 -14.1772 -14.1717 -14.1706 -14.1697 -14.1695 -14.1684 -14.1651
   -14.1646 -14.1631 -14.1626 -14.1584 -12.7550 -12.7477 -12.7408 -12.7244
   -12.7203 -12.7203 -12.7189 -12.7188 -12.7151 -12.6949 -12.6899 -12.6844
   -12.6725 -12.6716 -12.6707  -9.1268  -9.1114  -8.8754  -8.8547  -8.7945
    -8.7682  -8.7358  -8.7029  -7.7512  -7.7128  -7.0791  -7.0715  -6.9721
    -6.9571  -6.8700  -6.8671  -4.9160  -4.8991  -4.6378  -4.6217  -3.3861
    -3.2545  -3.1293   0.0168   0.0430   0.1799   0.2137   0.3562   0.3592
     0.6706   0.6750   0.9341   0.9515   0.9969   1.0229   1.2370   1.3045
     1.3774   1.4170   1.4416   1.5963   1.6477   1.6868   1.7130   1.7347
     1.8054   2.0078   2.0347   2.0353   2.0854   2.0884   2.1415   2.2057
     2.3328   2.5153   2.5711   2.7358   2.7626   2.7818   3.0197   3.1010
     3.1454   3.2348   3.2845   3.4370   3.5865   3.5947   3.6200   3.6762
     3.7366   3.7640   5.3583   5.3760   5.9470   5.9561   5.9650   5.9785
     6.1018   6.1315   6.1648   6.1902   6.4183   6.4381   6.7507   7.1887
     7.2970   7.5369   7.5607   7.6082   7.6653   7.7212   7.9321   8.7509
     8.7724   9.2197   9.2387   9.2925   9.2989   9.8224   9.9511  10.0420
    10.0477  10.2228  10.2808  10.2824  10.4849  10.6070  10.6247

     occupation numbers 
     1.0000   1.0000   1.0000   1.0000   1.0000   1.0000   1.0000   1.0000
     1.0000   1.0000   1.0000   1.0000   1.0000   1.0000   1.0000   1.0000
     1.0000   1.0000   1.0000   1.0000   1.0000   1.0000   1.0000   1.0000
     1.0000   1.0000   1.0000   1.0000   1.0000   1.0000   1.0000   1.0000
     1.0000   1.0000   1.0000   1.0000   1.0000   1.0000   1.0000   1.0000
     1.0000   1.0000   1.0000   1.0000   1.0000   1.0000   1.0000   1.0000
     1.0000   1.0000   1.0000   1.0000   1.0000   1.0000   1.0000   1.0000
     1.0000   1.0000   1.0000   1.0000   1.0000   1.0000   1.0000   1.0000
     1.0000   1.0000   1.0000   1.0000   1.0000   1.0000   1.0000   1.0000
     1.0000   1.0000   1.0000   1.0000   1.0000   1.0000   1.0000   1.0000
     1.0000   1.0000   1.0000   1.0000   1.0000   1.0000   1.0000   1.0000
     1.0000   1.0000   1.0000   1.0000   1.0000   1.0000   1.0000   1.0000
     1.0000   1.0000   1.0000   1.0000   1.0000   1.0000   1.0000   1.0000
     1.0000   1.0000   1.0000   1.0000   1.0000   1.0000   1.0000   1.0000
     1.0000   1.0000   1.0000   1.0000   1.0000   1.0000   1.0000   1.0000
     1.0000   1.0000   1.0000   1.0000   1.0000   1.0000   1.0000   1.0000
     1.0000   1.0000   1.0000   1.0000   1.0000   1.0000   1.0000   1.0000
     1.0000   1.0000   1.0000   1.0000   1.0000   1.0000   1.0000   1.0000
     1.0000   1.0000   1.0000   1.0000   1.0000   1.0000   1.0000   1.0000
     1.0000   1.0000   1.0000   1.0000   1.0000   1.0000   1.0000   1.0000
     1.0000   1.0000   1.0000   1.0000   1.0000   1.0000   1.0000   1.0000
     1.0000   1.0000   1.0000   1.0000   1.0000   1.0000   1.0000   1.0000
     1.0000   1.0000   1.0000   1.0000   1.0000   1.0000   1.0000   1.0000
     1.0000   1.0000   0.0000   0.0000   0.0000   0.0000   0.0000   0.0000
     0.0000   0.0000   0.0000   0.0000   0.0000   0.0000   0.0000   0.0000
     0.0000   0.0000   0.0000   0.0000   0.0000   0.0000   0.0000   0.0000
     0.0000   0.0000   0.0000   0.0000   0.0000   0.0000   0.0000   0.0000
     0.0000   0.0000   0.0000   0.0000   0.0000   0.0000   0.0000

          k = 0.5000-0.2887 0.0000 ( 75730 PWs)   bands (ev):

   -42.0253 -42.0252 -42.0252 -42.0250 -42.0250 -42.0249 -42.0248 -42.0248
   -42.0248 -42.0245 -42.0245 -42.0245 -42.0226 -42.0226 -42.0226 -42.0222
   -42.0222 -42.0221 -42.0217 -42.0216 -42.0216 -42.0212 -42.0212 -42.0212
   -42.0211 -42.0210 -42.0210 -42.0206 -42.0206 -42.0206 -41.9724 -41.9724
   -41.9722 -41.9722 -41.9692 -41.9692 -41.9690 -41.9690 -41.9682 -41.9680
   -40.8333 -40.8333 -40.8311 -40.8311 -40.8311 -40.8311 -40.8230 -40.8229
   -40.8229 -40.8229 -40.1511 -40.1511 -40.1510 -40.1510 -40.1509 -40.1509
   -40.1504 -40.1503 -40.1503 -40.1503 -40.1502 -40.1502 -40.0823 -40.0822
   -40.0822 -40.0822 -40.0821 -40.0821 -40.0812 -40.0811 -40.0811 -40.0811
   -40.0810 -40.0810 -40.0594 -40.0594 -40.0594 -40.0594 -40.0593 -40.0593
   -14.2182 -14.2165 -14.2032 -14.2002 -14.1996 -14.1904 -14.1845 -14.1820
   -14.1804 -14.1772 -14.1717 -14.1706 -14.1697 -14.1695 -14.1684 -14.1651
   -14.1646 -14.1631 -14.1626 -14.1584 -12.7550 -12.7477 -12.7408 -12.7245
   -12.7203 -12.7203 -12.7189 -12.7188 -12.7151 -12.6949 -12.6899 -12.6844
   -12.6725 -12.6716 -12.6707  -9.1268  -9.1114  -8.8754  -8.8547  -8.7945
    -8.7682  -8.7358  -8.7029  -7.7512  -7.7128  -7.0791  -7.0714  -6.9721
    -6.9570  -6.8700  -6.8671  -4.9160  -4.8991  -4.6378  -4.6216  -3.3860
    -3.2545  -3.1294   0.0168   0.0430   0.1799   0.2137   0.3562   0.3592
     0.6706   0.6750   0.9341   0.9515   0.9970   1.0229   1.2370   1.3045
     1.3775   1.4170   1.4416   1.5963   1.6477   1.6868   1.7130   1.7347
     1.8054   2.0078   2.0347   2.0352   2.0854   2.0884   2.1414   2.2057
     2.3327   2.5153   2.5712   2.7358   2.7626   2.7818   3.0197   3.1010
     3.1454   3.2348   3.2845   3.4370   3.5865   3.5947   3.6201   3.6763
     3.7366   3.7639   5.3583   5.3760   5.9470   5.9561   5.9650   5.9785
     6.1018   6.1315   6.1648   6.1903   6.4183   6.4381   6.7507   7.1887
     7.2970   7.5368   7.5608   7.6082   7.6653   7.7213   7.9320   8.7509
     8.7724   9.2197   9.2387   9.2925   9.2990   9.8224   9.9511  10.0420
    10.0477  10.2228  10.2808  10.2824  10.4849  10.6070  10.6247

     occupation numbers 
     1.0000   1.0000   1.0000   1.0000   1.0000   1.0000   1.0000   1.0000
     1.0000   1.0000   1.0000   1.0000   1.0000   1.0000   1.0000   1.0000
     1.0000   1.0000   1.0000   1.0000   1.0000   1.0000   1.0000   1.0000
     1.0000   1.0000   1.0000   1.0000   1.0000   1.0000   1.0000   1.0000
     1.0000   1.0000   1.0000   1.0000   1.0000   1.0000   1.0000   1.0000
     1.0000   1.0000   1.0000   1.0000   1.0000   1.0000   1.0000   1.0000
     1.0000   1.0000   1.0000   1.0000   1.0000   1.0000   1.0000   1.0000
     1.0000   1.0000   1.0000   1.0000   1.0000   1.0000   1.0000   1.0000
     1.0000   1.0000   1.0000   1.0000   1.0000   1.0000   1.0000   1.0000
     1.0000   1.0000   1.0000   1.0000   1.0000   1.0000   1.0000   1.0000
     1.0000   1.0000   1.0000   1.0000   1.0000   1.0000   1.0000   1.0000
     1.0000   1.0000   1.0000   1.0000   1.0000   1.0000   1.0000   1.0000
     1.0000   1.0000   1.0000   1.0000   1.0000   1.0000   1.0000   1.0000
     1.0000   1.0000   1.0000   1.0000   1.0000   1.0000   1.0000   1.0000
     1.0000   1.0000   1.0000   1.0000   1.0000   1.0000   1.0000   1.0000
     1.0000   1.0000   1.0000   1.0000   1.0000   1.0000   1.0000   1.0000
     1.0000   1.0000   1.0000   1.0000   1.0000   1.0000   1.0000   1.0000
     1.0000   1.0000   1.0000   1.0000   1.0000   1.0000   1.0000   1.0000
     1.0000   1.0000   1.0000   1.0000   1.0000   1.0000   1.0000   1.0000
     1.0000   1.0000   1.0000   1.0000   1.0000   1.0000   1.0000   1.0000
     1.0000   1.0000   1.0000   1.0000   1.0000   1.0000   1.0000   1.0000
     1.0000   1.0000   1.0000   1.0000   1.0000   1.0000   1.0000   1.0000
     1.0000   1.0000   1.0000   1.0000   1.0000   1.0000   1.0000   1.0000
     1.0000   1.0000   0.0000   0.0000   0.0000   0.0000   0.0000   0.0000
     0.0000   0.0000   0.0000   0.0000   0.0000   0.0000   0.0000   0.0000
     0.0000   0.0000   0.0000   0.0000   0.0000   0.0000   0.0000   0.0000
     0.0000   0.0000   0.0000   0.0000   0.0000   0.0000   0.0000   0.0000
     0.0000   0.0000   0.0000   0.0000   0.0000   0.0000   0.0000

          k =-0.5000-0.2887 0.0000 ( 75730 PWs)   bands (ev):

   -42.0253 -42.0252 -42.0252 -42.0250 -42.0249 -42.0249 -42.0248 -42.0248
   -42.0248 -42.0246 -42.0245 -42.0245 -42.0226 -42.0226 -42.0226 -42.0222
   -42.0222 -42.0221 -42.0217 -42.0216 -42.0216 -42.0212 -42.0212 -42.0212
   -42.0211 -42.0210 -42.0210 -42.0206 -42.0206 -42.0206 -41.9724 -41.9724
   -41.9722 -41.9722 -41.9692 -41.9692 -41.9690 -41.9690 -41.9682 -41.9680
   -40.8333 -40.8333 -40.8311 -40.8311 -40.8311 -40.8311 -40.8230 -40.8229
   -40.8229 -40.8229 -40.1511 -40.1511 -40.1510 -40.1510 -40.1509 -40.1509
   -40.1504 -40.1503 -40.1503 -40.1503 -40.1502 -40.1502 -40.0822 -40.0822
   -40.0822 -40.0822 -40.0821 -40.0821 -40.0812 -40.0811 -40.0811 -40.0811
   -40.0810 -40.0810 -40.0594 -40.0594 -40.0594 -40.0594 -40.0593 -40.0593
   -14.2182 -14.2165 -14.2032 -14.2002 -14.1996 -14.1904 -14.1845 -14.1820
   -14.1804 -14.1772 -14.1717 -14.1706 -14.1698 -14.1695 -14.1684 -14.1651
   -14.1646 -14.1631 -14.1626 -14.1584 -12.7550 -12.7478 -12.7407 -12.7244
   -12.7203 -12.7203 -12.7189 -12.7189 -12.7150 -12.6948 -12.6900 -12.6844
   -12.6725 -12.6717 -12.6706  -9.1268  -9.1114  -8.8755  -8.8547  -8.7945
    -8.7682  -8.7358  -8.7029  -7.7512  -7.7128  -7.0791  -7.0714  -6.9721
    -6.9571  -6.8700  -6.8671  -4.9160  -4.8991  -4.6378  -4.6216  -3.3860
    -3.2545  -3.1293   0.0168   0.0430   0.1799   0.2137   0.3562   0.3592
     0.6706   0.6750   0.9341   0.9515   0.9969   1.0229   1.2370   1.3045
     1.3774   1.4170   1.4416   1.5963   1.6477   1.6868   1.7130   1.7347
     1.8054   2.0078   2.0347   2.0353   2.0854   2.0884   2.1415   2.2057
     2.3327   2.5153   2.5711   2.7358   2.7626   2.7818   3.0197   3.1010
     3.1454   3.2348   3.2845   3.4370   3.5865   3.5947   3.6200   3.6762
     3.7366   3.7640   5.3583   5.3760   5.9470   5.9560   5.9650   5.9785
     6.1018   6.1315   6.1648   6.1902   6.4183   6.4381   6.7507   7.1886
     7.2970   7.5369   7.5606   7.6082   7.6653   7.7213   7.9321   8.7509
     8.7724   9.2197   9.2387   9.2925   9.2989   9.8224   9.9511  10.0420
    10.0476  10.2228  10.2808  10.2824  10.4850  10.6069  10.6247

     occupation numbers 
     1.0000   1.0000   1.0000   1.0000   1.0000   1.0000   1.0000   1.0000
     1.0000   1.0000   1.0000   1.0000   1.0000   1.0000   1.0000   1.0000
     1.0000   1.0000   1.0000   1.0000   1.0000   1.0000   1.0000   1.0000
     1.0000   1.0000   1.0000   1.0000   1.0000   1.0000   1.0000   1.0000
     1.0000   1.0000   1.0000   1.0000   1.0000   1.0000   1.0000   1.0000
     1.0000   1.0000   1.0000   1.0000   1.0000   1.0000   1.0000   1.0000
     1.0000   1.0000   1.0000   1.0000   1.0000   1.0000   1.0000   1.0000
     1.0000   1.0000   1.0000   1.0000   1.0000   1.0000   1.0000   1.0000
     1.0000   1.0000   1.0000   1.0000   1.0000   1.0000   1.0000   1.0000
     1.0000   1.0000   1.0000   1.0000   1.0000   1.0000   1.0000   1.0000
     1.0000   1.0000   1.0000   1.0000   1.0000   1.0000   1.0000   1.0000
     1.0000   1.0000   1.0000   1.0000   1.0000   1.0000   1.0000   1.0000
     1.0000   1.0000   1.0000   1.0000   1.0000   1.0000   1.0000   1.0000
     1.0000   1.0000   1.0000   1.0000   1.0000   1.0000   1.0000   1.0000
     1.0000   1.0000   1.0000   1.0000   1.0000   1.0000   1.0000   1.0000
     1.0000   1.0000   1.0000   1.0000   1.0000   1.0000   1.0000   1.0000
     1.0000   1.0000   1.0000   1.0000   1.0000   1.0000   1.0000   1.0000
     1.0000   1.0000   1.0000   1.0000   1.0000   1.0000   1.0000   1.0000
     1.0000   1.0000   1.0000   1.0000   1.0000   1.0000   1.0000   1.0000
     1.0000   1.0000   1.0000   1.0000   1.0000   1.0000   1.0000   1.0000
     1.0000   1.0000   1.0000   1.0000   1.0000   1.0000   1.0000   1.0000
     1.0000   1.0000   1.0000   1.0000   1.0000   1.0000   1.0000   1.0000
     1.0000   1.0000   1.0000   1.0000   1.0000   1.0000   1.0000   1.0000
     1.0000   1.0000   0.0000   0.0000   0.0000   0.0000   0.0000   0.0000
     0.0000   0.0000   0.0000   0.0000   0.0000   0.0000   0.0000   0.0000
     0.0000   0.0000   0.0000   0.0000   0.0000   0.0000   0.0000   0.0000
     0.0000   0.0000   0.0000   0.0000   0.0000   0.0000   0.0000   0.0000
     0.0000   0.0000   0.0000   0.0000   0.0000   0.0000   0.0000

     the Fermi energy is     4.2819 ev

!    total energy              =  -15291.98617074 Ry
     total all-electron energy =   -520451.981223 Ry
     estimated scf accuracy    <       0.00000003 Ry
     smearing contrib. (-TS)   =      -0.00000001 Ry
     internal energy E=F+TS    =  -15291.98617073 Ry

     The total energy is F=E-TS. E is the sum of the following terms:
     one-electron contribution =   -3008.15571047 Ry
     hartree contribution      =    1664.74197724 Ry
     xc contribution           =   -1101.58170043 Ry
     ewald contribution        =   -2344.57990241 Ry
     one-center paw contrib.   =  -10502.41083466 Ry
      -> PAW hartree energy AE =     192.41920967 Ry
      -> PAW hartree energy PS =    -192.89798467 Ry
      -> PAW xc energy AE      =   -1596.91456672 Ry
      -> PAW xc energy PS      =      66.66972011 Ry
      -> total E_H with PAW    =    1664.26320224 Ry
      -> total E_XC with PAW   =   -2631.82654704 Ry

     convergence has been achieved in   1 iterations


     -----------------------------------------------
     Non-local corr. energy    =      11.26047874 Ry
     -----------------------------------------------


     Forces acting on atoms (cartesian axes, Ry/au):

     atom    1 type  1   force =    -0.00000036   -0.00000173    0.00000006
     atom    2 type  1   force =     0.00000034   -0.00000086   -0.00002066
     atom    3 type  1   force =    -0.00000483   -0.00000018    0.00000550
     atom    4 type  1   force =     0.00000538   -0.00000003   -0.00002087
     atom    5 type  1   force =    -0.00000070    0.00000490    0.00000317
     atom    6 type  1   force =    -0.00000321    0.00000740   -0.00001903
     atom    7 type  1   force =     0.00000496   -0.00000057    0.00000332
     atom    8 type  2   force =     0.00000034   -0.00004302   -0.00034991
     atom    9 type  2   force =     0.00000182   -0.00032577   -0.00047456
     atom   10 type  2   force =    -0.00003859    0.00002563   -0.00035324
     atom   11 type  2   force =    -0.00027854    0.00016069   -0.00046897
     atom   12 type  2   force =    -0.00000214   -0.00000065   -0.00016439
     atom   13 type  2   force =    -0.00000157   -0.00000000   -0.00017181
     atom   14 type  2   force =     0.00003897    0.00002487   -0.00035021
     atom   15 type  2   force =     0.00027668    0.00015698   -0.00047744
     atom   16 type  2   force =    -0.00027690   -0.00016223    0.00061233
     atom   17 type  2   force =    -0.00003641   -0.00001958    0.00022409
     atom   18 type  2   force =     0.00000544    0.00000315    0.00030707
     atom   19 type  2   force =     0.00000069    0.00000372    0.00003624
     atom   20 type  2   force =     0.00027936   -0.00016860    0.00061135
     atom   21 type  2   force =     0.00003513   -0.00002259    0.00022565
     atom   22 type  2   force =    -0.00000386    0.00031419    0.00061516
     atom   23 type  2   force =    -0.00000202    0.00004429    0.00022715
     The non-local contrib.  to forces
     atom    1 type  1   force =     0.00001634   -0.00000448   -0.00000082
     atom    2 type  1   force =     0.00001293   -0.00001859   -0.00003704
     atom    3 type  1   force =     0.00001900   -0.00001812   -0.00001552
     atom    4 type  1   force =    -0.00002871   -0.00004968    0.00005234
     atom    5 type  1   force =     0.00000259   -0.00004407    0.00002709
     atom    6 type  1   force =     0.00000192   -0.00006364    0.00001538
     atom    7 type  1   force =    -0.00001602   -0.00001939    0.00001388
     atom    8 type  2   force =     0.00000805   -0.00244312    0.28514208
     atom    9 type  2   force =     0.00001036   -0.12157753    0.11531648
     atom   10 type  2   force =    -0.00211450    0.00124575    0.28513868
     atom   11 type  2   force =    -0.10525502    0.06081523    0.11531903
     atom   12 type  2   force =    -0.00001144   -0.00000048    0.30241756
     atom   13 type  2   force =    -0.00001560   -0.00000019    0.18847016
     atom   14 type  2   force =     0.00210751    0.00123533    0.28514742
     atom   15 type  2   force =     0.10526448    0.06081214    0.11533370
     atom   16 type  2   force =    -0.10526712   -0.06073608   -0.11523674
     atom   17 type  2   force =    -0.00212410   -0.00121000   -0.28522397
     atom   18 type  2   force =    -0.00000779    0.00000448   -0.18837884
     atom   19 type  2   force =    -0.00000682    0.00000260   -0.30247401
     atom   20 type  2   force =     0.10530720   -0.06075917   -0.11522987
     atom   21 type  2   force =     0.00211612   -0.00120230   -0.28522616
     atom   22 type  2   force =     0.00000283    0.12153160   -0.11525209
     atom   23 type  2   force =     0.00000595    0.00244496   -0.28522537
     The ionic contribution  to forces
     atom    1 type  1   force =    -0.00057912   -0.00030461    0.00354662
     atom    2 type  1   force =    -0.00087005   -0.00078496   -0.00322754
     atom    3 type  1   force =    -0.00140126   -0.00003103    0.00324204
     atom    4 type  1   force =     0.00190886    0.00169923   -0.00507635
     atom    5 type  1   force =     0.00014583    0.00183993    0.00277355
     atom    6 type  1   force =     0.00045000    0.00158491   -0.00559647
     atom    7 type  1   force =     0.00140903    0.00013998    0.00286546
     atom    8 type  2   force =     0.00005256    0.75090634  -17.55850744
     atom    9 type  2   force =    -0.00078309    8.60237168   -6.81848878
     atom   10 type  2   force =     0.65026327   -0.37582202  -17.55935259
     atom   11 type  2   force =     7.44894759   -4.30197499   -6.81780750
     atom   12 type  2   force =    -0.00019652   -0.00004042  -16.80226098
     atom   13 type  2   force =     0.00081247   -0.00007155  -10.45326489
     atom   14 type  2   force =    -0.64993552   -0.37578234  -17.55866119
     atom   15 type  2   force =    -7.44951270   -4.30146031   -6.82002400
     atom   16 type  2   force =     7.45193758    4.30236989    6.81064090
     atom   17 type  2   force =     0.65150834    0.37557196   17.56637924
     atom   18 type  2   force =     0.00217175    0.00028019   10.44603720
     atom   19 type  2   force =     0.00048979    0.00030986   16.80980893
     atom   20 type  2   force =    -7.45279077    4.30017039    6.81146878
     atom   21 type  2   force =    -0.65130842    0.37492768   17.56641587
     atom   22 type  2   force =    -0.00228953   -8.60427099    6.81215756
     atom   23 type  2   force =    -0.00043008   -0.75162883   17.56693155
     The local contribution  to forces
     atom    1 type  1   force =     0.00056203    0.00030626   -0.00326105
     atom    2 type  1   force =     0.00086800    0.00081050    0.00298934
     atom    3 type  1   force =     0.00137172    0.00004906   -0.00293352
     atom    4 type  1   force =    -0.00187435   -0.00166236    0.00474988
     atom    5 type  1   force =    -0.00014911   -0.00178615   -0.00250920
     atom    6 type  1   force =    -0.00046627   -0.00150534    0.00530871
     atom    7 type  1   force =    -0.00138295   -0.00012074   -0.00258811
     atom    8 type  2   force =    -0.00006140   -0.74842976   17.27916139
     atom    9 type  2   force =     0.00077210   -8.48373367    6.70491840
     atom   10 type  2   force =    -0.64812222    0.37455984   17.28000605
     atom   11 type  2   force =    -7.34623903    4.24262974    6.70424041
     atom   12 type  2   force =     0.00020763    0.00004241   16.50608306
     atom   13 type  2   force =    -0.00079662    0.00007207   10.26842064
     atom   14 type  2   force =     0.64780258    0.37453159   17.27930957
     atom   15 type  2   force =     7.34679053    4.24211609    6.70643367
     atom   16 type  2   force =    -7.34921056   -4.24309985   -6.69742920
     atom   17 type  2   force =    -0.64935612   -0.37434483  -17.28665615
     atom   18 type  2   force =    -0.00215976   -0.00028320  -10.26154515
     atom   19 type  2   force =    -0.00048331   -0.00031111  -16.51329794
     atom   20 type  2   force =     7.35002697   -4.24088356   -6.69826354
     atom   21 type  2   force =     0.64916370   -0.37370943  -17.28668900
     atom   22 type  2   force =     0.00228351    8.48566846   -6.69892748
     atom   23 type  2   force =     0.00042407    0.74915216  -17.28720241
     The core correction contribution to forces
     atom    1 type  1   force =    -0.00000024    0.00000006    0.00000443
     atom    2 type  1   force =    -0.00000009    0.00000041   -0.00000137
     atom    3 type  1   force =    -0.00000002    0.00000021    0.00000411
     atom    4 type  1   force =     0.00000004    0.00000037   -0.00000279
     atom    5 type  1   force =     0.00000005    0.00000032    0.00000361
     atom    6 type  1   force =     0.00000007    0.00000049   -0.00000262
     atom    7 type  1   force =     0.00000000    0.00000025    0.00000380
     atom    8 type  2   force =    -0.00000087   -0.00001004   -0.00597237
     atom    9 type  2   force =     0.00000015    0.00263440   -0.00246020
     atom   10 type  2   force =    -0.00001137    0.00000791   -0.00597181
     atom   11 type  2   force =     0.00228321   -0.00131980   -0.00246034
     atom   12 type  2   force =    -0.00000036    0.00000244   -0.00626350
     atom   13 type  2   force =    -0.00000034    0.00000266   -0.00402154
     atom   14 type  2   force =     0.00001046    0.00000839   -0.00597246
     atom   15 type  2   force =    -0.00228176   -0.00131921   -0.00246020
     atom   16 type  2   force =     0.00228074    0.00131488    0.00246112
     atom   17 type  2   force =    -0.00001084   -0.00000380    0.00596779
     atom   18 type  2   force =    -0.00000026    0.00000269    0.00402080
     atom   19 type  2   force =    -0.00000050    0.00000250    0.00626134
     atom   20 type  2   force =    -0.00228192    0.00131636    0.00246043
     atom   21 type  2   force =     0.00000981   -0.00000427    0.00596766
     atom   22 type  2   force =     0.00000055   -0.00263436    0.00246084
     atom   23 type  2   force =    -0.00000085    0.00001441    0.00596732
     The Hubbard contrib.    to forces
     atom    1 type  1   force =     0.00000000    0.00000000    0.00000000
     atom    2 type  1   force =     0.00000000    0.00000000    0.00000000
     atom    3 type  1   force =     0.00000000    0.00000000    0.00000000
     atom    4 type  1   force =     0.00000000    0.00000000    0.00000000
     atom    5 type  1   force =     0.00000000    0.00000000    0.00000000
     atom    6 type  1   force =     0.00000000    0.00000000    0.00000000
     atom    7 type  1   force =     0.00000000    0.00000000    0.00000000
     atom    8 type  2   force =     0.00000000    0.00000000    0.00000000
     atom    9 type  2   force =     0.00000000    0.00000000    0.00000000
     atom   10 type  2   force =     0.00000000    0.00000000    0.00000000
     atom   11 type  2   force =     0.00000000    0.00000000    0.00000000
     atom   12 type  2   force =     0.00000000    0.00000000    0.00000000
     atom   13 type  2   force =     0.00000000    0.00000000    0.00000000
     atom   14 type  2   force =     0.00000000    0.00000000    0.00000000
     atom   15 type  2   force =     0.00000000    0.00000000    0.00000000
     atom   16 type  2   force =     0.00000000    0.00000000    0.00000000
     atom   17 type  2   force =     0.00000000    0.00000000    0.00000000
     atom   18 type  2   force =     0.00000000    0.00000000    0.00000000
     atom   19 type  2   force =     0.00000000    0.00000000    0.00000000
     atom   20 type  2   force =     0.00000000    0.00000000    0.00000000
     atom   21 type  2   force =     0.00000000    0.00000000    0.00000000
     atom   22 type  2   force =     0.00000000    0.00000000    0.00000000
     atom   23 type  2   force =     0.00000000    0.00000000    0.00000000
     The SCF correction term to forces
     atom    1 type  1   force =     0.00000035    0.00000233   -0.00028837
     atom    2 type  1   force =    -0.00001073   -0.00000694    0.00025669
     atom    3 type  1   force =     0.00000546    0.00000099   -0.00029088
     atom    4 type  1   force =    -0.00000074    0.00001369    0.00025680
     atom    5 type  1   force =    -0.00000033   -0.00000386   -0.00029115
     atom    6 type  1   force =     0.00001080   -0.00000774    0.00025671
     atom    7 type  1   force =    -0.00000538    0.00000060   -0.00029099
     atom    8 type  2   force =     0.00000171   -0.00006516   -0.00017283
     atom    9 type  2   force =     0.00000202   -0.00001937    0.00024027
     atom   10 type  2   force =    -0.00005404    0.00003542   -0.00017283
     atom   11 type  2   force =    -0.00001556    0.00001179    0.00024017
     atom   12 type  2   force =    -0.00000172   -0.00000332   -0.00013977
     atom   13 type  2   force =    -0.00000176   -0.00000172    0.00022457
     atom   14 type  2   force =     0.00005366    0.00003318   -0.00017282
     atom   15 type  2   force =     0.00001584    0.00000954    0.00024013
     atom   16 type  2   force =    -0.00001783   -0.00000979    0.00017698
     atom   17 type  2   force =    -0.00005398   -0.00003163   -0.00024209
     atom   18 type  2   force =     0.00000122    0.00000028    0.00017379
     atom   19 type  2   force =     0.00000125    0.00000115   -0.00026135
     atom   20 type  2   force =     0.00001761   -0.00001135    0.00017629
     atom   21 type  2   force =     0.00005363   -0.00003300   -0.00024199
     atom   22 type  2   force =    -0.00000150    0.00002077    0.00017707
     atom   23 type  2   force =    -0.00000139    0.00006288   -0.00024320

     Total force =     0.001763     Total SCF correction =     0.001124
     SCF correction compared to forces is large: reduce conv_thr to get better values


     Computing stress (Cartesian axis) and pressure



     -----------------------------------------------
     Non-local corr. energy    =      11.26047874 Ry
     -----------------------------------------------

          total   stress  (Ry/bohr**3)                   (kbar)     P=       26.56
   0.00018445   0.00000000   0.00000000           27.13        0.00        0.00
   0.00000000   0.00018445  -0.00000000            0.00       27.13       -0.00
   0.00000000  -0.00000000   0.00017267            0.00       -0.00       25.40

     kinetic stress (kbar)  14182.72      0.00      0.00
                                0.00  14182.73     -0.00
                                0.00     -0.00  14189.56

     local   stress (kbar)  -7316.82      0.13      0.07
                                0.13  -7316.78      0.01
                                0.07      0.01   -144.49

     nonloc. stress (kbar)   -728.60      0.00      0.00
                                0.00   -728.60     -0.00
                                0.00     -0.00   -735.19

     hartree stress (kbar)  11742.99     -0.06     -0.03
                               -0.06  11742.98     -0.00
                               -0.03     -0.00   8500.02

     exc-cor stress (kbar)   6747.68     -0.00     -0.00
                               -0.00   6747.68     -0.00
                               -0.00     -0.00   6746.90

     corecor stress (kbar) -10976.91      0.00     -0.00
                                0.00 -10976.91      0.00
                               -0.00      0.00 -10976.83

     ewald   stress (kbar) -13705.56     -0.08     -0.04
                               -0.08 -13705.58     -0.01
                               -0.04     -0.01 -17637.11

     hubbard stress (kbar)      0.00      0.00      0.00
                                0.00      0.00      0.00
                                0.00      0.00      0.00

     DFT-D   stress (kbar)      0.00      0.00      0.00
                                0.00      0.00      0.00
                                0.00      0.00      0.00

     XDM     stress (kbar)      0.00      0.00      0.00
                                0.00      0.00      0.00
                                0.00      0.00      0.00

     dft-nl  stress (kbar)     81.62      0.00      0.00
                                0.00     81.62      0.00
                                0.00      0.00     82.53

     TS-vdW  stress (kbar)      0.00      0.00      0.00
                                0.00      0.00      0.00
                                0.00      0.00      0.00

     MDB     stress (kbar)      0.00      0.00      0.00
                                0.00      0.00      0.00
                                0.00      0.00      0.00

     3D-RISM stress (kbar)      0.00      0.00      0.00
                                0.00      0.00      0.00
                                0.00      0.00      0.00



     -----------------------------------------------
     Non-local corr. energy    =      11.26047874 Ry
     -----------------------------------------------



     -----------------------------------------------
     Non-local corr. energy    =      11.26047874 Ry
     -----------------------------------------------



     -----------------------------------------------
     Non-local corr. energy    =      11.26047874 Ry
     -----------------------------------------------



     -----------------------------------------------
     Non-local corr. energy    =      11.26047874 Ry
     -----------------------------------------------



     -----------------------------------------------
     Non-local corr. energy    =      11.26047874 Ry
     -----------------------------------------------



     -----------------------------------------------
     Non-local corr. energy    =      11.26047874 Ry
     -----------------------------------------------



     -----------------------------------------------
     Non-local corr. energy    =      11.26047874 Ry
     -----------------------------------------------



     -----------------------------------------------
     Non-local corr. energy    =      11.26047874 Ry
     -----------------------------------------------



     -----------------------------------------------
     Non-local corr. energy    =      11.26047874 Ry
     -----------------------------------------------



     -----------------------------------------------
     Non-local corr. energy    =      11.26047874 Ry
     -----------------------------------------------



     -----------------------------------------------
     Non-local corr. energy    =      11.26047874 Ry
     -----------------------------------------------



     -----------------------------------------------
     Non-local corr. energy    =      11.26047874 Ry
     -----------------------------------------------



     -----------------------------------------------
     Non-local corr. energy    =      11.26047874 Ry
     -----------------------------------------------



     -----------------------------------------------
     Non-local corr. energy    =      11.26047874 Ry
     -----------------------------------------------



     -----------------------------------------------
     Non-local corr. energy    =      11.26047874 Ry
     -----------------------------------------------



     -----------------------------------------------
     Non-local corr. energy    =      11.26047874 Ry
     -----------------------------------------------



     -----------------------------------------------
     Non-local corr. energy    =      11.26047874 Ry
     -----------------------------------------------



     -----------------------------------------------
     Non-local corr. energy    =      11.26047874 Ry
     -----------------------------------------------



     -----------------------------------------------
     Non-local corr. energy    =      11.26047874 Ry
     -----------------------------------------------



     -----------------------------------------------
     Non-local corr. energy    =      11.26047874 Ry
     -----------------------------------------------



     -----------------------------------------------
     Non-local corr. energy    =      11.26047874 Ry
     -----------------------------------------------



     -----------------------------------------------
     Non-local corr. energy    =      11.26047874 Ry
     -----------------------------------------------



     -----------------------------------------------
     Non-local corr. energy    =      11.26047874 Ry
     -----------------------------------------------



     -----------------------------------------------
     Non-local corr. energy    =      11.26047874 Ry
     -----------------------------------------------



     -----------------------------------------------
     Non-local corr. energy    =      11.26047874 Ry
     -----------------------------------------------



     -----------------------------------------------
     Non-local corr. energy    =      11.26047874 Ry
     -----------------------------------------------



     -----------------------------------------------
     Non-local corr. energy    =      11.26047874 Ry
     -----------------------------------------------



     -----------------------------------------------
     Non-local corr. energy    =      11.26047874 Ry
     -----------------------------------------------



     -----------------------------------------------
     Non-local corr. energy    =      11.26047874 Ry
     -----------------------------------------------



     -----------------------------------------------
     Non-local corr. energy    =      11.26047874 Ry
     -----------------------------------------------



     -----------------------------------------------
     Non-local corr. energy    =      11.26047874 Ry
     -----------------------------------------------



     -----------------------------------------------
     Non-local corr. energy    =      11.26047874 Ry
     -----------------------------------------------



     -----------------------------------------------
     Non-local corr. energy    =      11.26047874 Ry
     -----------------------------------------------



     -----------------------------------------------
     Non-local corr. energy    =      11.26047874 Ry
     -----------------------------------------------

 BEEFens 2000 ensemble energies
             -0.940863301021636E+01
             -0.945779802282795E+02
             -0.430053979776432E+02
              0.330147857405376E+02
             -0.722040416562202E+02
             -0.884761861657643E+02
              0.454095337986494E+02
              0.241027083596464E+00
              0.765640132777493E+02
             -0.485226142072150E+01
              0.391310353637611E+02
              0.403979242139883E+01
             -0.297358939465681E+01
             -0.238445025331731E+01
              0.489141559029970E+02
             -0.367263868541518E+02
             -0.722484219031514E+02
             -0.233146768547767E+02
              0.209384636315070E+02
             -0.378618855670425E+00
              0.106447305963430E+03
              0.889033199577127E+02
             -0.547226528238518E+02
              0.189557697461069E+02
             -0.114050866981441E+03
              0.936527392520238E+02
              0.320124856600357E+02
              0.845857933360278E+02
              0.570206127669608E+02
             -0.264970554026562E+02
              0.208334229968553E+02
             -0.373957729041811E+02
              0.155477111403196E+02
              0.566646415417274E+02
              0.609260126200659E+02
             -0.265484240663182E+02
              0.134604383458834E+03
             -0.540660350773396E+02
             -0.361321007106775E+02
              0.538439343370525E+02
              0.237093484240319E+02
              0.408317380257174E+02
             -0.789605350322073E+02
             -0.513545420834748E+01
              0.757815591536505E+02
              0.990140131648596E+02
             -0.100471805195447E+03
              0.650455551092276E+01
              0.349059401895822E+02
              0.224829198637844E+02
              0.393607687259049E+02
              0.863523020029255E+02
             -0.560477732059757E+02
             -0.543605551515552E+02
             -0.758353149152867E+02
             -0.110861553242137E+02
             -0.647127890093701E+02
              0.836253196404459E+01
             -0.934974297858651E+01
             -0.512988684604372E+02
              0.837817872328069E+02
              0.849284497548522E+02
             -0.233887218351900E+02
             -0.641103017372163E+02
             -0.389102962594588E+02
             -0.257903667632510E+01
              0.617767707671142E+02
             -0.867142291005644E+01
             -0.617296430511784E+02
              0.570209867412288E+02
             -0.105717850900412E+03
              0.935232702440699E+02
             -0.108363657676465E+03
             -0.475258889712650E+02
             -0.155891132345679E+02
             -0.990960153078444E+01
              0.561601158887891E+01
              0.749152199708610E+02
              0.470171913437943E+02
             -0.788331134381032E+02
             -0.104565146589419E+03
             -0.546031432711821E+02
             -0.405540991285606E+02
              0.616924661592293E+01
             -0.129797671168254E+02
             -0.379622875186922E+02
              0.464246603789297E+02
             -0.397237748758972E+02
              0.154448744932385E+03
             -0.708656628731805E+02
              0.154385517867284E+02
              0.161066752173638E+02
              0.232364088116509E+02
              0.536913209092892E+02
              0.382751322056027E+02
              0.363181006325803E+02
             -0.596527389753106E+02
              0.353052669965834E+02
              0.864054347585011E+01
             -0.115033171491251E+01
              0.699690608850545E+02
             -0.826771340975298E+02
              0.139939715506622E+03
             -0.329147575467545E+02
             -0.149339464109025E+03
              0.827824388412267E+01
              0.136223684701642E+02
             -0.409267864890606E+02
             -0.785871103282808E+02
             -0.395196459339849E+02
             -0.291464788598196E+02
              0.971586823708435E+00
             -0.619727369672881E+02
              0.337517125063050E+01
              0.672161827874862E+01
              0.143326936923493E+02
              0.134656295723211E+03
              0.160511758701772E+02
             -0.816889662154081E+02
             -0.613396275357535E+02
             -0.192618523393641E+02
             -0.530218454039954E+02
              0.900946866577276E+02
             -0.572094973373345E+02
              0.267691580664658E+01
             -0.114543021864220E+02
              0.148932468392802E+02
              0.530411846432269E+02
             -0.577816625720478E+02
             -0.113824036680686E+03
             -0.207206331948328E+02
             -0.237100016936892E+02
             -0.169336662049826E+02
              0.576147302789447E+02
             -0.999237421603199E+02
             -0.112913805486680E+03
             -0.147558473223319E+02
             -0.246769183518936E+02
             -0.407370731981547E+01
              0.309173958304860E+02
              0.682785365873328E+02
              0.346447200726425E+02
             -0.337109950499686E+02
             -0.357050655866033E+02
             -0.103279114389331E+03
             -0.774158616482532E+01
             -0.490741870135946E+02
             -0.308174787026945E+02
              0.857279492417516E+02
             -0.661317633213740E+02
             -0.226469625075628E+02
              0.798297366876525E+02
             -0.108459817261429E+02
             -0.207525847312123E+02
              0.135671333547377E+02
              0.316696965130305E+02
             -0.511221376728834E+02
              0.299089686390560E+02
              0.199454243535685E+02
              0.469272943592703E+02
             -0.483711688479608E+02
             -0.393496754968352E+02
              0.598505697048056E+02
             -0.499491384570490E+01
             -0.234822400832513E+02
             -0.203911332484531E+02
             -0.282090820070153E+02
             -0.380110272207435E+02
             -0.893163376454483E+02
             -0.112806185486096E+03
             -0.355274481740720E+02
             -0.352382542040216E+02
             -0.412704700814578E+02
             -0.687573820130876E+02
             -0.355691879397442E+02
              0.611264762107950E+02
              0.264163749601919E+02
              0.866976837162916E+02
             -0.368960136470242E+02
              0.296603534150389E+02
              0.160601539002266E+02
             -0.912428052044782E+02
             -0.216365454621447E+02
              0.488943962212386E+02
             -0.146728234147405E+03
              0.318490748351926E+02
              0.245243721475628E+02
              0.935448412688650E+02
             -0.288345309993382E+02
              0.808203531181176E+02
              0.123709771454664E+03
              0.102549149634282E+03
             -0.577572536313305E+02
             -0.314958019209511E+02
             -0.177168274119209E+02
              0.410424509473946E+02
              0.210046564668130E+02
             -0.222078723046266E+02
              0.598452202747989E+02
              0.119376450328167E+03
             -0.416512269475610E+02
             -0.293560130917745E+02
              0.198047202516307E+02
             -0.678251460621927E+02
             -0.583872316929969E+02
              0.518285441989744E+01
              0.176536861419413E+01
             -0.108641732783174E+02
              0.102282028694030E+03
              0.323809623380342E+02
             -0.170461557544094E+02
             -0.663440701714228E+01
             -0.134425847356012E+03
             -0.144296554701917E+02
             -0.307060184356829E+02
             -0.372888761869899E+01
              0.668663068756180E+02
             -0.352573389601378E+01
              0.932999692763877E+02
             -0.602822350325939E+02
             -0.609903589602751E+02
              0.615744162132461E+02
              0.811180035929978E+02
              0.107811563894287E+03
             -0.614477388422608E+02
             -0.344094236045167E+02
              0.641204749923633E+02
              0.706726115687520E+02
             -0.793220552495657E+02
             -0.200990946570998E+02
              0.851257936675946E+02
              0.552361347335624E+02
              0.331943365072921E+02
              0.307224198967683E+02
             -0.220454997341897E+02
             -0.488521030534434E+01
              0.355258194831033E+02
             -0.372068489205474E+02
             -0.472131060564500E+02
              0.113617868743714E+02
             -0.217762414167692E+02
              0.322050795637843E+02
             -0.549396212401919E+02
              0.660035345636031E+02
             -0.966032422176806E+01
              0.647201883696533E+02
             -0.236733655147450E+02
             -0.797699796704438E+02
             -0.738428471441694E+00
              0.209635335096189E+02
              0.175905369859468E+02
              0.779034286679024E+01
              0.927469418096990E+01
              0.151830894921705E+02
              0.121574492326972E+03
             -0.895909647788245E+02
              0.199352389278071E+02
             -0.466806143261056E+01
              0.204325301337974E+01
              0.485813508520062E+02
              0.353310616654528E+02
             -0.367973371107250E+02
              0.106274986107376E+02
             -0.619180151314472E+02
             -0.202460233572930E+02
             -0.139548523220014E+01
             -0.134256401364221E+03
              0.322660757078066E+02
              0.658842893430142E+02
              0.335000032566418E+02
              0.486493550824300E+02
             -0.289353851380593E+02
              0.281894559178204E+02
              0.723488509533470E+02
             -0.553201358200469E+02
              0.325574727449848E+02
              0.901959189334744E+02
             -0.123898026341683E+02
              0.574363774061719E+02
             -0.175906636135894E+02
             -0.243579499155721E+02
             -0.557244490448065E+01
             -0.630574021768967E+02
              0.365888971969699E+02
              0.344125729199338E+02
              0.673095364465689E+02
             -0.369487121723465E+02
              0.599500414870425E+02
              0.119801678338295E+03
              0.644149790667622E+02
             -0.547134136859643E+02
             -0.212169762726949E+02
             -0.104912897980040E+03
              0.992083712867259E+01
              0.142281771381818E+02
             -0.327218642005056E+01
             -0.206262568971740E+02
              0.157279275231143E+02
              0.756350083379299E+02
             -0.848178488428630E+00
              0.349023440934699E+02
              0.340216415413972E+02
             -0.168546169491917E+02
             -0.108626175663515E+03
              0.400158697290964E+02
             -0.678371129859833E+00
              0.565061224986701E+02
             -0.150849864253129E+02
             -0.207698577665886E+02
             -0.245658837758338E+02
              0.158046667778443E+02
              0.492943175997061E+01
              0.282738667262748E+02
              0.291211041124880E+02
             -0.785710947716475E+02
              0.425737083210631E+02
              0.514356890373906E+02
              0.416314847819273E+02
              0.805224685804330E+02
              0.323856909259419E+02
              0.932241562197693E+02
             -0.279134682845393E+02
             -0.315105593433256E+02
              0.457263095088598E+02
              0.460804329773946E+02
              0.127995863745048E+01
              0.729450875957762E+01
              0.497203435943932E+02
              0.381523751465348E+02
             -0.241756862178079E+02
             -0.472493150960247E+01
             -0.834267782351088E+01
             -0.833983314005857E+01
             -0.877588480555411E+02
             -0.277634342254381E+02
              0.422599515105990E+02
              0.241458813858021E+02
              0.356187262619581E+02
             -0.670545016304611E+02
             -0.951364738142299E+02
              0.236345650655802E+02
              0.936224610570942E+02
              0.485455762701922E+02
             -0.478697102011410E+02
             -0.936722645109711E+02
             -0.520429183698172E+01
              0.308656920854201E+02
              0.309940947213107E+02
             -0.121341284035255E+02
              0.819610812278672E+02
              0.250896189998235E+02
             -0.573720147175515E+02
              0.625342215705060E+02
              0.336393902390887E+02
              0.476347100418926E+01
             -0.196316420259068E+02
             -0.416053205203972E+02
             -0.639113834131080E+02
              0.203986598895956E+02
             -0.127574054787179E+02
             -0.413447239087572E+02
              0.307738288781940E+01
             -0.381919735005183E+02
              0.234006178839948E+02
             -0.101793633036673E+03
              0.240642617747740E+02
             -0.110401704284604E+02
             -0.491601999025144E+01
              0.308939223352256E+02
              0.295638440683019E+02
              0.129682609407907E+03
              0.337327717660946E+01
             -0.421495005572306E+02
             -0.959258532371411E+02
              0.498193313760132E+02
             -0.513795820497057E+01
              0.347155705373996E+02
              0.209812709449881E+02
             -0.122328094374038E+02
              0.792588385986230E+02
              0.653804136926423E+02
             -0.163587802112141E+02
              0.687704889083385E+02
             -0.863598244522575E+02
              0.207644635585014E+02
              0.503145046131086E+02
             -0.615010705952693E+02
             -0.798950311025588E+02
             -0.874920428763922E+02
             -0.863692066973053E+02
              0.824616656119830E+02
             -0.668138110516533E+02
             -0.107563348711373E+02
              0.413238563821305E+02
             -0.334929528625356E+02
              0.132579906897602E+02
              0.208953128853288E+02
              0.461965205524079E+02
             -0.744887719688979E+02
              0.526804596289258E+02
             -0.258194003017871E+02
             -0.110176474962908E+03
              0.406961368007028E+02
             -0.263351079892863E+02
             -0.616049941771897E+02
             -0.287754859827708E+02
              0.517120790939318E+02
              0.400723444975526E+02
              0.139497796401394E+02
              0.241941313307005E+02
             -0.142407941349688E+01
              0.214581578028049E+02
             -0.677509503973739E+02
              0.124235703071011E+02
             -0.142771576663405E+02
             -0.554360768655590E+02
              0.155497822819980E+02
             -0.839155251674612E+01
              0.793598640502337E+02
              0.131157810585631E+02
              0.884901017280311E+02
              0.123949969647796E+02
              0.250222128400525E+02
             -0.239494747004510E+02
             -0.218782864017896E+02
              0.506954078396936E+02
              0.196311172516986E+02
             -0.439543530300405E+02
              0.992903756051978E+02
              0.734065598992438E+02
              0.741649150975872E+02
              0.497931447453210E+02
             -0.178667557505864E+02
             -0.123073591982177E+03
             -0.888690730260009E+01
             -0.343528584388079E+02
             -0.470928233258215E+02
              0.526662466054265E+02
             -0.114988838586616E+03
              0.489740645987530E+02
              0.395118803004602E+02
             -0.392284100411399E+02
             -0.655200422571386E+01
             -0.160815176451656E+02
             -0.351222141675506E+02
              0.373054226697235E+02
              0.460371988469642E+02
             -0.660479591721401E+01
             -0.271526054068323E+02
              0.103164447013769E+02
             -0.126413276937905E+01
             -0.722445812422621E+02
             -0.503406940921388E+02
             -0.375874734224567E+01
             -0.561936143702540E+02
             -0.302545857833587E+02
              0.183508138698909E+01
             -0.934674750962885E+02
             -0.489263077417179E+02
              0.312386281866131E+01
             -0.118818529930805E+03
              0.154240604093906E+02
             -0.113739047911744E+03
              0.619862270561579E+02
             -0.491964401063451E+02
              0.659476734919899E+02
             -0.234181598578055E+02
             -0.937915335949624E+02
             -0.511571235319026E+01
             -0.504744683848789E+02
             -0.279092346763061E+02
              0.181447844815973E+02
             -0.104775940396205E+03
              0.179124017565426E+02
              0.510039606510362E+02
             -0.100678441628479E+03
             -0.117704807499633E+02
             -0.930334962487801E+02
             -0.103636823471786E+03
             -0.662862721321091E+02
             -0.101289495463958E+02
             -0.512287629574734E+02
              0.504995472342508E+02
              0.562218229422358E+02
             -0.414371623719434E+02
              0.286750239562982E+02
             -0.402852756144630E+02
              0.359291441780704E+02
             -0.543015078635803E+02
             -0.543269346721165E+02
              0.507905573527655E+02
              0.386947947224130E+02
              0.147768487702540E+02
              0.565739003736819E+02
              0.124920237231187E+03
             -0.204212446856770E+02
              0.386794971740909E+02
             -0.110170505355320E+03
             -0.101468460036032E+03
             -0.485532159888584E+01
              0.108854169680444E+02
              0.318455380343398E+02
             -0.816934195446665E+02
              0.158172928007023E+02
              0.986250854066942E+02
             -0.779286674260833E+02
             -0.142284863195798E+02
             -0.108003683617514E+03
             -0.111135707462290E+02
              0.581273778318808E+01
             -0.749716952296661E+02
              0.229225598033314E+02
             -0.111235630413920E+03
             -0.483294473826237E+01
             -0.827518741167808E+01
              0.106619444360149E+02
             -0.678993352653556E+02
              0.505853905105600E+02
             -0.834761098147578E+01
             -0.933280257845996E+01
              0.877779531650447E+01
              0.346357387595726E+02
              0.713042572515376E+02
             -0.197841071043524E+02
              0.544075027304966E+02
              0.931267804981809E+02
              0.176507871115680E+02
             -0.376828335810876E+01
              0.285991420800849E+02
              0.851205077212748E+01
             -0.111392874213592E+02
              0.431862832980845E+02
             -0.123739344027709E+02
             -0.611473015834908E+02
              0.340165851236609E+02
             -0.434986102448477E+02
             -0.349525318014825E+02
             -0.646951784024026E+00
             -0.796735808414044E+02
             -0.203334161739920E+02
             -0.872673161766388E+02
             -0.483811670589596E+01
             -0.234597211732672E+02
              0.438407174030184E+02
             -0.928231048149626E+02
              0.841091624057043E+01
              0.284039157681144E+01
             -0.750635053843167E+02
              0.439445148446757E+02
              0.830136618856191E+02
              0.219653534060130E+02
             -0.717318679269471E+02
             -0.794296975073729E+02
              0.106771632106233E+03
              0.805636130708710E+02
              0.348193420648465E+02
             -0.266407539470341E+02
             -0.497310657931821E+02
              0.468746758711700E+02
              0.196926969376628E+02
              0.922117255224674E+02
              0.845767286541294E+02
              0.716594508945143E+02
              0.375099634890276E+02
             -0.148931814082134E+03
             -0.400529797401020E+02
              0.189856449572878E+02
             -0.314928801429259E+02
              0.862942336640857E+02
              0.370439795985122E+02
             -0.342192057217367E+02
             -0.103427961155472E+02
              0.999091166502474E+02
              0.971716870260855E+01
             -0.110037232710193E+02
             -0.169003191905763E+03
              0.414653425328036E+02
             -0.367235157014424E+02
              0.757378414993737E+02
             -0.654402672185176E+02
             -0.100607979070969E+02
              0.263665045807755E+02
             -0.574621399698195E+02
             -0.950515975628450E+02
              0.436755526977663E+01
              0.325587634494271E+02
             -0.379013491050182E+01
             -0.248154204416497E+02
             -0.138884412981911E+02
             -0.571189731472404E+02
             -0.107962270418997E+03
              0.135640323031416E+01
             -0.406220019240601E+02
             -0.100659012839978E+02
             -0.431285011572731E+02
              0.172456318713205E+03
              0.362201818909532E+02
             -0.580201147698751E+02
             -0.543521993720642E+02
              0.228490283540734E+02
              0.420047127486579E+02
              0.661475112107987E+02
             -0.474479983459734E+02
             -0.104308332593096E+03
             -0.303818543165364E+02
             -0.568478592159733E+02
              0.585197327921650E+02
              0.667020223791757E+02
              0.903912607800987E+01
              0.261289670413956E+02
              0.455168427308969E+02
              0.551976487494544E+02
             -0.104801525775050E+03
             -0.222319517481671E+02
              0.696565098645829E+01
             -0.157562545953374E+02
             -0.455224221471490E+02
              0.185001487724611E+01
             -0.174969905071679E+02
             -0.421561086171795E+02
             -0.425209713109891E+02
              0.175045230977124E+02
             -0.131575777557539E+03
             -0.671881515375972E+02
             -0.569438393657761E+02
              0.118229777837143E+03
             -0.207822579850864E+02
             -0.122414798844392E+02
              0.127767130749446E+03
             -0.627304023377342E+02
              0.776259333943681E+02
             -0.488424843523367E+02
             -0.158143321764786E+01
              0.234696909360076E+01
             -0.107722215483197E+02
             -0.586573205016189E+02
              0.164250262067792E+02
              0.923760274662254E+01
             -0.452931095070213E+02
              0.411320885472443E+02
             -0.447271934452897E+02
             -0.125050887324687E+02
              0.124017543104184E+02
              0.566465998233610E+01
             -0.293980737028394E+02
             -0.224940989690878E+02
              0.590416603751637E+02
              0.137011152641975E+02
              0.239660343547130E+02
             -0.528840464378493E+02
             -0.470891634905877E+01
             -0.199100497343590E+02
             -0.196346112557949E+02
              0.100533673505888E+02
             -0.516701752229262E+02
             -0.368505226665341E+02
             -0.293392691655901E+02
             -0.256486079192473E+01
              0.612948872736151E+02
              0.116250188692774E+03
              0.197460859377770E+01
              0.641865933834265E+02
             -0.645718110347423E+01
             -0.568830132217491E+02
              0.262007876521068E+01
             -0.565584229476931E+02
             -0.321398301136419E+02
              0.233204190236765E+02
[...]
              0.538138651481970E+02
              0.244195652577355E+02
              0.397785648332571E+02
             -0.226015287706505E+01
              0.122286105878905E+03
              0.204870455180168E+02
             -0.188702988490331E+02
              0.228826632063783E+01
             -0.123391790158850E+02
              0.100363542828000E+03
             -0.569791681759594E+01
              0.215411281891755E+02
              0.723929281088278E+02
              0.159188189730763E+02
             -0.571523713801597E+02
             -0.832355522126214E+02
              0.896927581445766E+00
             -0.936408871585646E+02
              0.317411841641997E+02
             -0.189650321079330E+02
             -0.438887428788894E+02
              0.395223949568225E+02
              0.152088530442996E+02
              0.356779191672014E+02
              0.315228846351522E+01
              0.567718143476070E+02
             -0.928663577075148E+02
             -0.848146834222604E+01
             -0.809581888836885E+02
              0.146444313117371E+02
              0.438212178280831E+02
             -0.802810038529003E+01
             -0.304619499658945E+02
              0.652363279349939E+02
             -0.303165440485320E+02
              0.212404577245202E+02
             -0.190212300490595E+02
              0.465879027090183E+02
              0.562165471267143E+02
             -0.242403565824222E+02
              0.484906246893576E+02
              0.185830735660159E+02
             -0.499508451295438E+02
             -0.298295852723809E+02
              0.804797982555804E+02
              0.381115989850082E+02
             -0.365599067296961E+01
             -0.107631241825579E+02
              0.118318797313038E+03
              0.709184491728709E+02
              0.260126981945729E+02
             -0.757482891276431E+02
              0.118712098620196E+03
             -0.536902036576416E+02
             -0.665895029976619E+02
             -0.103062295724683E+03
              0.497082263554975E+02
             -0.943169667264389E+02
              0.409490230095248E+02
              0.671898120467621E+02
              0.498177827464223E+02
              0.105866278808337E+02
              0.296302868269436E+02
             -0.743961008784048E+02
             -0.264814579272727E+02
             -0.239023443638779E+02
              0.359185770348144E+02
              0.801123323351148E+02
              0.790492883664212E+02
              0.604713249236711E+02
             -0.149133195179863E+02
              0.214657879964564E+02
              0.298713617560099E+01
             -0.237381264377007E+02
              0.354151827633074E+02
              0.338569356130622E+02
             -0.484105204164737E+02
             -0.490550367621443E+02
             -0.224497022903989E+02
              0.521249643593213E+02
              0.265653246076331E+02
             -0.355438282817403E+02
             -0.617720872503658E+02
             -0.848414950149638E+02
              0.176930211503044E+01
              0.241447471858332E+02
             -0.328433621085269E+02
              0.120564806221148E+03
              0.112021190780899E+01
             -0.140026723045170E+03
              0.351283523822967E+02
              0.578120841194172E+02
             -0.210284658540375E+02
              0.226129452084822E+01
             -0.316759587362785E+02
              0.537490865382726E+02
              0.265914841618252E+02
             -0.707749641458975E+02
              0.840495781767269E+02
              0.562970548182406E+01
             -0.335707929700989E+02
             -0.414060734296191E+02
              0.168484828609651E+03
              0.752667267649654E+02
             -0.188981465249785E+02
              0.416162353859373E+02
             -0.821350870790274E+02
             -0.177736995526956E+02
             -0.730013622076722E+02
              0.282286840508164E+02
              0.523530532640708E+02
              0.575798097406068E+02
             -0.252512296052940E+02
              0.434892324442455E+01
              0.717674974054494E+02
              0.229837791206825E+02
              0.427471908797081E+02
              0.173744868530256E+02
             -0.964975287276633E+01
              0.181445940835800E+00
             -0.133699037251399E+02
              0.148872168729439E+02
              0.496921871966526E+01
             -0.651958094211668E+02
              0.998712911841840E+02
              0.383981482480345E+02
             -0.707798451426973E+02
             -0.519606770971275E+02
             -0.734108948727846E+02
             -0.318977875531846E+02
             -0.230937216684332E+02
             -0.581343172031446E+02
             -0.573527465599266E+02
              0.690756077988153E+02
              0.549680471941780E+02
             -0.757459858980576E+01
              0.825518258424870E+02
              0.119696656274059E+02
             -0.132588402807273E+03
              0.711582857338171E+02
              0.121502286523336E+02
              0.559195747701996E+02
              0.756149035961212E+01
              0.624265131816608E+01
              0.113739785841350E+02
              0.302020325012988E+02
             -0.553381572255121E+02
             -0.261093250726351E+02
             -0.522257377607958E+02
             -0.433118267101673E+02
              0.180181929191355E+02
             -0.480114490829562E+02
              0.231560511099965E+02
              0.318158927715050E+02
             -0.294144743277561E+02
             -0.187715795019900E+02
              0.119872495927240E+01
              0.824114944577974E+02
              0.124887679616231E+02
              0.791269005386688E+02
              0.282977895822459E+02
             -0.104645592676160E+03
             -0.347159070110327E+02
              0.356737179842319E+02
              0.822735723219011E+02
              0.136315650661349E+02
              0.338076310568885E+02
              0.757439582641717E+02
             -0.438924429803733E+02
             -0.672865650639413E+02
              0.933396805543621E+02
              0.536705922590852E+01
             -0.986908690063387E+02
              0.360271708299233E+02
              0.624894749644728E+02
             -0.159606017476638E+02
             -0.650292927057132E+02
              0.135514691087064E+02
              0.278186524932130E+01
             -0.316159044953911E+02
              0.121301768023845E+02
             -0.105745089201016E+02
              0.146813539586164E+03
              0.427160966349249E+02
             -0.621959767521524E+02
              0.184016017088940E+02
              0.893857569381396E+02
             -0.603721232302949E+02
             -0.157009457398699E+02
             -0.571105575979492E+02
              0.457071137961513E+02
              0.145297662871190E+02
              0.302059415550818E+02
              0.547132790445841E+01
              0.103854818075562E+03
             -0.590037065560009E+02
             -0.466649398472248E+02
             -0.450191153450155E+02
              0.395446065792603E+02
              0.103201881632737E+03
             -0.172265173619229E+02
              0.422650982984726E+02
             -0.599751307787443E+02
              0.114645882657945E+02
             -0.192215527922007E+02
              0.411573502953451E+01
             -0.232187814208099E+02
             -0.189821894062109E+02
             -0.185975452962424E+02
              0.154014472863120E+02
              0.300430143731251E+02
             -0.653549363605315E+02
              0.483994031434116E+02
             -0.779430926619771E+02
              0.588693204077210E+02
             -0.622118452409429E+02
              0.100770115342226E+03
              0.553394752070638E+02
              0.636576200076135E+02
              0.157830133710161E+02
              0.185839191207009E+02
             -0.139134061677238E+03
              0.227069748966649E+02
              0.515741764591360E+01
              0.132950609122624E+02
             -0.227220272893121E+02
              0.107564913350455E+03
             -0.250391547252170E+02
             -0.444738211298653E+02
             -0.104194504195179E+03
             -0.361616249425997E+02
             -0.499559019926176E+02
             -0.433992888834381E+02
             -0.983795041929858E+01
             -0.238021518762612E+02
             -0.301672848707863E+02
             -0.463280480014275E+02
              0.354910244667232E+02
              0.111736599380083E+03
              0.944313915399673E+02
             -0.167986973474970E+02
             -0.113560949424597E+03
             -0.483779563841885E+02
              0.232459697738121E+02
              0.231880482186198E+02
              0.371081056379561E+02
              0.260928320545886E+02
              0.462915205545698E+01
              0.110945495492401E+03
             -0.269931978318306E+02
              0.545131220792020E+02
              0.279389376599452E+02
             -0.377530985219771E+02
             -0.180952883436235E+02
              0.502751043183131E+02
             -0.267907544912442E+02
             -0.164771825273534E+02
             -0.122149064036379E+02
              0.647400996200316E+02
             -0.850898185334870E+02
             -0.679777221971324E+01
             -0.656813815596161E+02
             -0.139602678408461E+03
             -0.308060239452061E+00
             -0.205467794063852E+02
              0.542398001468032E+02
              0.603633677230212E+02
              0.825305614443960E+02
             -0.536744946650383E+02
              0.833884502788546E+02
              0.208314942721643E+02
             -0.309027057921099E+02
              0.111442456361394E+02
             -0.264266325950914E+02
             -0.156365670601149E+02
              0.481279170115538E+02
             -0.398794892267080E+02
              0.106991392116363E+03
             -0.285483980305652E+02
             -0.590832866984877E+02
              0.111871957880042E+03
             -0.605600636768241E+02
             -0.489749630650977E+01
              0.593120476056498E+01
              0.323490721641289E+02
             -0.473085711504075E+02
             -0.360431415864008E+02
              0.574747278477516E+02
             -0.864086321577577E+02
              0.713105078486697E+02
              0.105463405845607E+02
              0.510717796263597E+02
              0.740647911485426E+02
              0.189034118361440E+02
             -0.102818380210738E+03
             -0.445104025201401E+02
             -0.742106887068852E+02
             -0.441876014904853E+02
             -0.118036386920126E+02
              0.158995719948738E+02
             -0.346622238847119E+02
             -0.597664014571933E+00
             -0.103407172443324E+03
              0.580139155651361E+01
             -0.666460320813828E+02
              0.646116278463826E+02
             -0.379250162239504E+02
             -0.909651439818580E+01
              0.487429649018253E+02
              0.960572991601086E+01
              0.453323185403564E+02
             -0.863385916111966E+02
              0.143978748477797E+02
              0.593230071051573E+01
              0.371358943713157E+02
              0.595736499254868E+02
             -0.109986566288314E+02
             -0.679168851032578E+02
             -0.391293680886975E+02
             -0.277366530669765E+02
             -0.822323379431941E+01
              0.632933861877850E+02
              0.410660525158088E+02
             -0.416369011987649E+02
             -0.390520226458459E+02
              0.286725839155488E+02
              0.312204732722263E+02
             -0.842955257955887E+02
              0.196956758407233E+02
              0.605569786982698E+02
             -0.266304805814681E+01
              0.761068409103509E+02
              0.352348845415773E+02
              0.599881355577734E+02
              0.910828620678839E+02
              0.137763262815120E+02
             -0.124274460938405E+03
              0.171489566565654E+02
              0.134298903583649E+03
              0.976083155185947E+02
             -0.673162508025000E+02
              0.606375087604948E+01
              0.873290382928126E+02
              0.757717223997247E+02
              0.332737917748684E+02
             -0.201286287970954E+02
              0.334043637070496E+02
              0.692454387841969E+02
             -0.319628447322903E+02
             -0.205689761052580E+02
              0.468868844483336E+02
             -0.285879430424905E+01
              0.419874820791124E+02
             -0.130747329512999E+02
              0.877316248196439E+02
             -0.335399250940139E+02
              0.201100116500546E+02
             -0.372558061144459E+02
              0.434481946603106E+02
             -0.590731358798871E+01
              0.647085310050894E+02
              0.463855988270032E+01
              0.289125831789800E+02
             -0.411105736432043E+02
             -0.288045653826541E+02
             -0.146717609885455E+02
             -0.133518830180398E+02
              0.703987665060846E+02
              0.346012503783581E+02
              0.855253068774958E+02
              0.788751316595345E+02
              0.221135767721896E+02
              0.403543076613771E+01
              0.841218191699955E+02
              0.472721611678045E+02
             -0.811298528509496E-02
              0.818861109759941E+02
             -0.672281013727957E+02
              0.235827489143209E+02
             -0.437471962000852E+02
             -0.119482210666483E+02
              0.113265956102981E+03
             -0.158864304455469E+02
             -0.467754244973833E+01
             -0.123557980862326E+02
              0.930186103601517E+02
             -0.200060517390980E+02
             -0.170693804628917E+01
              0.187757310270773E+03
             -0.556144529677803E+02
             -0.693025204215726E+02
             -0.694221649452843E+02
             -0.443571008014965E+02
              0.403659838872489E+02
             -0.181631570913955E+02
              0.103109073053109E+02
             -0.472077334304345E+01
              0.237325583706742E+02
              0.382356562076276E+02
              0.445288403739228E+02
              0.640830934823830E+02
              0.410613645195513E+02
              0.418715674997649E+02
             -0.774320199203546E+02
             -0.799447579518318E+02
             -0.180440559893796E+02
             -0.714896131538588E+02
              0.113511858144755E+03
              0.956606072639566E+02
              0.450844050236211E+02
              0.124323789872593E+03
             -0.621711031692372E+02
             -0.267487157147183E+02
             -0.385156044785941E+02
              0.107499008017782E+03
 
 BEEF-vdW xc energy contributions
            1 :    -972.1532504016443     
            2 :     890.8918072708573     
            3 :    -752.2726735454380     
            4 :     593.1242221223457     
            5 :    -448.1367852622805     
            6 :     338.7529371872783     
            7 :    -269.7330110971179     
            8 :     232.2921433262486     
            9 :    -210.7870583246358     
           10 :     190.1508008149492     
           11 :    -161.6454049813069     
           12 :     124.9396212095037     
           13 :    -85.99846916080514     
           14 :     52.44067828606694     
           15 :    -29.19771307281371     
           16 :     16.57180047216707     
           17 :    -10.99778711127260     
           18 :     7.435975875170243     
           19 :    -1.958382123158344     
           20 :    -6.610576744019454     
           21 :     16.60229484524370     
           22 :    -24.88242217302513     
           23 :     28.89949927181362     
           24 :    -28.23589300540925     
           25 :     24.81593438253049     
           26 :    -21.76348660470126     
           27 :     21.66470789848211     
           28 :    -25.22042406711716     
           29 :     30.95409854979994     
           30 :    -36.05710758360783     
           31 :    -83.37182585889650     
           32 :    -59.93066174820581     

     Writing all to output data dir ./PbI2.save/
 
     init_run     :      4.25s CPU      7.39s WALL (       1 calls)
     electrons    :     40.43s CPU     42.30s WALL (       1 calls)
     forces       :      3.53s CPU      3.82s WALL (       1 calls)
     stress       :     41.75s CPU     42.34s WALL (       1 calls)

     Called by init_run:
     wfcinit      :      0.90s CPU      3.68s WALL (       1 calls)
     potinit      :      2.25s CPU      2.38s WALL (       1 calls)
     hinit0       :      0.47s CPU      0.50s WALL (       1 calls)

     Called by electrons:
     c_bands      :     34.03s CPU     35.09s WALL (       2 calls)
     sum_band     :      4.86s CPU      5.31s WALL (       2 calls)
     v_of_rho     :      2.40s CPU      2.54s WALL (       2 calls)
     v_h          :      0.01s CPU      0.02s WALL (       2 calls)
     v_xc         :     23.09s CPU     25.47s WALL (      38 calls)
     newd         :      0.81s CPU      1.14s WALL (       2 calls)
     PAW_pot      :      0.88s CPU      0.89s WALL (       2 calls)
     mix_rho      :      0.00s CPU      0.00s WALL (       2 calls)
     vdW_kernel   :      1.17s CPU      1.18s WALL (       1 calls)

     Called by c_bands:
     init_us_2    :      0.48s CPU      0.50s WALL (      24 calls)
     init_us_2:cp :      0.48s CPU      0.50s WALL (      24 calls)
     cegterg      :     33.28s CPU     34.12s WALL (       8 calls)

     Called by sum_band:
     sum_band:wei :      0.00s CPU      0.00s WALL (       2 calls)
     sum_band:loo :      3.91s CPU      3.95s WALL (       2 calls)
     sum_band:buf :      0.14s CPU      0.15s WALL (       8 calls)
     sum_band:ini :      0.18s CPU      0.18s WALL (       8 calls)
     sum_band:cal :      0.58s CPU      0.58s WALL (       8 calls)
     sum_band:bec :      0.01s CPU      0.01s WALL (       8 calls)
     addusdens    :      0.90s CPU      1.31s WALL (       2 calls)
     addusd:skk   :      0.01s CPU      0.03s WALL (       4 calls)
     addusd:dgemm :      0.51s CPU      0.89s WALL (       4 calls)
     addusd:qvan2 :      0.36s CPU      0.36s WALL (       4 calls)

     Called by *egterg:
     cdiaghg      :      6.68s CPU      6.70s WALL (      55 calls)
     cegterg:over :      2.95s CPU      2.99s WALL (      55 calls)
     cegterg:upda :      2.23s CPU      2.36s WALL (      55 calls)
     cegterg:last :      0.73s CPU      0.73s WALL (       8 calls)
     h_psi        :     17.75s CPU     18.03s WALL (      63 calls)
     s_psi        :      1.71s CPU      1.72s WALL (      63 calls)
     g_psi        :      0.09s CPU      0.09s WALL (      55 calls)

     Called by h_psi:
     h_psi:calbec :      1.87s CPU      1.88s WALL (      63 calls)
     vloc_psi     :     13.98s CPU     14.07s WALL (      63 calls)
     add_vuspsi   :      1.71s CPU      1.73s WALL (      63 calls)

     General routines
     calbec       :      4.38s CPU      4.40s WALL (      91 calls)
     fft          :     11.43s CPU     11.53s WALL (    2232 calls)
     ffts         :      0.02s CPU      0.02s WALL (       4 calls)
     fftw         :     16.10s CPU     16.21s WALL (    9672 calls)
     interpolate  :      0.03s CPU      0.03s WALL (       2 calls)
 
     Parallel routines

     PAW routines
     PAW_pot      :      0.88s CPU      0.89s WALL (       2 calls)
 
     PWSCF        :   1m50.74s CPU   2m 0.98s WALL

 
   This run was terminated on:   6:36:18  28Mar2024            

=------------------------------------------------------------------------------=
   JOB DONE.
=------------------------------------------------------------------------------=
