
     Program PWSCF v.7.1 starts on 24Apr2024 at  6:59:28 

     This program is part of the open-source Quantum ESPRESSO suite
     for quantum simulation of materials; please cite
         "P. Giannozzi et al., J. Phys.:Condens. Matter 21 395502 (2009);
         "P. Giannozzi et al., J. Phys.:Condens. Matter 29 465901 (2017);
         "P. Giannozzi et al., J. Chem. Phys. 152 154105 (2020);
          URL http://www.quantum-espresso.org", 
     in publications or presentations arising from this work. More details at
     http://www.quantum-espresso.org/quote

     Parallel version (MPI & OpenMP), running on     128 processor cores
     Number of MPI processes:               128
     Threads/MPI process:                     1

     MPI processes distributed on     1 nodes
     1993121 MiB available memory on the printing compute node when the environment starts
 
     Reading input from espresso.pwi
Warning: card &CELL ignored
Warning: card    CELL_DYNAMICS    = 'BFGS' ignored
Warning: card / ignored

     Current dimensions of program PWSCF are:
     Max number of different atomic species (ntypx) = 10
     Max number of k-points (npk) =  40000
     Max angular momentum in pseudopotentials (lmaxx) =  4
     file Pb.pbe-dn-kjpaw_psl.1.0.0.UPF: wavefunction(s)  6S 6P 5D renormalized
     file I.pbe-dn-kjpaw_psl.1.0.0.UPF: wavefunction(s)  5S 5P renormalized

     **************************************************************************
     Initializing libbeef V0.1.2 with the BEEF-vdW functional.
     Citation: Wellendorff et al., PRB 85, 235149 (2012).
     **************************************************************************


     IMPORTANT: XC functional enforced from input :
     Exchange-correlation= BEEF-VDW
                           (   1   4  43  14   2   0   0)
     Any further DFT definition will be discarded
     Please, verify this is what you really want

 
     R & G space division:  proc/nbgrp/npool/nimage =     128
     Subspace diagonalization in iterative solution of the eigenvalue problem:
     a serial algorithm will be used

 
     Parallelization info
     --------------------
     sticks:   dense  smooth     PW     G-vecs:    dense   smooth      PW
     Min         238     190     47                39674    28384    3543
     Max         239     191     48                39685    28397    3554
     Sum       30589   24439   6121              5079105  3634441  454335
 
     Using Slab Decomposition
 


     bravais-lattice index     =            4
     lattice parameter (alat)  =      35.6120  a.u.
     unit-cell volume          =   45937.3577 (a.u.)^3
     number of atoms/cell      =          144
     number of atomic types    =            2
     number of electrons       =      2310.00
     number of Kohn-Sham states=         1386
     kinetic-energy cutoff     =      70.0000  Ry
     charge density cutoff     =     350.0000  Ry
     scf convergence threshold =      1.0E-07
     mixing beta               =       0.7000
     number of iterations used =            8  plain     mixing
     energy convergence thresh.=      1.0E-04
     force convergence thresh. =      1.0E-03
     Exchange-correlation= BEEF-VDW
                           (   1   4  43  14   2   0   0)
     nstep                     =           50


     celldm(1)=  35.612033  celldm(2)=   0.000000  celldm(3)=   1.174479
     celldm(4)=   0.000000  celldm(5)=   0.000000  celldm(6)=   0.000000

     crystal axes: (cart. coord. in units of alat)
               a(1) = (   1.000000   0.000000   0.000000 )  
               a(2) = (  -0.500000   0.866025   0.000000 )  
               a(3) = (   0.000000   0.000000   1.174479 )  

     reciprocal axes: (cart. coord. in units 2 pi/alat)
               b(1) = (  1.000000  0.577350 -0.000000 )  
               b(2) = (  0.000000  1.154701  0.000000 )  
               b(3) = (  0.000000 -0.000000  0.851442 )  


     PseudoPot. # 1 for Pb read from file:
     //group///packages/espresso/pseudo/psl_1.0.0/pslibrary.1.0.0/pbe/PSEUDOPOTENTIALS/Pb.pbe-dn-kjpaw_psl.1.0.0.UPF
     MD5 check sum: 39ab5b8a6bbd56b7735ad9f188aac93a
     Pseudo is Projector augmented-wave + core cor, Zval = 14.0
     Generated using 'atomic' code by A. Dal Corso  v.7.1
     Shape of augmentation charge: PSQ
     Using radial grid of 1281 points,  6 beta functions with: 
                l(1) =   0
                l(2) =   0
                l(3) =   1
                l(4) =   1
                l(5) =   2
                l(6) =   2
     Q(r) pseudized with 0 coefficients 


     PseudoPot. # 2 for I  read from file:
     //group///packages/espresso/pseudo/psl_1.0.0/pslibrary.1.0.0/pbe/PSEUDOPOTENTIALS/I.pbe-dn-kjpaw_psl.1.0.0.UPF
     MD5 check sum: bfa8781bc1224d19af3f3980e3fab11e
     Pseudo is Projector augmented-wave + core cor, Zval = 17.0
     Generated using 'atomic' code by A. Dal Corso  v.7.1
     Shape of augmentation charge: PSQ
     Using radial grid of 1247 points,  6 beta functions with: 
                l(1) =   0
                l(2) =   0
                l(3) =   1
                l(4) =   1
                l(5) =   2
                l(6) =   2
     Q(r) pseudized with 0 coefficients 


     atomic species   valence    mass     pseudopotential
        Pb            14.00   207.20000     Pb( 1.00)
        I             17.00   126.90447     I ( 1.00)

     No symmetry found


                                    s                        frac. trans.

      isym =  1     identity                                     

 cryst.   s( 1) = (     1          0          0      )
                  (     0          1          0      )
                  (     0          0          1      )

 cart.    s( 1) = (  1.0000000  0.0000000  0.0000000 )
                  (  0.0000000  1.0000000  0.0000000 )
                  (  0.0000000  0.0000000  1.0000000 )


     point group C_1 (1)    
     there are  1 classes
     the character table:

       E    
A      1.00

     the symmetry operations in each class and the name of the first element:

     E        1
          identity                                               

   Cartesian axes

     site n.     atom                  positions (alat units)
         1           Pb  tau(   1) = (   0.1250034   0.2164918   0.3914896  )
         2           Pb  tau(   2) = (   0.1250085   0.2164873   0.7829825  )
         3           Pb  tau(   3) = (   0.0000128   0.4329881   1.1744712  )
         4           Pb  tau(   4) = (   0.0000026   0.4329971   0.3914855  )
         5           Pb  tau(   5) = (   0.0000077   0.4329926   0.7829784  )
         6           Pb  tau(   6) = (  -0.1249881   0.6494934   1.1744671  )
         7           Pb  tau(   7) = (  -0.1249983   0.6495025   0.3914814  )
         8           Pb  tau(   8) = (  -0.1249932   0.6494980   0.7829742  )
         9           Pb  tau(   9) = (  -0.2499889   0.8659988   1.1744630  )
        10           Pb  tau(  10) = (  -0.2499991   0.8660078   0.3914773  )
        11           Pb  tau(  11) = (  -0.2499940   0.8660033   0.7829701  )
        12           Pb  tau(  12) = (   0.3750136   0.2164818   1.1744786  )
        13           Pb  tau(  13) = (   0.3750034   0.2164908   0.3914929  )
        14           Pb  tau(  14) = (   0.3750085   0.2164863   0.7829857  )
        15           Pb  tau(  15) = (   0.2500128   0.4329871   1.1744745  )
        16           Pb  tau(  16) = (   0.2500026   0.4329962   0.3914888  )
        17           Pb  tau(  17) = (   0.2500077   0.4329916   0.7829816  )
        18           Pb  tau(  18) = (   0.1250119   0.6494925   1.1744703  )
        19           Pb  tau(  19) = (   0.1250017   0.6495015   0.3914847  )
        20           Pb  tau(  20) = (   0.1250068   0.6494970   0.7829775  )
        21           Pb  tau(  21) = (   0.0000111   0.8659978   1.1744662  )
        22           Pb  tau(  22) = (   0.0000009   0.8660069   0.3914805  )
        23           Pb  tau(  23) = (   0.0000060   0.8660024   0.7829734  )
        24           Pb  tau(  24) = (   0.6250136   0.2164808   1.1744818  )
        25           Pb  tau(  25) = (   0.6250034   0.2164898   0.3914962  )
        26           Pb  tau(  26) = (   0.6250085   0.2164853   0.7829890  )
        27           Pb  tau(  27) = (   0.5000128   0.4329862   1.1744777  )
        28           Pb  tau(  28) = (   0.5000026   0.4329952   0.3914920  )
        29           Pb  tau(  29) = (   0.5000077   0.4329907   0.7829849  )
        30           Pb  tau(  30) = (   0.3750119   0.6494915   1.1744736  )
        31           Pb  tau(  31) = (   0.3750017   0.6495006   0.3914879  )
        32           Pb  tau(  32) = (   0.3750068   0.6494960   0.7829808  )
        33           Pb  tau(  33) = (   0.2500111   0.8659969   1.1744695  )
        34           Pb  tau(  34) = (   0.2500009   0.8660059   0.3914838  )
        35           Pb  tau(  35) = (   0.2500060   0.8660014   0.7829766  )
        36           Pb  tau(  36) = (   0.8750136   0.2164798   1.1744851  )
        37           Pb  tau(  37) = (   0.8750034   0.2164889   0.3914994  )
        38           Pb  tau(  38) = (   0.8750085   0.2164844   0.7829923  )
        39           Pb  tau(  39) = (   0.7500128   0.4329852   1.1744810  )
        40           Pb  tau(  40) = (   0.7500026   0.4329942   0.3914953  )
        41           Pb  tau(  41) = (   0.7500077   0.4329897   0.7829881  )
        42           Pb  tau(  42) = (   0.6250119   0.6494906   1.1744769  )
        43           Pb  tau(  43) = (   0.6250017   0.6494996   0.3914912  )
        44           Pb  tau(  44) = (   0.6250068   0.6494951   0.7829840  )
        45           Pb  tau(  45) = (   0.5000111   0.8659959   1.1744727  )
        46           Pb  tau(  46) = (   0.5000009   0.8660050   0.3914870  )
        47           Pb  tau(  47) = (   0.5000060   0.8660004   0.7829799  )
        48           I   tau(  48) = (   0.1250054   0.0721550   0.2909325  )
        49           I   tau(  49) = (   0.1250105   0.0721505   0.6824253  )
        50           I   tau(  50) = (   0.1250156   0.0721459   1.0739182  )
        51           I   tau(  51) = (   0.0000045   0.2886603   0.2909283  )
        52           I   tau(  52) = (   0.0000096   0.2886558   0.6824212  )
        53           I   tau(  53) = (   0.0000147   0.2886513   1.0739140  )
        54           I   tau(  54) = (  -0.1249963   0.5051657   0.2909242  )
        55           I   tau(  55) = (  -0.1249912   0.5051612   0.6824171  )
        56           I   tau(  56) = (  -0.1249861   0.5051566   1.0739099  )
        57           I   tau(  57) = (  -0.2499971   0.7216710   0.2909201  )
        58           I   tau(  58) = (  -0.2499920   0.7216665   0.6824129  )
        59           I   tau(  59) = (  -0.2499869   0.7216620   1.0739058  )
        60           I   tau(  60) = (   0.3750054   0.0721540   0.2909357  )
        61           I   tau(  61) = (   0.3750105   0.0721495   0.6824286  )
        62           I   tau(  62) = (   0.3750156   0.0721450   1.0739214  )
        63           I   tau(  63) = (   0.2500045   0.2886594   0.2909316  )
        64           I   tau(  64) = (   0.2500096   0.2886548   0.6824244  )
        65           I   tau(  65) = (   0.2500147   0.2886503   1.0739173  )
        66           I   tau(  66) = (   0.1250037   0.5051647   0.2909275  )
        67           I   tau(  67) = (   0.1250088   0.5051602   0.6824203  )
        68           I   tau(  68) = (   0.1250139   0.5051557   1.0739132  )
        69           I   tau(  69) = (   0.0000029   0.7216701   0.2909233  )
        70           I   tau(  70) = (   0.0000080   0.7216656   0.6824162  )
        71           I   tau(  71) = (   0.0000131   0.7216610   1.0739090  )
        72           I   tau(  72) = (   0.6250054   0.0721530   0.2909390  )
        73           I   tau(  73) = (   0.6250105   0.0721485   0.6824318  )
        74           I   tau(  74) = (   0.6250156   0.0721440   1.0739247  )
        75           I   tau(  75) = (   0.5000045   0.2886584   0.2909348  )
        76           I   tau(  76) = (   0.5000096   0.2886539   0.6824277  )
        77           I   tau(  77) = (   0.5000147   0.2886494   1.0739205  )
        78           I   tau(  78) = (   0.3750037   0.5051638   0.2909307  )
        79           I   tau(  79) = (   0.3750088   0.5051592   0.6824236  )
        80           I   tau(  80) = (   0.3750139   0.5051547   1.0739164  )
        81           I   tau(  81) = (   0.2500029   0.7216691   0.2909266  )
        82           I   tau(  82) = (   0.2500080   0.7216646   0.6824194  )
        83           I   tau(  83) = (   0.2500131   0.7216601   1.0739123  )
        84           I   tau(  84) = (   0.8750054   0.0721521   0.2909422  )
        85           I   tau(  85) = (   0.8750105   0.0721476   0.6824351  )
        86           I   tau(  86) = (   0.8750156   0.0721430   1.0739279  )
        87           I   tau(  87) = (   0.7500045   0.2886574   0.2909381  )
        88           I   tau(  88) = (   0.7500096   0.2886529   0.6824310  )
        89           I   tau(  89) = (   0.7500147   0.2886484   1.0739238  )
        90           I   tau(  90) = (   0.6250037   0.5051628   0.2909340  )
        91           I   tau(  91) = (   0.6250088   0.5051583   0.6824268  )
        92           I   tau(  92) = (   0.6250139   0.5051538   1.0739197  )
        93           I   tau(  93) = (   0.5000029   0.7216681   0.2909299  )
        94           I   tau(  94) = (   0.5000080   0.7216636   0.6824227  )
        95           I   tau(  95) = (   0.5000131   0.7216591   1.0739156  )
        96           I   tau(  96) = (  -0.0000017   0.1443297   0.1005555  )
        97           I   tau(  97) = (   0.0000034   0.1443252   0.4920483  )
        98           I   tau(  98) = (   0.0000085   0.1443207   0.8835412  )
        99           I   tau(  99) = (  -0.1250025   0.3608351   0.1005514  )
       100           I   tau( 100) = (  -0.1249974   0.3608306   0.4920442  )
       101           I   tau( 101) = (  -0.1249923   0.3608260   0.8835371  )
       102           I   tau( 102) = (  -0.2500034   0.5773404   0.1005472  )
       103           I   tau( 103) = (  -0.2499983   0.5773359   0.4920401  )
       104           I   tau( 104) = (  -0.2499932   0.5773314   0.8835329  )
       105           I   tau( 105) = (  -0.3750042   0.7938458   0.1005431  )
       106           I   tau( 106) = (  -0.3749991   0.7938413   0.4920360  )
       107           I   tau( 107) = (  -0.3749940   0.7938368   0.8835288  )
       108           I   tau( 108) = (   0.2499983   0.1443288   0.1005587  )
       109           I   tau( 109) = (   0.2500034   0.1443242   0.4920516  )
       110           I   tau( 110) = (   0.2500085   0.1443197   0.8835444  )
       111           I   tau( 111) = (   0.1249975   0.3608341   0.1005546  )
       112           I   tau( 112) = (   0.1250026   0.3608296   0.4920475  )
       113           I   tau( 113) = (   0.1250077   0.3608251   0.8835403  )
       114           I   tau( 114) = (  -0.0000034   0.5773395   0.1005505  )
       115           I   tau( 115) = (   0.0000017   0.5773350   0.4920433  )
       116           I   tau( 116) = (   0.0000068   0.5773304   0.8835362  )
       117           I   tau( 117) = (  -0.1250042   0.7938448   0.1005464  )
       118           I   tau( 118) = (  -0.1249991   0.7938403   0.4920392  )
       119           I   tau( 119) = (  -0.1249940   0.7938358   0.8835321  )
       120           I   tau( 120) = (   0.4999983   0.1443278   0.1005620  )
       121           I   tau( 121) = (   0.5000034   0.1443233   0.4920548  )
       122           I   tau( 122) = (   0.5000085   0.1443188   0.8835477  )
       123           I   tau( 123) = (   0.3749975   0.3608332   0.1005579  )
       124           I   tau( 124) = (   0.3750026   0.3608286   0.4920507  )
       125           I   tau( 125) = (   0.3750077   0.3608241   0.8835436  )
       126           I   tau( 126) = (   0.2499966   0.5773385   0.1005537  )
       127           I   tau( 127) = (   0.2500017   0.5773340   0.4920466  )
       128           I   tau( 128) = (   0.2500068   0.5773295   0.8835394  )
       129           I   tau( 129) = (   0.1249958   0.7938439   0.1005496  )
       130           I   tau( 130) = (   0.1250009   0.7938394   0.4920425  )
       131           I   tau( 131) = (   0.1250060   0.7938348   0.8835353  )
       132           I   tau( 132) = (   0.7499983   0.1443268   0.1005653  )
       133           I   tau( 133) = (   0.7500034   0.1443223   0.4920581  )
       134           I   tau( 134) = (   0.7500085   0.1443178   0.8835509  )
       135           I   tau( 135) = (   0.6249975   0.3608322   0.1005611  )
       136           I   tau( 136) = (   0.6250026   0.3608277   0.4920540  )
       137           I   tau( 137) = (   0.6250077   0.3608232   0.8835468  )
       138           I   tau( 138) = (   0.4999966   0.5773376   0.1005570  )
       139           I   tau( 139) = (   0.5000017   0.5773330   0.4920499  )
       140           I   tau( 140) = (   0.5000068   0.5773285   0.8835427  )
       141           I   tau( 141) = (   0.3749958   0.7938429   0.1005529  )
       142           I   tau( 142) = (   0.3750009   0.7938384   0.4920457  )
       143           I   tau( 143) = (   0.3750060   0.7938339   0.8835386  )
       144           I   tau( 144) = (   0.1250136   0.2164827   1.1744753  )

   Crystallographic axes

     site n.     atom                  positions (cryst. coord.)
         1           Pb  tau(   1) = (  0.2499950  0.2499832  0.3333306  )
         2           Pb  tau(   2) = (  0.2499975  0.2499780  0.6666639  )
         3           Pb  tau(   3) = (  0.2499986  0.4999716  0.9999938  )
         4           Pb  tau(   4) = (  0.2499936  0.4999820  0.3333271  )
         5           Pb  tau(   5) = (  0.2499961  0.4999768  0.6666604  )
         6           Pb  tau(   6) = (  0.2499972  0.7499704  0.9999902  )
         7           Pb  tau(   7) = (  0.2499922  0.7499809  0.3333236  )
         8           Pb  tau(   8) = (  0.2499947  0.7499757  0.6666569  )
         9           Pb  tau(   9) = (  0.2499957  0.9999693  0.9999867  )
        10           Pb  tau(  10) = (  0.2499908  0.9999797  0.3333201  )
        11           Pb  tau(  11) = (  0.2499932  0.9999745  0.6666534  )
        12           Pb  tau(  12) = (  0.4999994  0.2499716  1.0000000  )
        13           Pb  tau(  13) = (  0.4999944  0.2499821  0.3333334  )
        14           Pb  tau(  14) = (  0.4999969  0.2499768  0.6666667  )
        15           Pb  tau(  15) = (  0.4999980  0.4999705  0.9999965  )
        16           Pb  tau(  16) = (  0.4999930  0.4999809  0.3333299  )
        17           Pb  tau(  17) = (  0.4999955  0.4999757  0.6666632  )
        18           Pb  tau(  18) = (  0.4999966  0.7499693  0.9999930  )
        19           Pb  tau(  19) = (  0.4999916  0.7499798  0.3333264  )
        20           Pb  tau(  20) = (  0.4999941  0.7499745  0.6666597  )
        21           Pb  tau(  21) = (  0.4999952  0.9999682  0.9999895  )
        22           Pb  tau(  22) = (  0.4999902  0.9999786  0.3333228  )
        23           Pb  tau(  23) = (  0.4999927  0.9999734  0.6666562  )
        24           Pb  tau(  24) = (  0.7499989  0.2499705  1.0000028  )
        25           Pb  tau(  25) = (  0.7499939  0.2499809  0.3333362  )
        26           Pb  tau(  26) = (  0.7499964  0.2499757  0.6666695  )
        27           Pb  tau(  27) = (  0.7499975  0.4999694  0.9999993  )
        28           Pb  tau(  28) = (  0.7499925  0.4999798  0.3333326  )
        29           Pb  tau(  29) = (  0.7499950  0.4999746  0.6666660  )
        30           Pb  tau(  30) = (  0.7499960  0.7499682  0.9999958  )
        31           Pb  tau(  31) = (  0.7499910  0.7499786  0.3333291  )
        32           Pb  tau(  32) = (  0.7499935  0.7499734  0.6666625  )
        33           Pb  tau(  33) = (  0.7499946  0.9999671  0.9999923  )
        34           Pb  tau(  34) = (  0.7499896  0.9999775  0.3333256  )
        35           Pb  tau(  35) = (  0.7499921  0.9999723  0.6666590  )
        36           Pb  tau(  36) = (  0.9999983  0.2499694  1.0000056  )
        37           Pb  tau(  37) = (  0.9999933  0.2499798  0.3333389  )
        38           Pb  tau(  38) = (  0.9999958  0.2499746  0.6666723  )
        39           Pb  tau(  39) = (  0.9999969  0.4999682  1.0000021  )
        40           Pb  tau(  40) = (  0.9999919  0.4999787  0.3333354  )
        41           Pb  tau(  41) = (  0.9999944  0.4999735  0.6666687  )
        42           Pb  tau(  42) = (  0.9999955  0.7499671  0.9999986  )
        43           Pb  tau(  43) = (  0.9999905  0.7499775  0.3333319  )
        44           Pb  tau(  44) = (  0.9999930  0.7499723  0.6666652  )
        45           Pb  tau(  45) = (  0.9999941  0.9999659  0.9999951  )
        46           Pb  tau(  46) = (  0.9999891  0.9999764  0.3333284  )
        47           Pb  tau(  47) = (  0.9999916  0.9999712  0.6666617  )
        48           I   tau(  48) = (  0.1666641  0.0833174  0.2477120  )
        49           I   tau(  49) = (  0.1666666  0.0833122  0.5810454  )
        50           I   tau(  50) = (  0.1666691  0.0833070  0.9143787  )
        51           I   tau(  51) = (  0.1666626  0.3333162  0.2477085  )
        52           I   tau(  52) = (  0.1666651  0.3333110  0.5810418  )
        53           I   tau(  53) = (  0.1666676  0.3333058  0.9143752  )
        54           I   tau(  54) = (  0.1666612  0.5833151  0.2477050  )
        55           I   tau(  55) = (  0.1666637  0.5833099  0.5810383  )
        56           I   tau(  56) = (  0.1666662  0.5833047  0.9143717  )
        57           I   tau(  57) = (  0.1666598  0.8333139  0.2477015  )
        58           I   tau(  58) = (  0.1666623  0.8333087  0.5810348  )
        59           I   tau(  59) = (  0.1666648  0.8333035  0.9143682  )
        60           I   tau(  60) = (  0.4166635  0.0833163  0.2477148  )
        61           I   tau(  61) = (  0.4166660  0.0833111  0.5810481  )
        62           I   tau(  62) = (  0.4166685  0.0833058  0.9143815  )
        63           I   tau(  63) = (  0.4166621  0.3333151  0.2477113  )
        64           I   tau(  64) = (  0.4166646  0.3333099  0.5810446  )
        65           I   tau(  65) = (  0.4166671  0.3333047  0.9143780  )
        66           I   tau(  66) = (  0.4166607  0.5833140  0.2477078  )
        67           I   tau(  67) = (  0.4166632  0.5833088  0.5810411  )
        68           I   tau(  68) = (  0.4166657  0.5833035  0.9143744  )
        69           I   tau(  69) = (  0.4166593  0.8333128  0.2477043  )
        70           I   tau(  70) = (  0.4166618  0.8333076  0.5810376  )
        71           I   tau(  71) = (  0.4166643  0.8333024  0.9143709  )
        72           I   tau(  72) = (  0.6666629  0.0833152  0.2477176  )
        73           I   tau(  73) = (  0.6666654  0.0833099  0.5810509  )
        74           I   tau(  74) = (  0.6666679  0.0833047  0.9143842  )
        75           I   tau(  75) = (  0.6666615  0.3333140  0.2477141  )
        76           I   tau(  76) = (  0.6666640  0.3333088  0.5810474  )
        77           I   tau(  77) = (  0.6666665  0.3333036  0.9143807  )
        78           I   tau(  78) = (  0.6666601  0.5833129  0.2477106  )
        79           I   tau(  79) = (  0.6666626  0.5833076  0.5810439  )
        80           I   tau(  80) = (  0.6666651  0.5833024  0.9143772  )
        81           I   tau(  81) = (  0.6666587  0.8333117  0.2477070  )
        82           I   tau(  82) = (  0.6666612  0.8333065  0.5810404  )
        83           I   tau(  83) = (  0.6666637  0.8333013  0.9143737  )
        84           I   tau(  84) = (  0.9166624  0.0833141  0.2477203  )
        85           I   tau(  85) = (  0.9166649  0.0833088  0.5810537  )
        86           I   tau(  86) = (  0.9166674  0.0833036  0.9143870  )
        87           I   tau(  87) = (  0.9166610  0.3333129  0.2477168  )
        88           I   tau(  88) = (  0.9166635  0.3333077  0.5810502  )
        89           I   tau(  89) = (  0.9166660  0.3333025  0.9143835  )
        90           I   tau(  90) = (  0.9166596  0.5833118  0.2477133  )
        91           I   tau(  91) = (  0.9166621  0.5833065  0.5810467  )
        92           I   tau(  92) = (  0.9166646  0.5833013  0.9143800  )
        93           I   tau(  93) = (  0.9166582  0.8333106  0.2477098  )
        94           I   tau(  94) = (  0.9166607  0.8333054  0.5810431  )
        95           I   tau(  95) = (  0.9166632  0.8333002  0.9143765  )
        96           I   tau(  96) = (  0.0833271  0.1666576  0.0856171  )
        97           I   tau(  97) = (  0.0833296  0.1666524  0.4189505  )
        98           I   tau(  98) = (  0.0833321  0.1666472  0.7522838  )
        99           I   tau(  99) = (  0.0833257  0.4166565  0.0856136  )
       100           I   tau( 100) = (  0.0833282  0.4166513  0.4189470  )
       101           I   tau( 101) = (  0.0833307  0.4166460  0.7522803  )
       102           I   tau( 102) = (  0.0833243  0.6666553  0.0856101  )
       103           I   tau( 103) = (  0.0833268  0.6666501  0.4189434  )
       104           I   tau( 104) = (  0.0833293  0.6666449  0.7522768  )
       105           I   tau( 105) = (  0.0833229  0.9166542  0.0856066  )
       106           I   tau( 106) = (  0.0833254  0.9166489  0.4189399  )
       107           I   tau( 107) = (  0.0833279  0.9166437  0.7522733  )
       108           I   tau( 108) = (  0.3333265  0.1666565  0.0856199  )
       109           I   tau( 109) = (  0.3333290  0.1666513  0.4189532  )
       110           I   tau( 110) = (  0.3333315  0.1666461  0.7522866  )
       111           I   tau( 111) = (  0.3333251  0.4166554  0.0856164  )
       112           I   tau( 112) = (  0.3333276  0.4166501  0.4189497  )
       113           I   tau( 113) = (  0.3333301  0.4166449  0.7522831  )
       114           I   tau( 114) = (  0.3333237  0.6666542  0.0856129  )
       115           I   tau( 115) = (  0.3333262  0.6666490  0.4189462  )
       116           I   tau( 116) = (  0.3333287  0.6666438  0.7522795  )
       117           I   tau( 117) = (  0.3333223  0.9166531  0.0856094  )
       118           I   tau( 118) = (  0.3333248  0.9166478  0.4189427  )
       119           I   tau( 119) = (  0.3333273  0.9166426  0.7522760  )
       120           I   tau( 120) = (  0.5833260  0.1666554  0.0856227  )
       121           I   tau( 121) = (  0.5833285  0.1666502  0.4189560  )
       122           I   tau( 122) = (  0.5833310  0.1666450  0.7522893  )
       123           I   tau( 123) = (  0.5833246  0.4166542  0.0856192  )
       124           I   tau( 124) = (  0.5833271  0.4166490  0.4189525  )
       125           I   tau( 125) = (  0.5833296  0.4166438  0.7522858  )
       126           I   tau( 126) = (  0.5833232  0.6666531  0.0856157  )
       127           I   tau( 127) = (  0.5833257  0.6666479  0.4189490  )
       128           I   tau( 128) = (  0.5833282  0.6666427  0.7522823  )
       129           I   tau( 129) = (  0.5833218  0.9166519  0.0856121  )
       130           I   tau( 130) = (  0.5833243  0.9166467  0.4189455  )
       131           I   tau( 131) = (  0.5833268  0.9166415  0.7522788  )
       132           I   tau( 132) = (  0.8333254  0.1666543  0.0856254  )
       133           I   tau( 133) = (  0.8333279  0.1666491  0.4189588  )
       134           I   tau( 134) = (  0.8333304  0.1666438  0.7522921  )
       135           I   tau( 135) = (  0.8333240  0.4166531  0.0856219  )
       136           I   tau( 136) = (  0.8333265  0.4166479  0.4189553  )
       137           I   tau( 137) = (  0.8333290  0.4166427  0.7522886  )
       138           I   tau( 138) = (  0.8333226  0.6666520  0.0856184  )
       139           I   tau( 139) = (  0.8333251  0.6666468  0.4189518  )
       140           I   tau( 140) = (  0.8333276  0.6666415  0.7522851  )
       141           I   tau( 141) = (  0.8333212  0.9166508  0.0856149  )
       142           I   tau( 142) = (  0.8333237  0.9166456  0.4189482  )
       143           I   tau( 143) = (  0.8333262  0.9166404  0.7522816  )
       144           I   tau( 144) = (  0.2500000  0.2499727  0.9999973  )

     number of k points=     1  Gaussian smearing, width (Ry)=  0.0100
                       cart. coord. in units 2pi/alat
        k(    1) = (   0.0000000   0.0000000   0.0000000), wk =   2.0000000

                       cryst. coord.
        k(    1) = (   0.0000000   0.0000000   0.0000000), wk =   2.0000000

     Dense  grid:  5079105 G-vectors     FFT dimensions: ( 216, 216, 250)

     Smooth grid:  3634441 G-vectors     FFT dimensions: ( 192, 192, 225)

     Dynamical RAM for                 wfc:      75.06 MB

     Dynamical RAM for     wfc (w. buffer):      75.06 MB

     Dynamical RAM for           str. fact:       1.21 MB

     Dynamical RAM for           local pot:       0.00 MB

     Dynamical RAM for          nlocal pot:     140.37 MB

     Dynamical RAM for                qrad:       3.00 MB

     Dynamical RAM for          rho,v,vnew:       3.95 MB

     Dynamical RAM for               rhoin:       1.32 MB

     Dynamical RAM for            rho*nmix:       9.69 MB

     Dynamical RAM for           G-vectors:       2.49 MB

     Dynamical RAM for          h,s,v(r/c):    1406.98 MB

     Dynamical RAM for          <psi|beta>:      54.82 MB

     Dynamical RAM for                 psi:     300.23 MB

     Dynamical RAM for                hpsi:     300.23 MB

     Dynamical RAM for                spsi:     300.23 MB

     Dynamical RAM for      wfcinit/wfcrot:     194.09 MB

     Dynamical RAM for           addusdens:     171.33 MB

     Dynamical RAM for          addusforce:     288.25 MB

     Dynamical RAM for         addusstress:     121.69 MB

     Estimated static dynamical RAM per process >     232.77 MB

     Estimated max dynamical RAM per process >       2.54 GB

     Estimated total dynamical RAM >     325.62 GB

     Atomic positions and unit cell read from directory:
     ./PbI2.save/
     Atomic positions from file used, from input discarded
 

     Check: negative core charge=   -0.000001

     The initial density is read from file :
     ./PbI2.save/charge-density



     %%%%%%%%%%%%%%%%%%%%%%%%%%%%%%%%%%%%%%%%%%%%%%%%%%%%%%%%%%%%%%%%%%%%%%%%
     %                                                                      %
     % You are using vdW-DF, which was implemented by the Thonhauser group. %
     % Please cite the following two papers that made this development      %
     % possible and the two reviews that describe the various versions:     %
     %                                                                      %
     %   T. Thonhauser et al., PRL 115, 136402 (2015).                      %
     %   T. Thonhauser et al., PRB 76, 125112 (2007).                       %
     %   K. Berland et al., Rep. Prog. Phys. 78, 066501 (2015).             %
     %   D.C. Langreth et al., J. Phys.: Condens. Matter 21, 084203 (2009). %
     %                                                                      %
     % If you are calculating stress with vdW-DF, please also cite:         %
     %                                                                      %
     %   R. Sabatini et al., J. Phys.: Condens. Matter 24, 424209 (2012).   %
     %                                                                      %
     %%%%%%%%%%%%%%%%%%%%%%%%%%%%%%%%%%%%%%%%%%%%%%%%%%%%%%%%%%%%%%%%%%%%%%%%

     %%%%%%%%%%%%%%%%%%%%%%%%%%%%%%%%%%%%%%%%%%%%%%%%%%%%%%%%%%%%%%%%%%%%%%%%
     %                                                                      %
     %  vdW-DF NEWS:                                                        %
     %                                                                      %
     %  * vdW-DF3 is now available. DOI: 10.1021/acs.jctc.0c00471           %
     %    use with input_dft = 'vdW-DF3-opt1' or 'vdW-DF3-opt2'             %
     %                                                                      %
     %  * Unscreened and range-separated vdW-DF hybrid functionals          %
     %    DOI: 10.1063/1.4986522 and 10.1088/1361-648X/ac2ad2               %
     %    use with input_dft = 'vdW-DF-cx0' (etc) and 'vdW-DF-ahcx'         %
     %                                                                      %
     %%%%%%%%%%%%%%%%%%%%%%%%%%%%%%%%%%%%%%%%%%%%%%%%%%%%%%%%%%%%%%%%%%%%%%%%


     Carrying out vdW-DF run using the following parameters:
     Nqs    =  20  Npoints =  1024  r_max =  100.000
     q_mesh =  0.00001000  0.04494208  0.09755937  0.15916263
               0.23128650  0.31572767  0.41458969  0.53033537
               0.66584808  0.82450364  1.01025438  1.22772762
               1.48234092  1.78043706  2.12944203  2.53805004
               3.01644009  3.57652955  4.23227104  5.00000000


     -----------------------------------------------
     Non-local corr. energy    =      69.32920017 Ry
     -----------------------------------------------

     Starting wfcs from file
     Checking if some PAW data can be deallocated... 
       PAW data deallocated on   97 nodes for type:  1
       PAW data deallocated on   31 nodes for type:  2
     Calculation restarted from scf iteration #     7

     total cpu time spent up to now is       12.1 secs

     Self-consistent Calculation

     iteration #  7     ecut=    70.00 Ry     beta= 0.70
     Calculation restarted from end of k-point loop
     Davidson diagonalization with overlap

---- Real-time Memory Report at c_bands before calling an iterative solver
           451 MiB given to the printing process from OS
             0 MiB allocation reported by mallinfo(arena+hblkhd)
       1948507 MiB available memory on the node where the printing process lives
------------------
     ethr =  1.74E-10,  avg # of iterations = 15.0


     -----------------------------------------------
     Non-local corr. energy    =      69.32927831 Ry
     -----------------------------------------------


     total cpu time spent up to now is       23.1 secs

     total energy              =  -96800.34597095 Ry
     estimated scf accuracy    <       0.00000075 Ry

     iteration #  8     ecut=    70.00 Ry     beta= 0.70
     Davidson diagonalization with overlap

---- Real-time Memory Report at c_bands before calling an iterative solver
           717 MiB given to the printing process from OS
             0 MiB allocation reported by mallinfo(arena+hblkhd)
       1941293 MiB available memory on the node where the printing process lives
------------------
     ethr =  3.25E-11,  avg # of iterations = 17.0


     -----------------------------------------------
     Non-local corr. energy    =      69.32930885 Ry
     -----------------------------------------------


     total cpu time spent up to now is      753.5 secs

     total energy              =  -96800.34597114 Ry
     estimated scf accuracy    <       0.00000013 Ry

     iteration #  9     ecut=    70.00 Ry     beta= 0.70
     Davidson diagonalization with overlap

---- Real-time Memory Report at c_bands before calling an iterative solver
          2083 MiB given to the printing process from OS
             0 MiB allocation reported by mallinfo(arena+hblkhd)
       1924132 MiB available memory on the node where the printing process lives
------------------
     ethr =  5.53E-12,  avg # of iterations = 15.0


     -----------------------------------------------
     Non-local corr. energy    =      69.32934258 Ry
     -----------------------------------------------


     total cpu time spent up to now is     1435.5 secs

     End of self-consistent calculation

          k = 0.0000 0.0000 0.0000 (454335 PWs)   bands (ev):

   -41.0568 -41.0568 -41.0568 -41.0568 -41.0567 -41.0567 -41.0563 -41.0563
   -41.0563 -41.0562 -41.0562 -41.0561 -41.0517 -41.0517 -41.0517 -41.0516
   -41.0516 -41.0515 -41.0476 -41.0475 -41.0475 -41.0475 -41.0475 -41.0474
   -41.0463 -41.0463 -41.0463 -41.0463 -41.0462 -41.0461 -41.0444 -41.0444
   -41.0444 -41.0444 -41.0444 -41.0443 -41.0441 -41.0441 -41.0441 -41.0441
   -41.0441 -41.0441 -41.0423 -41.0423 -41.0423 -41.0423 -41.0410 -41.0410
   -41.0410 -41.0410 -41.0410 -41.0410 -41.0408 -41.0408 -41.0408 -41.0408
   -41.0408 -41.0408 -41.0396 -41.0396 -41.0396 -41.0396 -41.0391 -41.0391
   -41.0391 -41.0391 -41.0390 -41.0390 -41.0379 -41.0378 -41.0370 -41.0370
   -41.0370 -41.0370 -41.0370 -41.0370 -41.0370 -41.0370 -41.0370 -41.0369
   -41.0369 -41.0369 -41.0368 -41.0368 -41.0368 -41.0368 -41.0368 -41.0368
   -41.0368 -41.0368 -41.0368 -41.0368 -41.0368 -41.0368 -41.0348 -41.0348
   -41.0348 -41.0348 -41.0348 -41.0348 -41.0348 -41.0348 -41.0348 -41.0347
   -41.0347 -41.0347 -41.0345 -41.0345 -41.0345 -41.0344 -41.0344 -41.0344
   -41.0344 -41.0344 -41.0344 -41.0344 -41.0344 -41.0344 -41.0337 -41.0337
   -41.0337 -41.0337 -41.0336 -41.0336 -41.0335 -41.0335 -41.0335 -41.0335
   -41.0335 -41.0335 -41.0331 -41.0331 -41.0331 -41.0331 -41.0331 -41.0330
   -41.0330 -41.0330 -41.0330 -41.0330 -41.0330 -41.0330 -41.0324 -41.0324
   -41.0324 -41.0324 -41.0324 -41.0323 -41.0322 -41.0321 -41.0321 -41.0321
   -41.0321 -41.0321 -41.0314 -41.0314 -41.0314 -41.0314 -41.0313 -41.0313
   -41.0309 -41.0309 -41.0309 -41.0309 -41.0309 -41.0308 -41.0303 -41.0303
   -41.0303 -41.0303 -41.0303 -41.0303 -41.0303 -41.0302 -41.0302 -41.0302
   -41.0302 -41.0302 -41.0302 -41.0301 -41.0301 -41.0301 -41.0301 -41.0301
   -41.0298 -41.0298 -41.0297 -41.0297 -41.0297 -41.0297 -41.0294 -41.0294
   -41.0293 -41.0293 -41.0293 -41.0293 -41.0290 -41.0290 -41.0290 -41.0289
   -41.0289 -41.0289 -41.0279 -41.0279 -41.0279 -41.0278 -41.0278 -41.0278
   -41.0278 -41.0278 -41.0278 -41.0277 -41.0277 -41.0277 -41.0277 -41.0277
   -41.0277 -41.0276 -41.0276 -41.0276 -41.0131 -41.0131 -41.0131 -41.0131
   -41.0130 -41.0130 -41.0118 -41.0118 -41.0118 -41.0118 -41.0118 -41.0118
   -41.0118 -41.0118 -41.0118 -41.0117 -41.0117 -41.0117 -41.0102 -41.0102
   -41.0102 -41.0102 -41.0102 -41.0102 -41.0101 -41.0101 -41.0101 -41.0101
   -41.0101 -41.0101 -41.0097 -41.0096 -41.0096 -41.0096 -41.0096 -41.0096
   -41.0092 -41.0092 -41.0092 -41.0092 -41.0092 -41.0092 -41.0091 -41.0091
   -41.0091 -41.0090 -41.0090 -41.0090 -41.0090 -41.0090 -41.0090 -41.0090
   -41.0090 -41.0090 -41.0087 -41.0087 -41.0087 -41.0087 -41.0086 -41.0086
   -41.0086 -41.0086 -41.0086 -41.0086 -41.0086 -41.0086 -41.0073 -41.0073
   -41.0073 -41.0073 -41.0073 -41.0073 -41.0072 -41.0072 -41.0072 -41.0072
   -41.0072 -41.0072 -41.0067 -41.0067 -41.0067 -41.0067 -41.0067 -41.0067
   -41.0066 -41.0066 -41.0066 -41.0066 -41.0066 -41.0066 -40.9259 -40.9258
   -40.9250 -40.9250 -40.9250 -40.9250 -40.9218 -40.9218 -40.9218 -40.9218
   -40.4654 -40.4653 -40.4653 -40.4652 -40.4652 -40.4652 -40.4645 -40.4644
   -40.4644 -40.4644 -40.4644 -40.4643 -40.4616 -40.4616 -40.4615 -40.4615
   -40.4591 -40.4591 -40.4590 -40.4590 -40.4577 -40.4576 -40.4566 -40.4564
   -40.4564 -40.4564 -40.4564 -40.4563 -40.4484 -40.4483 -40.4483 -40.4483
   -40.4483 -40.4482 -40.4474 -40.4473 -40.4473 -40.4473 -40.4473 -40.4472
   -40.4095 -40.4095 -40.4095 -40.4095 -40.4095 -40.4095 -40.4084 -40.4084
   -40.4084 -40.4084 -40.4084 -40.4084 -40.4069 -40.4069 -40.4069 -40.4068
   -40.4068 -40.4068 -40.4039 -40.4039 -40.4039 -40.4039 -40.4039 -40.4038
   -40.4031 -40.4031 -40.4031 -40.4031 -40.4031 -40.4031 -40.3255 -40.3255
   -40.3255 -40.3255 -40.3254 -40.3254 -40.3254 -40.3254 -40.3254 -40.3254
   -40.3254 -40.3254 -40.3237 -40.3237 -40.3236 -40.3236 -40.3236 -40.3236
   -40.3236 -40.3236 -40.3236 -40.3236 -40.3235 -40.3235 -40.3055 -40.3055
   -40.3054 -40.3054 -40.3054 -40.3054 -40.3054 -40.3054 -40.3054 -40.3054
   -40.3053 -40.3053 -40.2956 -40.2956 -40.2955 -40.2955 -40.2955 -40.2955
   -40.2955 -40.2955 -40.2955 -40.2954 -40.2954 -40.2954 -40.2924 -40.2924
   -40.2924 -40.2924 -40.2923 -40.2923 -40.2923 -40.2923 -40.2923 -40.2923
   -40.2923 -40.2923 -39.9033 -39.9033 -39.9032 -39.9032 -39.9031 -39.9030
   -39.9022 -39.9021 -39.9020 -39.9020 -39.9019 -39.9019 -39.8214 -39.8214
   -39.8213 -39.8213 -39.8212 -39.8211 -39.8139 -39.8138 -39.8137 -39.8137
   -39.8136 -39.8136 -39.7901 -39.7901 -39.7900 -39.7900 -39.7899 -39.7898
   -38.1896 -38.1896 -38.1882 -38.1881 -38.1880 -13.2085 -13.2084 -13.2061
   -13.2061 -13.2060 -13.2060 -13.2009 -13.2009 -13.2009 -13.2009 -13.1991
   -13.1991 -13.1990 -13.1990 -13.1977 -13.1976 -13.1976 -13.1976 -13.1958
   -13.1957 -13.1935 -13.1935 -13.1935 -13.1935 -13.1894 -13.1894 -13.1893
   -13.1893 -13.1873 -13.1873 -13.1872 -13.1872 -13.1869 -13.1868 -13.1860
   -13.1860 -13.1859 -13.1859 -13.1859 -13.1858 -13.1851 -13.1850 -13.1846
   -13.1846 -13.1846 -13.1846 -13.1838 -13.1837 -13.1830 -13.1830 -13.1830
   -13.1829 -13.1829 -13.1829 -13.1821 -13.1821 -13.1821 -13.1821 -13.1810
   -13.1810 -13.1810 -13.1810 -13.1809 -13.1808 -13.1802 -13.1802 -13.1802
   -13.1802 -13.1800 -13.1799 -13.1794 -13.1793 -13.1791 -13.1791 -13.1791
   -13.1791 -13.1784 -13.1784 -13.1784 -13.1783 -13.1783 -13.1783 -13.1782
   -13.1781 -13.1768 -13.1767 -13.1767 -13.1767 -13.1756 -13.1755 -13.1754
   -13.1754 -13.1754 -13.1754 -13.1749 -13.1749 -13.1748 -13.1748 -13.1748
   -13.1747 -13.1727 -13.1727 -13.1726 -13.1726 -13.1725 -13.1724 -13.1724
   -13.1724 -13.1719 -13.1718 -13.1712 -13.1712 -13.1695 -13.1695 -13.1695
   -13.1694 -13.1693 -13.1692 -13.1687 -13.1686 -13.1683 -13.1683 -13.1682
   -13.1682 -13.1681 -13.1680 -13.1674 -13.1673 -13.1673 -13.1673 -13.1291
   -13.1291 -13.1290 -13.1290 -13.1253 -13.1252 -13.1216 -13.1215 -13.1142
   -13.1142 -13.1141 -13.1141 -13.1134 -13.1133 -13.1121 -13.1120 -13.1120
   -13.1120 -13.1069 -13.1068 -13.1055 -13.1055 -13.1054 -13.1054 -13.1014
   -13.1014 -13.1013 -13.1013 -13.1003 -13.1002 -12.6202 -12.6198 -12.6115
   -12.6115 -12.6113 -12.6113 -12.6078 -12.6078 -12.6073 -12.6073 -12.6024
   -12.6021 -12.6004 -12.6004 -12.5980 -12.5980 -12.5979 -12.5979 -12.5952
   -12.5952 -12.5951 -12.5951 -12.5924 -12.5923 -12.5910 -12.5908 -12.5898
   -12.5898 -12.5895 -12.5895 -12.5000 -12.4957 -12.4956 -12.4897 -12.4882
   -12.4882 -12.4868 -12.4868 -12.4835 -12.4820 -12.4819 -12.4795 -12.4756
   -12.4748 -12.4748 -12.4608 -12.4608 -12.4594 -12.4587 -12.4561 -12.4560
   -12.4560 -12.4538 -12.4538 -12.4537 -12.4537 -12.4536 -12.4516 -12.4516
   -12.4499 -12.4449 -12.4449 -12.4436 -12.4421 -12.4414 -12.4413 -12.4393
   -12.4385 -12.4385 -12.4382 -12.4382 -12.4375 -12.4336 -12.4336 -12.4317
    -8.3508  -8.3086  -8.1596  -8.1595  -8.1507  -8.1498  -8.1498  -8.1450
    -8.1242  -8.1242  -8.1128  -8.1128  -8.1058  -8.1017  -7.9275  -7.9016
    -7.9015  -7.8926  -7.8926  -7.8834  -7.8829  -7.8829  -7.8813  -7.8810
    -7.8698  -7.8698  -7.8658  -7.8658  -7.8654  -7.8635  -7.8584  -7.8574
    -7.8483  -7.8483  -7.8335  -7.8335  -7.8311  -7.8294  -7.8294  -7.8256
    -7.7867  -7.7867  -7.7856  -7.7830  -7.7830  -7.7790  -7.7698  -7.7697
    -7.7697  -7.7639  -7.7639  -7.7607  -7.7503  -7.7490  -7.7490  -7.7452
    -7.7452  -7.7346  -7.7346  -7.7295  -7.7295  -7.7261  -7.7093  -7.6975
    -7.6392  -7.5074  -7.4611  -7.4611  -7.4441  -7.4441  -7.3584  -7.3029
    -7.2832  -7.2832  -7.2344  -7.2344  -7.2202  -7.2147  -7.1559  -7.1549
    -7.1549  -7.1481  -7.1388  -7.1203  -7.1203  -7.1019  -7.1019  -7.0823
    -7.0823  -7.0347  -6.7671  -6.7403  -6.7402  -6.6917  -6.6917  -6.6640
    -4.9687  -3.9080  -3.9080  -3.9035  -3.9035  -3.9029  -3.8997  -3.8963
    -3.8954  -3.8938  -3.8938  -3.8936  -3.8936  -3.8908  -3.8889  -3.8644
    -3.8644  -3.8633  -3.8633  -3.6364  -3.6364  -3.6338  -3.6295  -3.6290
    -3.6290  -3.6115  -3.6076  -3.6055  -3.6055  -3.5982  -3.5982  -3.4156
    -3.3748  -3.2817  -3.2817  -3.2613  -3.2573  -3.2573  -3.1343  -3.1343
    -3.1139  -3.0461  -2.9949  -2.9333  -2.9333  -2.9039  -2.9039  -2.7630
     0.6502   0.6502   0.6545   0.7753   0.7754   0.7808   0.9473   0.9477
     0.9477   0.9508   0.9508   0.9597   1.0306   1.0336   1.0337   1.0337
     1.0377   1.0377   1.1652   1.1652   1.1695   1.1696   1.1700   1.1717
     1.2097   1.2175   1.2175   1.2223   1.2257   1.2257   1.2397   1.2397
     1.2445   1.2446   1.2532   1.2532   1.3843   1.3843   1.3905   1.3997
     1.4026   1.4026   1.4215   1.4285   1.4285   1.5435   1.5562   1.5562
     1.5811   1.5959   1.5959   1.6002   1.6002   1.6020   1.6560   1.6597
     1.6623   1.6623   1.6721   1.6721   1.6766   1.6798   1.6798   1.7160
     1.7160   1.7220   1.7237   1.7237   1.7327   1.7327   1.7423   1.7530
     1.7725   1.7725   1.7808   1.7862   1.7921   1.7921   1.7990   1.7990
     1.8054   1.8188   1.8188   1.8200   1.8502   1.8937   1.9133   1.9133
     1.9323   1.9323   1.9549   1.9682   1.9682   1.9690   1.9690   1.9744
     1.9779   1.9872   1.9872   2.0207   2.0207   2.0299   2.0300   2.0395
     2.0417   2.0417   2.0468   2.0731   2.0731   2.1402   2.1402   2.1549
     2.1662   2.1676   2.1685   2.1685   2.1800   2.1800   2.1867   2.2173
     2.2173   2.2273   2.2407   2.2423   2.2423   2.2510   2.2510   2.2571
     2.2857   2.2857   2.2887   2.3052   2.3052   2.3157   2.3367   2.3367
     2.3863   2.3863   2.4130   2.4152   2.4397   2.4446   2.4446   2.4665
     2.4665   2.4759   2.4759   2.5029   2.5154   2.5154   2.5335   2.5336
     2.5500   2.5509   2.5612   2.5612   2.5614   2.5667   2.5667   2.5702
     2.5702   2.5705   2.5741   2.5841   2.5847   2.5870   2.5870   2.5941
     2.5941   2.6013   2.6097   2.6097   2.6105   2.6105   2.6215   2.6215
     2.6218   2.6355   2.6450   2.6450   2.6494   2.6494   2.6558   2.6575
     2.6575   2.6745   2.6870   2.6988   2.6988   2.7042   2.7042   2.7045
     2.7045   2.7181   2.7268   2.7301   2.7301   2.7327   2.7422   2.7422
     2.7571   2.7677   2.7678   2.7759   2.7759   2.8191   2.8192   2.8255
     2.8856   2.9239   2.9239   2.9389   2.9448   2.9448   2.9505   2.9597
     2.9831   2.9858   2.9864   2.9864   2.9872   2.9872   3.0321   3.0321
     3.0354   3.0454   3.0455   3.0472   3.0710   3.0748   3.0748   3.0822
     3.0822   3.0906   3.0983   3.1007   3.1007   3.1155   3.1155   3.1230
     3.1234   3.1234   3.1526   3.1526   3.1599   3.1759   3.1910   3.1910
     3.1993   3.1993   3.2065   3.2364   3.2364   3.2388   3.2388   3.2412
     3.2806   3.2960   3.2960   3.3039   3.3238   3.3261   3.3286   3.3873
     3.3873   3.4078   3.4078   3.4744   3.4744   3.5441   3.5990   3.6020
     3.6551   3.6551   3.6578   3.6694   3.6694   3.7422   3.7422   3.7918
     3.8164   3.8164   3.8620   3.8839   3.8839   3.9672   4.0058   4.0058
     5.2907   5.2907   5.4222   5.7130   5.8129   6.2427   6.2427   6.2427
     6.2532   6.2532   6.2583   6.3922   6.3922   6.4025   6.4036   6.4088
     6.4088   6.4195   6.4195   6.4257   6.5451   6.5605   6.5605   6.5652
     6.5652   6.5770   6.6111   6.6111   6.8101   6.8101   6.8112   6.8112
     6.8112   6.8127   6.8669   6.9176   6.9176   6.9195   6.9201   6.9201
     6.9218   6.9283   6.9385   6.9464   6.9464   6.9628   6.9628   6.9859
     6.9859   6.9911   6.9920   6.9920   6.9984   7.0018   7.0018   7.0142
     7.0246   7.0264   7.0264   7.0438   7.0510   7.0510   7.0636   7.0636
     7.0983   7.0983   7.1059   7.1064   7.1064   7.1110   7.1184   7.1184
     7.1260   7.1314   7.1394   7.1415   7.1415   7.1484   7.1484   7.1523
     7.1523   7.1866   7.1991   7.1991   7.2045   7.2354   7.2354   7.2487
     7.2624   7.2624   7.3072   7.3073   7.3210   7.3441   7.3441   7.3768
     7.3916   7.3916   7.4212   7.4299   7.4299   7.4512   7.4530   7.4530
     7.4618   7.4673   7.4673   7.5114   7.5177   7.5177   7.5502   7.5605
     7.5879   7.5879   7.5922   7.5922   7.6077   7.6188   7.6305   7.6305
     7.6804   7.7124   7.7124   7.7258   7.7258   7.7308   7.7478   7.7526
     7.7895   7.7895   7.8700   7.8700   7.8854   7.8956   7.8956   8.0067
     8.1160   8.1160   8.1261   8.1261   8.2319   8.2352   8.2352   8.2923
     9.0302   9.0349   9.0349   9.3689   9.3689   9.3770   9.5817   9.5877
     9.5885   9.5885   9.5977   9.5977   9.7421   9.7954   9.8166   9.8166
     9.8213   9.8323   9.8323   9.8875   9.8963   9.8963   9.8989   9.9062
     9.9062   9.9515   9.9617   9.9617  10.1286  10.1286  10.1291  10.1303
    10.1303  10.1556  10.1728  10.1728  10.1746  10.1746  10.1833  10.2097
    10.2779  10.2779  10.2823  10.3141  10.3212  10.3574  10.3574  10.4266
    10.4266  10.4403  10.4514  10.4705  10.4705  10.4819  10.5760  10.5760
    10.5928  10.6428  10.6775  10.6775  10.7217  10.7217  10.7452  10.7452
    10.7456  10.7528  10.7528  10.7576  10.7835  10.7877  10.7877  10.9030
    10.9030  10.9208  10.9304  10.9494  10.9755  10.9876  10.9900  10.9919
    10.9919  11.0027  11.0380  11.0380  11.0543  11.0543  11.0560  11.0651
    11.0651  11.0764

     occupation numbers 
     1.0000   1.0000   1.0000   1.0000   1.0000   1.0000   1.0000   1.0000
     1.0000   1.0000   1.0000   1.0000   1.0000   1.0000   1.0000   1.0000
     1.0000   1.0000   1.0000   1.0000   1.0000   1.0000   1.0000   1.0000
     1.0000   1.0000   1.0000   1.0000   1.0000   1.0000   1.0000   1.0000
     1.0000   1.0000   1.0000   1.0000   1.0000   1.0000   1.0000   1.0000
     1.0000   1.0000   1.0000   1.0000   1.0000   1.0000   1.0000   1.0000
     1.0000   1.0000   1.0000   1.0000   1.0000   1.0000   1.0000   1.0000
     1.0000   1.0000   1.0000   1.0000   1.0000   1.0000   1.0000   1.0000
     1.0000   1.0000   1.0000   1.0000   1.0000   1.0000   1.0000   1.0000
     1.0000   1.0000   1.0000   1.0000   1.0000   1.0000   1.0000   1.0000
     1.0000   1.0000   1.0000   1.0000   1.0000   1.0000   1.0000   1.0000
     1.0000   1.0000   1.0000   1.0000   1.0000   1.0000   1.0000   1.0000
     1.0000   1.0000   1.0000   1.0000   1.0000   1.0000   1.0000   1.0000
     1.0000   1.0000   1.0000   1.0000   1.0000   1.0000   1.0000   1.0000
     1.0000   1.0000   1.0000   1.0000   1.0000   1.0000   1.0000   1.0000
     1.0000   1.0000   1.0000   1.0000   1.0000   1.0000   1.0000   1.0000
     1.0000   1.0000   1.0000   1.0000   1.0000   1.0000   1.0000   1.0000
     1.0000   1.0000   1.0000   1.0000   1.0000   1.0000   1.0000   1.0000
     1.0000   1.0000   1.0000   1.0000   1.0000   1.0000   1.0000   1.0000
     1.0000   1.0000   1.0000   1.0000   1.0000   1.0000   1.0000   1.0000
     1.0000   1.0000   1.0000   1.0000   1.0000   1.0000   1.0000   1.0000
     1.0000   1.0000   1.0000   1.0000   1.0000   1.0000   1.0000   1.0000
     1.0000   1.0000   1.0000   1.0000   1.0000   1.0000   1.0000   1.0000
     1.0000   1.0000   1.0000   1.0000   1.0000   1.0000   1.0000   1.0000
     1.0000   1.0000   1.0000   1.0000   1.0000   1.0000   1.0000   1.0000
     1.0000   1.0000   1.0000   1.0000   1.0000   1.0000   1.0000   1.0000
     1.0000   1.0000   1.0000   1.0000   1.0000   1.0000   1.0000   1.0000
     1.0000   1.0000   1.0000   1.0000   1.0000   1.0000   1.0000   1.0000
     1.0000   1.0000   1.0000   1.0000   1.0000   1.0000   1.0000   1.0000
     1.0000   1.0000   1.0000   1.0000   1.0000   1.0000   1.0000   1.0000
     1.0000   1.0000   1.0000   1.0000   1.0000   1.0000   1.0000   1.0000
     1.0000   1.0000   1.0000   1.0000   1.0000   1.0000   1.0000   1.0000
     1.0000   1.0000   1.0000   1.0000   1.0000   1.0000   1.0000   1.0000
     1.0000   1.0000   1.0000   1.0000   1.0000   1.0000   1.0000   1.0000
     1.0000   1.0000   1.0000   1.0000   1.0000   1.0000   1.0000   1.0000
     1.0000   1.0000   1.0000   1.0000   1.0000   1.0000   1.0000   1.0000
     1.0000   1.0000   1.0000   1.0000   1.0000   1.0000   1.0000   1.0000
     1.0000   1.0000   1.0000   1.0000   1.0000   1.0000   1.0000   1.0000
     1.0000   1.0000   1.0000   1.0000   1.0000   1.0000   1.0000   1.0000
     1.0000   1.0000   1.0000   1.0000   1.0000   1.0000   1.0000   1.0000
     1.0000   1.0000   1.0000   1.0000   1.0000   1.0000   1.0000   1.0000
     1.0000   1.0000   1.0000   1.0000   1.0000   1.0000   1.0000   1.0000
     1.0000   1.0000   1.0000   1.0000   1.0000   1.0000   1.0000   1.0000
     1.0000   1.0000   1.0000   1.0000   1.0000   1.0000   1.0000   1.0000
     1.0000   1.0000   1.0000   1.0000   1.0000   1.0000   1.0000   1.0000
     1.0000   1.0000   1.0000   1.0000   1.0000   1.0000   1.0000   1.0000
     1.0000   1.0000   1.0000   1.0000   1.0000   1.0000   1.0000   1.0000
     1.0000   1.0000   1.0000   1.0000   1.0000   1.0000   1.0000   1.0000
     1.0000   1.0000   1.0000   1.0000   1.0000   1.0000   1.0000   1.0000
     1.0000   1.0000   1.0000   1.0000   1.0000   1.0000   1.0000   1.0000
     1.0000   1.0000   1.0000   1.0000   1.0000   1.0000   1.0000   1.0000
     1.0000   1.0000   1.0000   1.0000   1.0000   1.0000   1.0000   1.0000
     1.0000   1.0000   1.0000   1.0000   1.0000   1.0000   1.0000   1.0000
     1.0000   1.0000   1.0000   1.0000   1.0000   1.0000   1.0000   1.0000
     1.0000   1.0000   1.0000   1.0000   1.0000   1.0000   1.0000   1.0000
     1.0000   1.0000   1.0000   1.0000   1.0000   1.0000   1.0000   1.0000
     1.0000   1.0000   1.0000   1.0000   1.0000   1.0000   1.0000   1.0000
     1.0000   1.0000   1.0000   1.0000   1.0000   1.0000   1.0000   1.0000
     1.0000   1.0000   1.0000   1.0000   1.0000   1.0000   1.0000   1.0000
     1.0000   1.0000   1.0000   1.0000   1.0000   1.0000   1.0000   1.0000
     1.0000   1.0000   1.0000   1.0000   1.0000   1.0000   1.0000   1.0000
     1.0000   1.0000   1.0000   1.0000   1.0000   1.0000   1.0000   1.0000
     1.0000   1.0000   1.0000   1.0000   1.0000   1.0000   1.0000   1.0000
     1.0000   1.0000   1.0000   1.0000   1.0000   1.0000   1.0000   1.0000
     1.0000   1.0000   1.0000   1.0000   1.0000   1.0000   1.0000   1.0000
     1.0000   1.0000   1.0000   1.0000   1.0000   1.0000   1.0000   1.0000
     1.0000   1.0000   1.0000   1.0000   1.0000   1.0000   1.0000   1.0000
     1.0000   1.0000   1.0000   1.0000   1.0000   1.0000   1.0000   1.0000
     1.0000   1.0000   1.0000   1.0000   1.0000   1.0000   1.0000   1.0000
     1.0000   1.0000   1.0000   1.0000   1.0000   1.0000   1.0000   1.0000
     1.0000   1.0000   1.0000   1.0000   1.0000   1.0000   1.0000   1.0000
     1.0000   1.0000   1.0000   1.0000   1.0000   1.0000   1.0000   1.0000
     1.0000   1.0000   1.0000   1.0000   1.0000   1.0000   1.0000   1.0000
     1.0000   1.0000   1.0000   1.0000   1.0000   1.0000   1.0000   1.0000
     1.0000   1.0000   1.0000   1.0000   1.0000   1.0000   1.0000   1.0000
     1.0000   1.0000   1.0000   1.0000   1.0000   1.0000   1.0000   1.0000
     1.0000   1.0000   1.0000   1.0000   1.0000   1.0000   1.0000   1.0000
     1.0000   1.0000   1.0000   1.0000   1.0000   1.0000   1.0000   1.0000
     1.0000   1.0000   1.0000   1.0000   1.0000   1.0000   1.0000   1.0000
     1.0000   1.0000   1.0000   1.0000   1.0000   1.0000   1.0000   1.0000
     1.0000   1.0000   1.0000   1.0000   1.0000   1.0000   1.0000   1.0000
     1.0000   1.0000   1.0000   1.0000   1.0000   1.0000   1.0000   1.0000
     1.0000   1.0000   1.0000   1.0000   1.0000   1.0000   1.0000   1.0000
     1.0000   1.0000   1.0000   1.0000   1.0000   1.0000   1.0000   1.0000
     1.0000   1.0000   1.0000   1.0000   1.0000   1.0000   1.0000   1.0000
     1.0000   1.0000   1.0000   1.0000   1.0000   1.0000   1.0000   1.0000
     1.0000   1.0000   1.0000   1.0000   1.0000   1.0000   1.0000   1.0000
     1.0000   1.0000   1.0000   1.0000   1.0000   1.0000   1.0000   1.0000
     1.0000   1.0000   1.0000   1.0000   1.0000   1.0000   1.0000   1.0000
     1.0000   1.0000   1.0000   1.0000   1.0000   1.0000   1.0000   1.0000
     1.0000   1.0000   1.0000   1.0000   1.0000   1.0000   1.0000   1.0000
     1.0000   1.0000   1.0000   1.0000   1.0000   1.0000   1.0000   1.0000
     1.0000   1.0000   1.0000   1.0000   1.0000   1.0000   1.0000   1.0000
     1.0000   1.0000   1.0000   1.0000   1.0000   1.0000   1.0000   1.0000
     1.0000   1.0000   1.0000   1.0000   1.0000   1.0000   1.0000   1.0000
     1.0000   1.0000   1.0000   1.0000   1.0000   1.0000   1.0000   1.0000
     1.0000   1.0000   1.0000   1.0000   1.0000   1.0000   1.0000   1.0000
     1.0000   1.0000   1.0000   1.0000   1.0000   1.0000   1.0000   1.0000
     1.0000   1.0000   1.0000   1.0000   1.0000   1.0000   1.0000   1.0000
     1.0000   1.0000   1.0000   1.0000   1.0000   1.0000   1.0000   1.0000
     1.0000   1.0000   1.0000   1.0000   1.0000   1.0000   1.0000   1.0000
     1.0000   1.0000   1.0000   1.0000   1.0000   1.0000   1.0000   1.0000
     1.0000   1.0000   1.0000   1.0000   1.0000   1.0000   1.0000   1.0000
     1.0000   1.0000   1.0000   1.0000   1.0000   1.0000   1.0000   1.0000
     1.0000   1.0000   1.0000   1.0000   1.0000   1.0000   1.0000   1.0000
     1.0000   1.0000   1.0000   1.0000   1.0000   1.0000   1.0000   1.0000
     1.0000   1.0000   1.0000   1.0000   1.0000   1.0000   1.0000   1.0000
     1.0000   1.0000   1.0000   1.0000   1.0000   1.0000   1.0000   1.0000
     1.0000   1.0000   1.0000   1.0000   1.0000   1.0000   1.0000   1.0000
     1.0000   1.0000   1.0000   1.0000   1.0000   1.0000   1.0000   1.0000
     1.0000   1.0000   1.0000   1.0000   1.0000   1.0000   1.0000   1.0000
     1.0000   1.0000   1.0000   1.0000   1.0000   1.0000   1.0000   1.0000
     1.0000   1.0000   1.0000   1.0000   1.0000   1.0000   1.0000   1.0000
     1.0000   1.0000   1.0000   1.0000   1.0000   1.0000   1.0000   1.0000
     1.0000   1.0000   1.0000   1.0000   1.0000   1.0000   1.0000   1.0000
     1.0000   1.0000   1.0000   1.0000   1.0000   1.0000   1.0000   1.0000
     1.0000   1.0000   1.0000   1.0000   1.0000   1.0000   1.0000   1.0000
     1.0000   1.0000   1.0000   1.0000   1.0000   1.0000   1.0000   1.0000
     1.0000   1.0000   1.0000   1.0000   1.0000   1.0000   1.0000   1.0000
     1.0000   1.0000   1.0000   1.0000   1.0000   1.0000   1.0000   1.0000
     1.0000   1.0000   1.0000   1.0000   1.0000   1.0000   1.0000   1.0000
     1.0000   1.0000   1.0000   1.0000   1.0000   1.0000   1.0000   1.0000
     1.0000   1.0000   1.0000   1.0000   1.0000   1.0000   1.0000   1.0000
     1.0000   1.0000   1.0000   1.0000   1.0000   1.0000   1.0000   1.0000
     1.0000   1.0000   1.0000   1.0000   1.0000   1.0000   1.0000   1.0000
     1.0000   1.0000   1.0000   1.0000   1.0000   1.0000   1.0000   1.0000
     1.0000   1.0000   1.0000   1.0000   1.0000   1.0000   1.0000   1.0000
     1.0000   1.0000   1.0000   1.0000   1.0000   1.0000   1.0000   1.0000
     1.0000   1.0000   1.0000   1.0000   1.0000   1.0000   1.0000   1.0000
     1.0000   1.0000   1.0000   1.0000   1.0000   1.0000   1.0000   1.0000
     1.0000   1.0000   1.0000   1.0000   1.0000   1.0000   1.0000   1.0000
     1.0000   1.0000   1.0000   1.0000   1.0000   1.0000   1.0000   1.0000
     1.0000   1.0000   1.0000   1.0000   1.0000   1.0000   1.0000   1.0000
     1.0000   1.0000   1.0000   1.0000   1.0000   1.0000   1.0000   1.0000
     1.0000   1.0000   1.0000   1.0000   1.0000   1.0000   1.0000   1.0000
     1.0000   1.0000   1.0000   1.0000   1.0000   1.0000   1.0000   1.0000
     1.0000   1.0000   1.0000   1.0000   1.0000   1.0000   1.0000   1.0000
     1.0000   1.0000   1.0000   1.0000   1.0000   1.0000   1.0000   1.0000
     1.0000   1.0000   1.0000   1.0000   1.0000   1.0000   1.0000   1.0000
     1.0000   1.0000   1.0000   1.0000   1.0000   1.0000   1.0000   1.0000
     1.0000   1.0000   1.0000   1.0000   1.0000   1.0000   1.0000   1.0000
     1.0000   1.0000   1.0000   1.0000   1.0000   1.0000   1.0000   1.0000
     1.0000   1.0000   1.0000   1.0000   1.0000   1.0000   1.0000   1.0000
     1.0000   1.0000   1.0000   1.0000   1.0000   1.0000   1.0000   1.0000
     0.9980   0.9980   0.9340   0.0647   0.0053   0.0000   0.0000   0.0000
     0.0000   0.0000   0.0000   0.0000   0.0000   0.0000   0.0000   0.0000
     0.0000   0.0000   0.0000   0.0000   0.0000   0.0000   0.0000   0.0000
     0.0000   0.0000   0.0000   0.0000   0.0000   0.0000   0.0000   0.0000
     0.0000   0.0000   0.0000   0.0000   0.0000   0.0000   0.0000   0.0000
     0.0000   0.0000   0.0000   0.0000   0.0000   0.0000   0.0000   0.0000
     0.0000   0.0000   0.0000   0.0000   0.0000   0.0000   0.0000   0.0000
     0.0000   0.0000   0.0000   0.0000   0.0000   0.0000   0.0000   0.0000
     0.0000   0.0000   0.0000   0.0000   0.0000   0.0000   0.0000   0.0000
     0.0000   0.0000   0.0000   0.0000   0.0000   0.0000   0.0000   0.0000
     0.0000   0.0000   0.0000   0.0000   0.0000   0.0000   0.0000   0.0000
     0.0000   0.0000   0.0000   0.0000   0.0000   0.0000   0.0000   0.0000
     0.0000   0.0000   0.0000   0.0000   0.0000   0.0000   0.0000   0.0000
     0.0000   0.0000   0.0000   0.0000   0.0000   0.0000   0.0000   0.0000
     0.0000   0.0000   0.0000   0.0000   0.0000   0.0000   0.0000   0.0000
     0.0000   0.0000   0.0000   0.0000   0.0000   0.0000   0.0000   0.0000
     0.0000   0.0000   0.0000   0.0000   0.0000   0.0000   0.0000   0.0000
     0.0000   0.0000   0.0000   0.0000   0.0000   0.0000   0.0000   0.0000
     0.0000   0.0000   0.0000   0.0000   0.0000   0.0000   0.0000   0.0000
     0.0000   0.0000   0.0000   0.0000   0.0000   0.0000   0.0000   0.0000
     0.0000   0.0000   0.0000   0.0000   0.0000   0.0000   0.0000   0.0000
     0.0000   0.0000   0.0000   0.0000   0.0000   0.0000   0.0000   0.0000
     0.0000   0.0000   0.0000   0.0000   0.0000   0.0000   0.0000   0.0000
     0.0000   0.0000   0.0000   0.0000   0.0000   0.0000   0.0000   0.0000
     0.0000   0.0000   0.0000   0.0000   0.0000   0.0000   0.0000   0.0000
     0.0000   0.0000   0.0000   0.0000   0.0000   0.0000   0.0000   0.0000
     0.0000   0.0000   0.0000   0.0000   0.0000   0.0000   0.0000   0.0000
     0.0000   0.0000   0.0000   0.0000   0.0000   0.0000   0.0000   0.0000
     0.0000   0.0000   0.0000   0.0000   0.0000   0.0000   0.0000   0.0000
     0.0000   0.0000

     the Fermi energy is     5.5671 ev

!    total energy              =  -96800.34597118 Ry
     total all-electron energy =  -3345909.539686 Ry
     estimated scf accuracy    <       0.00000004 Ry
     smearing contrib. (-TS)   =      -0.00399909 Ry
     internal energy E=F+TS    =  -96800.34197209 Ry

     The total energy is F=E-TS. E is the sum of the following terms:
     one-electron contribution =  -17975.34071910 Ry
     hartree contribution      =   10037.51503518 Ry
     xc contribution           =   -6827.15292414 Ry
     ewald contribution        =  -14873.04777278 Ry
     one-center paw contrib.   =  -67162.31559126 Ry
      -> PAW hartree energy AE =     192.02024739 Ry
      -> PAW hartree energy PS =    -192.49561777 Ry
      -> PAW xc energy AE      =   -1596.87792386 Ry
      -> PAW xc energy PS      =      66.63659261 Ry
      -> total E_H with PAW    =   10037.03966480 Ry
      -> total E_XC with PAW   =   -8357.39425538 Ry

     convergence has been achieved in   9 iterations


     -----------------------------------------------
     Non-local corr. energy    =      69.32934258 Ry
     -----------------------------------------------


     Forces acting on atoms (cartesian axes, Ry/au):

     atom    1 type  1   force =     0.00000043    0.00000048    0.00057485
     atom    2 type  1   force =    -0.00000041   -0.00000032   -0.00058523
     atom    3 type  1   force =     0.00049914   -0.00086423    0.00000802
     atom    4 type  1   force =    -0.00038611    0.00064747    0.00058125
     atom    5 type  1   force =    -0.00036839    0.00065930   -0.00058519
     atom    6 type  1   force =     0.00000121   -0.00000474    0.00000285
     atom    7 type  1   force =     0.00027244    0.00015660    0.00012143
     atom    8 type  1   force =    -0.00026903   -0.00015525   -0.00012520
     atom    9 type  1   force =    -0.00050023    0.00086334    0.00000369
     atom   10 type  1   force =     0.00036616   -0.00065977    0.00058366
     atom   11 type  1   force =     0.00038583   -0.00064873   -0.00058477
     atom   12 type  1   force =    -0.00099445    0.00000271    0.00000543
     atom   13 type  1   force =     0.00075384    0.00001191    0.00058173
     atom   14 type  1   force =     0.00075470   -0.00001352   -0.00058758
     atom   15 type  1   force =    -0.00050031   -0.00086250    0.00000943
     atom   16 type  1   force =     0.00038662    0.00064678    0.00058104
     atom   17 type  1   force =     0.00036803    0.00065962   -0.00058578
     atom   18 type  1   force =     0.00000027   -0.00017461    0.00060608
     atom   19 type  1   force =     0.00000029    0.00119918    0.00127747
     atom   20 type  1   force =    -0.00000029    0.00014776    0.00007331
     atom   21 type  1   force =    -0.00014576    0.00008543    0.00060650
     atom   22 type  1   force =     0.00104116   -0.00060238    0.00127968
     atom   23 type  1   force =     0.00012683   -0.00007349    0.00007249
     atom   24 type  1   force =     0.00000143    0.00000152    0.00000200
     atom   25 type  1   force =     0.00000019   -0.00031385    0.00011992
     atom   26 type  1   force =    -0.00000010    0.00031049   -0.00012634
     atom   27 type  1   force =    -0.00014881   -0.00008738   -0.00060094
     atom   28 type  1   force =     0.00012790    0.00007432   -0.00007744
     atom   29 type  1   force =     0.00104578    0.00060300   -0.00129513
     atom   30 type  1   force =    -0.00000068   -0.00000358    0.00000238
     atom   31 type  1   force =    -0.00027163    0.00015652    0.00012098
     atom   32 type  1   force =     0.00026857   -0.00015496   -0.00012524
     atom   33 type  1   force =     0.00014766    0.00008610    0.00060635
     atom   34 type  1   force =    -0.00104239   -0.00060312    0.00128152
     atom   35 type  1   force =    -0.00012730   -0.00007345    0.00007297
     atom   36 type  1   force =     0.00099403    0.00000429    0.00000313
     atom   37 type  1   force =    -0.00075364    0.00001259    0.00058222
     atom   38 type  1   force =    -0.00075437   -0.00001237   -0.00058630
     atom   39 type  1   force =     0.00014979   -0.00008854   -0.00060042
     atom   40 type  1   force =    -0.00012760    0.00007455   -0.00007744
     atom   41 type  1   force =    -0.00104432    0.00060273   -0.00129324
     atom   42 type  1   force =    -0.00000014    0.00016752   -0.00060060
     atom   43 type  1   force =     0.00000043   -0.00014759   -0.00007590
     atom   44 type  1   force =     0.00000045   -0.00120081   -0.00128832
     atom   45 type  1   force =     0.00049909    0.00086253    0.00000289
     atom   46 type  1   force =    -0.00036479   -0.00066049    0.00058416
     atom   47 type  1   force =    -0.00038517   -0.00064884   -0.00058388
     atom   48 type  2   force =    -0.00000000    0.00012082   -0.00053798
     atom   49 type  2   force =    -0.00000020    0.00023895    0.00007775
     atom   50 type  2   force =     0.00000091    0.00090773    0.00045608
     atom   51 type  2   force =     0.00010450   -0.00006065   -0.00053687
     atom   52 type  2   force =     0.00020658   -0.00011920    0.00007738
     atom   53 type  2   force =     0.00078571   -0.00045338    0.00044903
     atom   54 type  2   force =     0.00014952   -0.00016549   -0.00004950
     atom   55 type  2   force =     0.00031021    0.00007367    0.00016601
     atom   56 type  2   force =     0.00017762   -0.00021509    0.00013598
     atom   57 type  2   force =    -0.00006797    0.00021162   -0.00004921
     atom   58 type  2   force =     0.00022025    0.00023002    0.00016671
     atom   59 type  2   force =    -0.00010260    0.00027552    0.00013365
     atom   60 type  2   force =    -0.00031570    0.00018144   -0.00066122
     atom   61 type  2   force =    -0.00010871    0.00006284    0.00013553
     atom   62 type  2   force =     0.00035256   -0.00020826   -0.00051672
     atom   63 type  2   force =    -0.00010364   -0.00005993   -0.00053632
     atom   64 type  2   force =    -0.00020652   -0.00011915    0.00007715
     atom   65 type  2   force =    -0.00078992   -0.00045680    0.00045039
     atom   66 type  2   force =     0.00000092   -0.00035762   -0.00066162
     atom   67 type  2   force =     0.00000028   -0.00012709    0.00013790
     atom   68 type  2   force =     0.00000098    0.00040193   -0.00051782
     atom   69 type  2   force =    -0.00000705   -0.00000520    0.00022421
     atom   70 type  2   force =     0.00005050    0.00002848    0.00039563
     atom   71 type  2   force =    -0.00003360   -0.00002056   -0.00016418
     atom   72 type  2   force =     0.00000034    0.00000825    0.00022342
     atom   73 type  2   force =     0.00000019   -0.00005743    0.00039402
     atom   74 type  2   force =     0.00000009    0.00003874   -0.00016429
     atom   75 type  2   force =    -0.00021674   -0.00004712   -0.00004974
     atom   76 type  2   force =    -0.00008873   -0.00030702    0.00016384
     atom   77 type  2   force =    -0.00028504   -0.00004461    0.00013426
     atom   78 type  2   force =    -0.00014926   -0.00016551   -0.00004979
     atom   79 type  2   force =    -0.00030951    0.00007421    0.00016494
     atom   80 type  2   force =    -0.00017961   -0.00021696    0.00013579
     atom   81 type  2   force =     0.00000811   -0.00000548    0.00022358
     atom   82 type  2   force =    -0.00004993    0.00002830    0.00039519
     atom   83 type  2   force =     0.00003413   -0.00002072   -0.00016472
     atom   84 type  2   force =     0.00031424    0.00018002   -0.00066150
     atom   85 type  2   force =     0.00010920    0.00006307    0.00013583
     atom   86 type  2   force =    -0.00035055   -0.00020831   -0.00051685
     atom   87 type  2   force =     0.00021679   -0.00004720   -0.00005003
     atom   88 type  2   force =     0.00008901   -0.00030745    0.00016454
     atom   89 type  2   force =     0.00028174   -0.00004479    0.00013638
     atom   90 type  2   force =    -0.00000037   -0.00000032    0.00000305
     atom   91 type  2   force =    -0.00000031    0.00000453   -0.00058238
     atom   92 type  2   force =     0.00000018    0.00000007    0.00074049
     atom   93 type  2   force =     0.00006803    0.00021119   -0.00004968
     atom   94 type  2   force =    -0.00022001    0.00022964    0.00016629
     atom   95 type  2   force =     0.00010154    0.00027570    0.00013433
     atom   96 type  2   force =     0.00079488    0.00045661   -0.00050182
     atom   97 type  2   force =     0.00020583    0.00011900   -0.00003561
     atom   98 type  2   force =     0.00010321    0.00006068    0.00055374
     atom   99 type  2   force =    -0.00034845    0.00019933    0.00046045
     atom  100 type  2   force =     0.00011089   -0.00006439   -0.00009635
     atom  101 type  2   force =     0.00031368   -0.00018312    0.00068704
     atom  102 type  2   force =     0.00003565    0.00001996    0.00011031
     atom  103 type  2   force =    -0.00004881   -0.00002919   -0.00035322
     atom  104 type  2   force =     0.00000878    0.00000423   -0.00020651
     atom  105 type  2   force =     0.00000153   -0.00040815    0.00046178
     atom  106 type  2   force =     0.00000012    0.00012636   -0.00009392
     atom  107 type  2   force =     0.00000019    0.00037238    0.00068764
     atom  108 type  2   force =    -0.00079616    0.00045727   -0.00050647
     atom  109 type  2   force =    -0.00020583    0.00011919   -0.00003603
     atom  110 type  2   force =    -0.00010356    0.00006078    0.00055459
     atom  111 type  2   force =     0.00000046   -0.00090543   -0.00049921
     atom  112 type  2   force =     0.00000025   -0.00023779   -0.00003613
     atom  113 type  2   force =     0.00000002   -0.00012080    0.00055500
     atom  114 type  2   force =     0.00009921   -0.00026002   -0.00019594
     atom  115 type  2   force =    -0.00021900   -0.00022917   -0.00012496
     atom  116 type  2   force =     0.00006983   -0.00021272    0.00006825
     atom  117 type  2   force =    -0.00017910    0.00022542   -0.00019022
     atom  118 type  2   force =    -0.00030661   -0.00007683   -0.00012406
     atom  119 type  2   force =    -0.00014916    0.00016647    0.00006789
     atom  120 type  2   force =    -0.00028411    0.00004597   -0.00019274
     atom  121 type  2   force =    -0.00008698    0.00030342   -0.00012427
     atom  122 type  2   force =    -0.00021836    0.00004606    0.00006842
     atom  123 type  2   force =     0.00035136    0.00019935    0.00046011
     atom  124 type  2   force =    -0.00011015   -0.00006387   -0.00009567
     atom  125 type  2   force =    -0.00031614   -0.00018442    0.00068726
     atom  126 type  2   force =    -0.00010080   -0.00026177   -0.00019445
     atom  127 type  2   force =     0.00022035   -0.00022884   -0.00012465
     atom  128 type  2   force =    -0.00006909   -0.00021217    0.00006817
     atom  129 type  2   force =     0.00000011   -0.00000083   -0.00079956
     atom  130 type  2   force =    -0.00000059    0.00000001    0.00061979
     atom  131 type  2   force =     0.00000023    0.00000037    0.00001623
     atom  132 type  2   force =     0.00027906    0.00004569   -0.00019518
     atom  133 type  2   force =     0.00008787    0.00030305   -0.00012397
     atom  134 type  2   force =     0.00021870    0.00004605    0.00006839
     atom  135 type  2   force =     0.00000034   -0.00004155    0.00010936
     atom  136 type  2   force =     0.00000005    0.00005588   -0.00035312
     atom  137 type  2   force =     0.00000019   -0.00001206   -0.00020537
     atom  138 type  2   force =    -0.00003563    0.00002025    0.00010970
     atom  139 type  2   force =     0.00004889   -0.00002904   -0.00035309
     atom  140 type  2   force =    -0.00000902    0.00000445   -0.00020608
     atom  141 type  2   force =     0.00017644    0.00022317   -0.00019122
     atom  142 type  2   force =     0.00030713   -0.00007735   -0.00012340
     atom  143 type  2   force =     0.00014924    0.00016611    0.00006762
     atom  144 type  2   force =    -0.00000138    0.00000437   -0.00003992
     The non-local contrib.  to forces
     atom    1 type  1   force =     0.00000956   -0.00002787   -0.01764914
     atom    2 type  1   force =     0.00001049   -0.00003484    0.01765386
     atom    3 type  1   force =     0.03140340   -0.05443098   -0.00000469
     atom    4 type  1   force =     0.00279235   -0.00039115   -0.00865214
     atom    5 type  1   force =    -0.00105729   -0.00262425    0.00865074
     atom    6 type  1   force =    -0.00003486    0.00003398    0.00000781
     atom    7 type  1   force =     0.00303973    0.00172939   -0.00624627
     atom    8 type  1   force =    -0.00302960   -0.00178053    0.00626121
     atom    9 type  1   force =    -0.03145494    0.05444924    0.00001787
     atom   10 type  1   force =     0.00107408    0.00256515   -0.00865425
     atom   11 type  1   force =    -0.00276557    0.00034522    0.00865665
     atom   12 type  1   force =    -0.06287289   -0.00003905   -0.00001458
     atom   13 type  1   force =    -0.00170768   -0.00222682   -0.00864078
     atom   14 type  1   force =    -0.00169558    0.00221507    0.00866439
     atom   15 type  1   force =    -0.03138394   -0.05445124   -0.00000233
     atom   16 type  1   force =    -0.00278621   -0.00038154   -0.00865854
     atom   17 type  1   force =     0.00106145   -0.00261925    0.00864194
     atom   18 type  1   force =     0.00001106   -0.02056255    0.02259005
     atom   19 type  1   force =     0.00000551   -0.01677394   -0.01832143
     atom   20 type  1   force =     0.00000954   -0.00022148    0.00614251
     atom   21 type  1   force =    -0.01773383    0.01021902    0.02257660
     atom   22 type  1   force =    -0.01453422    0.00837650   -0.01833696
     atom   23 type  1   force =    -0.00016136    0.00007772    0.00614874
     atom   24 type  1   force =    -0.00001508   -0.00003481   -0.00002191
     atom   25 type  1   force =     0.00000637   -0.00352789   -0.00625349
     atom   26 type  1   force =     0.00000794    0.00347730    0.00625421
     atom   27 type  1   force =    -0.01775878   -0.01028601   -0.02256807
     atom   28 type  1   force =    -0.00016529   -0.00012138   -0.00613560
     atom   29 type  1   force =    -0.01452785   -0.00841579    0.01833650
     atom   30 type  1   force =     0.00004554    0.00001007    0.00001595
     atom   31 type  1   force =    -0.00302736    0.00172915   -0.00624444
     atom   32 type  1   force =     0.00304626   -0.00178066    0.00626489
     atom   33 type  1   force =     0.01776265    0.01022213    0.02257019
     atom   34 type  1   force =     0.01454083    0.00837404   -0.01833603
     atom   35 type  1   force =     0.00017832    0.00007642    0.00614606
     atom   36 type  1   force =     0.06285696   -0.00004351   -0.00000544
     atom   37 type  1   force =     0.00172284   -0.00222723   -0.00863889
     atom   38 type  1   force =     0.00171511    0.00221540    0.00866138
     atom   39 type  1   force =     0.01779162   -0.01029326   -0.02257289
     atom   40 type  1   force =     0.00017662   -0.00012133   -0.00613503
     atom   41 type  1   force =     0.01453037   -0.00840866    0.01832893
     atom   42 type  1   force =     0.00000997    0.02047209   -0.02259061
     atom   43 type  1   force =     0.00000557    0.00017603   -0.00613993
     atom   44 type  1   force =     0.00000744    0.01676483    0.01833332
     atom   45 type  1   force =     0.03147298    0.05443295    0.00002822
     atom   46 type  1   force =    -0.00107255    0.00256766   -0.00865755
     atom   47 type  1   force =     0.00277377    0.00035493    0.00864517
     atom   48 type  2   force =    -0.00000015    0.00007336    0.27779388
     atom   49 type  2   force =    -0.00000307   -0.00390706    0.24070850
     atom   50 type  2   force =    -0.00000434   -0.08061265    0.18596445
     atom   51 type  2   force =     0.00004934   -0.00003345    0.27779415
     atom   52 type  2   force =    -0.00339337    0.00197030    0.24071029
     atom   53 type  2   force =    -0.06978998    0.04030796    0.18595991
     atom   54 type  2   force =    -0.00083311   -0.00173928    0.26389652
     atom   55 type  2   force =    -0.00276445    0.00000524    0.24066419
     atom   56 type  2   force =    -0.04876031    0.02090774    0.20365898
     atom   57 type  2   force =    -0.00193616    0.00016998    0.26389586
     atom   58 type  2   force =    -0.00140221   -0.00239051    0.24066553
     atom   59 type  2   force =    -0.00629387   -0.05264594    0.20366667
     atom   60 type  2   force =     0.00486113   -0.00280673    0.28945020
     atom   61 type  2   force =     0.00018595   -0.00010834    0.24124520
     atom   62 type  2   force =    -0.00422519    0.00243036    0.22272080
     atom   63 type  2   force =    -0.00005552   -0.00003648    0.27779544
     atom   64 type  2   force =     0.00338512    0.00196905    0.24071004
     atom   65 type  2   force =     0.06978278    0.04030784    0.18596893
     atom   66 type  2   force =    -0.00000206    0.00562757    0.28944984
     atom   67 type  2   force =    -0.00000458    0.00023237    0.24125159
     atom   68 type  2   force =    -0.00000076   -0.00486155    0.22271027
     atom   69 type  2   force =    -0.00322622   -0.00186115    0.26780690
     atom   70 type  2   force =     0.00047740    0.00028378    0.24231589
     atom   71 type  2   force =    -0.00819402   -0.00471827    0.21426411
     atom   72 type  2   force =     0.00000454    0.00372849    0.26780974
     atom   73 type  2   force =    -0.00000375   -0.00054849    0.24231373
     atom   74 type  2   force =    -0.00000201    0.00945509    0.21426807
     atom   75 type  2   force =    -0.00110858    0.00159997    0.26389772
     atom   76 type  2   force =     0.00137142    0.00240561    0.24066542
     atom   77 type  2   force =     0.04245685    0.03179145    0.20366576
[...]
     atom  104 type  2   force =     0.00000824    0.00000492    0.00000598
     atom  105 type  2   force =     0.00000009   -0.00000117    0.00000246
     atom  106 type  2   force =     0.00000008    0.00000098   -0.00000282
     atom  107 type  2   force =     0.00000005    0.00000768   -0.00000150
     atom  108 type  2   force =     0.00000561   -0.00000337    0.00000213
     atom  109 type  2   force =    -0.00000368    0.00000191   -0.00000066
     atom  110 type  2   force =    -0.00000136    0.00000065   -0.00000586
     atom  111 type  2   force =    -0.00000005    0.00000645    0.00000220
     atom  112 type  2   force =    -0.00000000   -0.00000423   -0.00000063
     atom  113 type  2   force =    -0.00000002   -0.00000159   -0.00000581
     atom  114 type  2   force =    -0.00000088   -0.00000024   -0.00000124
     atom  115 type  2   force =    -0.00000347   -0.00000633    0.00000290
     atom  116 type  2   force =     0.00000407   -0.00000075   -0.00000336
     atom  117 type  2   force =    -0.00000076   -0.00000049   -0.00000130
     atom  118 type  2   force =    -0.00000735    0.00000030    0.00000286
     atom  119 type  2   force =     0.00000127    0.00000411   -0.00000341
     atom  120 type  2   force =     0.00000003    0.00000079   -0.00000131
     atom  121 type  2   force =    -0.00000394    0.00000608    0.00000291
     atom  122 type  2   force =    -0.00000289   -0.00000326   -0.00000336
     atom  123 type  2   force =     0.00000094    0.00000051    0.00000239
     atom  124 type  2   force =    -0.00000089   -0.00000052   -0.00000280
     atom  125 type  2   force =    -0.00000663   -0.00000387   -0.00000148
     atom  126 type  2   force =     0.00000078   -0.00000026   -0.00000128
     atom  127 type  2   force =     0.00000345   -0.00000630    0.00000291
     atom  128 type  2   force =    -0.00000419   -0.00000076   -0.00000332
     atom  129 type  2   force =    -0.00000006    0.00000004   -0.00000348
     atom  130 type  2   force =    -0.00000004   -0.00000001    0.00000339
     atom  131 type  2   force =    -0.00000009    0.00000001   -0.00000675
     atom  132 type  2   force =    -0.00000020    0.00000080   -0.00000133
     atom  133 type  2   force =     0.00000387    0.00000609    0.00000296
     atom  134 type  2   force =     0.00000273   -0.00000326   -0.00000334
     atom  135 type  2   force =    -0.00000000    0.00000111    0.00000037
     atom  136 type  2   force =     0.00000007    0.00000142   -0.00000452
     atom  137 type  2   force =     0.00000002   -0.00000954    0.00000604
     atom  138 type  2   force =     0.00000098   -0.00000047    0.00000045
     atom  139 type  2   force =     0.00000125   -0.00000047   -0.00000445
     atom  140 type  2   force =    -0.00000823    0.00000489    0.00000601
     atom  141 type  2   force =     0.00000078   -0.00000055   -0.00000138
     atom  142 type  2   force =     0.00000736    0.00000025    0.00000282
     atom  143 type  2   force =    -0.00000129    0.00000407   -0.00000333
     atom  144 type  2   force =     0.00000001   -0.00000009    0.00000136

     Total force =     0.003589     Total SCF correction =     0.000065


     Computing stress (Cartesian axis) and pressure



     -----------------------------------------------
     Non-local corr. energy    =      69.32939842 Ry
     -----------------------------------------------

          total   stress  (Ry/bohr**3)                   (kbar)     P=        9.10
   0.00006085   0.00000000   0.00000000            8.95        0.00        0.00
   0.00000000   0.00006084   0.00000000            0.00        8.95        0.00
   0.00000000   0.00000000   0.00006391            0.00        0.00        9.40

     kinetic stress (kbar)  14946.84      0.00      0.00
                                0.00  14946.84      0.00
                                0.00      0.00  14955.80

     local   stress (kbar)  -7243.19      0.00      0.00
                                0.00  -7243.20      0.01
                                0.00      0.01   1029.10

     nonloc. stress (kbar)   -997.51      0.00      0.00
                                0.00   -997.51      0.00
                                0.00      0.00  -1003.54

     hartree stress (kbar)  11960.26     -0.00     -0.00
                               -0.00  11960.26     -0.00
                               -0.00     -0.00   8219.41

     exc-cor stress (kbar)   6969.02     -0.00     -0.00
                               -0.00   6969.02      0.00
                               -0.00      0.00   6968.23

     corecor stress (kbar) -11344.58      0.00     -0.00
                                0.00 -11344.58     -0.00
                               -0.00     -0.00 -11344.50

     ewald   stress (kbar) -14365.63     -0.00     -0.00
                               -0.00 -14365.63     -0.00
                               -0.00     -0.00 -18899.98

     hubbard stress (kbar)      0.00      0.00      0.00
                                0.00      0.00      0.00
                                0.00      0.00      0.00

     DFT-D   stress (kbar)      0.00      0.00      0.00
                                0.00      0.00      0.00
                                0.00      0.00      0.00

     XDM     stress (kbar)      0.00      0.00      0.00
                                0.00      0.00      0.00
                                0.00      0.00      0.00

     dft-nl  stress (kbar)     83.74      0.00      0.00
                                0.00     83.74      0.00
                                0.00      0.00     84.88

     TS-vdW  stress (kbar)      0.00      0.00      0.00
                                0.00      0.00      0.00
                                0.00      0.00      0.00

     MDB     stress (kbar)      0.00      0.00      0.00
                                0.00      0.00      0.00
                                0.00      0.00      0.00

     3D-RISM stress (kbar)      0.00      0.00      0.00
                                0.00      0.00      0.00
                                0.00      0.00      0.00

     Energy error            =      6.4E-05 Ry
     Gradient error          =      5.9E-04 Ry/Bohr

     bfgs converged in  27 scf cycles and  26 bfgs steps
     (criteria: energy <  1.0E-04 Ry, force <  1.0E-03 Ry/Bohr)

     End of BFGS Geometry Optimization

     Final energy             =  -96800.3467043725 Ry

     File ./PbI2.bfgs deleted, as requested
Begin final coordinates

ATOMIC_POSITIONS (angstrom)
Pb            2.3557271749        4.0797742851        7.3317539285
Pb            2.3557385560        4.0797416796       14.8013584118
Pb            0.1463840072        7.9064159093       22.1330063221
Pb            0.0018471316        8.1615836185        7.3639404706
Pb           -0.0022829048        8.1591718844       14.7692028705
Pb           -2.3553253293       12.2395607853       22.1329400574
Pb           -2.3448873230       12.2460775184        7.3599059466
Pb           -2.3661556242       12.2337669836       14.7731286873
Pb           -4.8571376409       16.5728031290       22.1329238638
Pb           -4.7087799867       16.3206371001        7.3639098427
Pb           -4.7129401671       16.3181891277       14.7691408164
Pb            6.7749257471        4.0795803106       22.1330419136
Pb            7.0676562482        4.0773353530        7.3639122439
Pb            7.0676331096        4.0820632225       14.7691592767
Pb            4.5652268730        7.9064648054       22.1330000476
Pb            4.7096339867        8.1615652835        7.3639778068
Pb            4.7137913619        8.1591670899       14.7692418863
Pb            2.3557841421       12.1809138909       22.1613436019
Pb            2.3557449986       12.2666752073        7.4327636047
Pb            2.3557319850       12.2350719418       14.7831731097
Pb           -0.0507841020       16.3492312590       22.1613692932
Pb            0.0233481941       16.3065607365        7.4328211907
Pb           -0.0041304433       16.3224440315       14.7831497078
Pb           11.7784111970        4.0796145515       22.1331067813
Pb           11.7782670233        4.0674733385        7.3599580647
Pb           11.7782779188        4.0920338365       14.7732036610
Pb            9.3717309852        8.1302567607       22.1045185150
Pb            9.4184068082        8.1574204178        7.3499453296
Pb            9.4458650999        8.1731601960       14.7003235906
Pb            7.0669225393       12.2396337667       22.1328987920
Pb            7.0563437892       12.2460781491        7.3599226788
Pb            7.0776375856       12.2337658905       14.7731561784
Pb            4.7623768929       16.3492437222       22.1613567518
Pb            4.6881554634       16.3065687904        7.4327799487
Pb            4.7155940088       16.3224441978       14.7831729218
Pb           16.7818572814        4.0795772395       22.1330224016
Pb           16.4888847326        4.0773453554        7.3638910281
Pb           16.4889346194        4.0820703591       14.7691637976
Pb           14.1849271561        8.1302519567       22.1045150139
Pb           14.1381043010        8.1574231601        7.3499201476
Pb           14.1107380554        8.1731501234       14.7003218431
Pb           11.7783269679       12.2985582414       22.1044122352
Pb           11.7782562988       12.2448148769        7.3499052560
Pb           11.7782923685       12.2130140278       14.7001274991
Pb            9.5687343213       16.5728290817       22.1328973759
Pb            9.4202746813       16.3206308920        7.3639238348
Pb            9.4244513492       16.3181710339       14.7691841044
I             2.3557288305        1.3563602813        5.4896867210
I             2.3557069820        1.3640483888       12.8762423025
I             2.3557874666        0.7850396414       19.8920518216
I            -0.0029070164        5.4415443989        5.4897094660
I             0.0037816542        5.4377208666       12.8762664382
I            -0.4973873890        5.7268622695       19.8919723063
I            -2.3484783826        9.5217959570        5.4882430584
I            -2.3406108386        9.5358505610       12.8502646281
I            -2.3517189052        9.5307590146       20.2856460237
I            -4.7060271139       13.6051747048        5.4882251750
I            -4.6898280789       13.6048880631       12.8501728988
I            -4.6994702588       13.5972656217       20.2856205314
I             7.1409558673        1.3169371998        5.5717052087
I             7.0708188583        1.3575208367       12.8714743037
I             7.0455847370        1.3720640589       20.2272664821
I             4.7143433453        5.4415334273        5.4897249797
I             4.7076485027        5.4377313125       12.8762925458
I             5.2090197408        5.7268787206       19.8920182799
I             2.3557808176        9.6052310992        5.5716923464
I             2.3557498398        9.5243348924       12.8715803180
I             2.3557779067        9.4948329452       20.2272910082
I             0.0145137219       13.6082810462        5.5188859916
I             0.0019688400       13.6010947199       12.8914422603
I             0.0034281659       13.6018049250       20.2367679488
I            11.7782638706        1.3431499181        5.5189035509
I            11.7782594435        1.3576285447       12.8914860486
I            11.7782960532        1.3559099220       20.2368751352
I             9.4207365876        5.4327720071        5.4882600042
I             9.4290217525        5.4188181729       12.8502631208
I             9.4306395450        5.4308999922       20.2857133421
I             7.0599035954        9.5217957964        5.4882588569
I             7.0520877976        9.5358407813       12.8502986079
I             7.0632796657        9.5308178079       20.2856348225
I             4.6969436529       13.6082784179        5.5188733539
I             4.7094668710       13.6010995443       12.8914699466
I             4.7080504649       13.6018256418       20.2367549616
I            16.4156235839        1.3169065893        5.5716892950
I            16.4857172906        1.3574973604       12.8715196629
I            16.5110493639        1.3720663395       20.2272472866
I            14.1357640018        5.4327622751        5.4882459217
I            14.1275164215        5.4188094576       12.8502569890
I            14.1261385233        5.4309034227       20.2857143208
I            11.7782369077        9.5199301308        5.4878633589
I            11.7782770675        9.5197816061       12.7623183388
I            11.7782878066        9.5197689975       20.2653906843
I             9.4174443114       13.6051777919        5.4882265814
I             9.4012998183       13.6048861028       12.8501997864
I             9.4110429355       13.5973450721       20.2856095846
I            -0.4973988943        2.4322899012        2.2408459605
I             0.0037599983        2.7219503015        9.2568297986
I            -0.0028437249        2.7179963762       16.6433542167
I            -2.3339692373        6.7872613027        1.9055005027
I            -2.3594233148        6.8020485796        9.2615576791
I            -2.4295235393        6.8424176511       16.5613966650
I            -4.7144305200       10.8779478064        1.8958880137
I            -4.7130622170       10.8788940607        9.2416064199
I            -4.7255780114       10.8716035474       16.6140648922
I            -7.0667872043       14.9846705640        1.9053656783
I            -7.0668098362       14.9556079246        9.2615729450
I            -7.0667336781       14.8744779506       16.5613284811
I             5.2089812631        2.4322997936        2.2408083716
I             4.7076481191        2.7219443959        9.2568367261
I             4.7142913907        2.7180054159       16.6433501093
I             2.3557889015        7.3740875387        2.2409852946
I             2.3556978975        6.7956097929        9.2568962881
I             2.3557318137        6.8032687529       16.6433849970
I            -0.0112260926       10.8820449107        1.8471900224
I            -0.0212465489       10.8750113568        9.2828567078
I            -0.0050956456       10.8747680225       16.6448131285
I            -2.3590435225       14.9484872923        1.8471834270
I            -2.3704810873       14.9439967759        9.2828543420
I            -2.3626232419       14.9581164053       16.6447873867
I             9.4305696429        2.7283768000        1.8472422980
I             9.4290135279        2.7406582566        9.2828663365
I             9.4207196434        2.7268205012       16.6448307944
I             7.0455273927        6.7872963114        1.9055123884
I             7.0708567224        6.8020332686        9.2616077363
I             7.1410546819        6.8423715919       16.5613950003
I             4.7227916649       10.8821066746        1.8471676093
I             4.7327019567       10.8750018438        9.2828808090
I             4.7165359644       10.8747760641       16.6448271288
I             2.3557625568       14.9599120625        1.8673867374
I             2.3557424618       14.9599866604        9.3707152801
I             2.3557081559       14.9600385002       16.6451887579
I            14.1261937125        2.7283741666        1.8472429838
I            14.1275151032        2.7406548484        9.2828433837
I            14.1358036981        2.7268334309       16.6448358494
I            11.7782950497        6.8036352412        1.8960003637
I            11.7782488046        6.8020525662        9.2416464529
I            11.7782834755        6.8164548276       16.6141951551
I             9.4259113541       10.8779654573        1.8958715621
I             9.4244778446       10.8788970772        9.2416267447
I             9.4370469695       10.8716151894       16.6140803329
I             7.0705973985       14.9485420825        1.8471669258
I             7.0819408408       14.9440007966        9.2828555815
I             7.0740698799       14.9581127763       16.6448057972
I             2.3557836005        4.0796708059       22.1329830759
End final coordinates



     Writing all to output data dir ./PbI2.save/
 
     init_run     :      7.94s CPU     10.64s WALL (       1 calls)
     electrons    :  56971.09s CPU  57825.71s WALL (       8 calls)
     update_pot   :     18.16s CPU     18.34s WALL (       7 calls)
     forces       :    156.69s CPU    162.31s WALL (       8 calls)
     stress       :   2853.43s CPU   2897.39s WALL (       8 calls)

     Called by init_run:
     wfcinit      :      0.63s CPU      2.57s WALL (       1 calls)
     potinit      :      1.71s CPU      2.03s WALL (       1 calls)
     hinit0       :      1.59s CPU      1.71s WALL (       1 calls)

     Called by electrons:
     c_bands      :  56037.77s CPU  56832.14s WALL (      95 calls)
     sum_band     :    740.09s CPU    774.12s WALL (      95 calls)
     v_of_rho     :     73.98s CPU     77.20s WALL (      96 calls)
     v_h          :      0.96s CPU      0.97s WALL (      96 calls)
     v_xc         :     85.90s CPU     89.29s WALL (     112 calls)
     newd         :     50.84s CPU     69.66s WALL (      96 calls)
     PAW_pot      :     57.98s CPU     58.55s WALL (     103 calls)
     mix_rho      :      3.59s CPU      4.16s WALL (      95 calls)
     vdW_kernel   :      0.24s CPU      0.25s WALL (       1 calls)

     Called by c_bands:
     init_us_2    :     20.00s CPU     20.47s WALL (     196 calls)
     init_us_2:cp :     20.00s CPU     20.46s WALL (     196 calls)
     cegterg      :  55981.05s CPU  56717.86s WALL (      94 calls)

     Called by sum_band:
     sum_band:wei :      0.09s CPU      0.10s WALL (      95 calls)
     sum_band:loo :    687.70s CPU    693.44s WALL (      95 calls)
     sum_band:buf :      0.00s CPU      0.00s WALL (      95 calls)
     sum_band:ini :     14.52s CPU     14.89s WALL (      95 calls)
     sum_band:cal :    397.45s CPU    400.69s WALL (     102 calls)
     sum_band:bec :      4.31s CPU      4.40s WALL (     102 calls)
     addusdens    :     47.53s CPU     71.07s WALL (      95 calls)
     addusd:skk   :      2.86s CPU      8.66s WALL (     190 calls)
     addusd:dgemm :     26.39s CPU     43.47s WALL (     190 calls)
     addusd:qvan2 :     17.18s CPU     17.43s WALL (     190 calls)

     Called by *egterg:
     cdiaghg      :  46660.87s CPU  47026.47s WALL (    1395 calls)
     cegterg:over :   2060.42s CPU   2119.67s WALL (    1315 calls)
     cegterg:upda :   1299.62s CPU   1320.86s WALL (    1315 calls)
     cegterg:last :    536.77s CPU    540.83s WALL (      94 calls)
     h_psi        :   3805.80s CPU   3863.78s WALL (    1409 calls)
     s_psi        :   1055.50s CPU   1073.06s WALL (    1409 calls)
     g_psi        :      4.80s CPU      4.87s WALL (    1315 calls)

     Called by h_psi:
     h_psi:calbec :   1139.65s CPU   1149.45s WALL (    1409 calls)
     vloc_psi     :   1591.64s CPU   1606.11s WALL (    1409 calls)
     add_vuspsi   :   1055.77s CPU   1074.59s WALL (    1409 calls)

     General routines
     calbec       :   1693.26s CPU   1707.72s WALL (    1551 calls)
     fft          :     59.30s CPU     60.01s WALL (    7398 calls)
     ffts         :      1.83s CPU      1.88s WALL (     191 calls)
     fftw         :   1808.22s CPU   1823.75s WALL (  892230 calls)
     interpolate  :      1.80s CPU      1.83s WALL (      96 calls)
     davcio       :      0.00s CPU      1.82s WALL (      13 calls)
 
     Parallel routines

     PAW routines
     PAW_pot      :     57.98s CPU     58.55s WALL (     103 calls)
 
     PWSCF        :     16h40m CPU     16h56m WALL

 
   This run was terminated on:  23:55:56  24Apr2024            

=------------------------------------------------------------------------------=
   JOB DONE.
=------------------------------------------------------------------------------=
