
     Program PWSCF v.7.1 starts on 18Feb2024 at 17:50:33 

     This program is part of the open-source Quantum ESPRESSO suite
     for quantum simulation of materials; please cite
         "P. Giannozzi et al., J. Phys.:Condens. Matter 21 395502 (2009);
         "P. Giannozzi et al., J. Phys.:Condens. Matter 29 465901 (2017);
         "P. Giannozzi et al., J. Chem. Phys. 152 154105 (2020);
          URL http://www.quantum-espresso.org", 
     in publications or presentations arising from this work. More details at
     http://www.quantum-espresso.org/quote

     Parallel version (MPI & OpenMP), running on     256 processor cores
     Number of MPI processes:               256
     Threads/MPI process:                     1

     MPI processes distributed on     2 nodes
     954383 MiB available memory on the printing compute node when the environment starts
 
     Reading input from espresso.pwi
Warning: card &CELL ignored
Warning: card    CELL_DYNAMICS    = 'BFGS' ignored
Warning: card / ignored

     Current dimensions of program PWSCF are:
     Max number of different atomic species (ntypx) = 10
     Max number of k-points (npk) =  40000
     Max angular momentum in pseudopotentials (lmaxx) =  4
     file C.pbe-n-kjpaw_psl.1.0.0.UPF: wavefunction(s)  2S 2P renormalized

     **************************************************************************
     Initializing libbeef V0.1.2 with the BEEF-vdW functional.
     Citation: Wellendorff et al., PRB 85, 235149 (2012).
     **************************************************************************


     IMPORTANT: XC functional enforced from input :
     Exchange-correlation= BEEF-VDW
                           (   1   4  43  14   2   0   0)
     Any further DFT definition will be discarded
     Please, verify this is what you really want

     Found identity + (  0.0000  0.0000  0.2500) symmetry
     This is a supercell, fractional translations are disabled
 
     R & G space division:  proc/nbgrp/npool/nimage =     256
     WARNING: too many processors for an effective parallelization!
     wavefunctions fft division:  task group distribution
                                  #TG    x Z-proc =       8     32
     Subspace diagonalization in iterative solution of the eigenvalue problem:
     a serial algorithm will be used

 
     Parallelization info
     --------------------
     sticks:   dense  smooth     PW     G-vecs:    dense   smooth      PW
     Min          79      63     15                 8501     6083     751
     Max          80      64     16                 8510     6094     766
     Sum       20305   16237   4049              2177001  1558403  194543
 
     Using Pencil Decomposition
 


     bravais-lattice index     =            1
     lattice parameter (alat)  =      27.0027  a.u.
     unit-cell volume          =   19688.9026 (a.u.)^3
     number of atoms/cell      =          512
     number of atomic types    =            1
     number of electrons       =      2048.00
     number of Kohn-Sham states=         1229
     kinetic-energy cutoff     =      70.0000  Ry
     charge density cutoff     =     350.0000  Ry
     scf convergence threshold =      1.0E-07
     mixing beta               =       0.7000
     number of iterations used =            8  plain     mixing
     energy convergence thresh.=      1.0E-04
     force convergence thresh. =      1.0E-03
     Exchange-correlation= BEEF-VDW
                           (   1   4  43  14   2   0   0)
     nstep                     =           50


     celldm(1)=  27.002699  celldm(2)=   0.000000  celldm(3)=   0.000000
     celldm(4)=   0.000000  celldm(5)=   0.000000  celldm(6)=   0.000000

     crystal axes: (cart. coord. in units of alat)
               a(1) = (   1.000000   0.000000   0.000000 )  
               a(2) = (   0.000000   1.000000   0.000000 )  
               a(3) = (   0.000000   0.000000   1.000000 )  

     reciprocal axes: (cart. coord. in units 2 pi/alat)
               b(1) = (  1.000000  0.000000  0.000000 )  
               b(2) = (  0.000000  1.000000  0.000000 )  
               b(3) = (  0.000000  0.000000  1.000000 )  


     PseudoPot. # 1 for C  read from file:
     /trace/group/acmegroup/atimmins/packages/espresso/pseudo/psl_1.0.0/pslibrary.1.0.0/pbe/PSEUDOPOTENTIALS/C.pbe-n-kjpaw_psl.1.0.0.UPF
     MD5 check sum: 5459cf7f2c8c37df2f7cde8914797f4d
     Pseudo is Projector augmented-wave + core cor, Zval =  4.0
     Generated using 'atomic' code by A. Dal Corso  v.7.1
     Shape of augmentation charge: PSQ
     Using radial grid of 1073 points,  4 beta functions with: 
                l(1) =   0
                l(2) =   0
                l(3) =   1
                l(4) =   1
     Q(r) pseudized with 0 coefficients 


     atomic species   valence    mass     pseudopotential
        C              4.00    12.01100     C ( 1.00)

     24 Sym. Ops. (no inversion) found


                                    s                        frac. trans.

      isym =  1     identity                                     

 cryst.   s( 1) = (     1          0          0      )
                  (     0          1          0      )
                  (     0          0          1      )

 cart.    s( 1) = (  1.0000000  0.0000000  0.0000000 )
                  (  0.0000000  1.0000000  0.0000000 )
                  (  0.0000000  0.0000000  1.0000000 )


      isym =  2     180 deg rotation - cart. axis [0,0,1]        

 cryst.   s( 2) = (    -1          0          0      )
                  (     0         -1          0      )
                  (     0          0          1      )

 cart.    s( 2) = ( -1.0000000  0.0000000  0.0000000 )
                  (  0.0000000 -1.0000000  0.0000000 )
                  (  0.0000000  0.0000000  1.0000000 )


      isym =  3     180 deg rotation - cart. axis [0,1,0]        

 cryst.   s( 3) = (    -1          0          0      )
                  (     0          1          0      )
                  (     0          0         -1      )

 cart.    s( 3) = ( -1.0000000  0.0000000  0.0000000 )
                  (  0.0000000  1.0000000  0.0000000 )
                  (  0.0000000  0.0000000 -1.0000000 )


      isym =  4     180 deg rotation - cart. axis [1,0,0]        

 cryst.   s( 4) = (     1          0          0      )
                  (     0         -1          0      )
                  (     0          0         -1      )

 cart.    s( 4) = (  1.0000000  0.0000000  0.0000000 )
                  (  0.0000000 -1.0000000  0.0000000 )
                  (  0.0000000  0.0000000 -1.0000000 )


      isym =  5     120 deg rotation - cart. axis [-1,-1,-1]     

 cryst.   s( 5) = (     0          0          1      )
                  (     1          0          0      )
                  (     0          1          0      )

 cart.    s( 5) = (  0.0000000  1.0000000  0.0000000 )
                  (  0.0000000  0.0000000  1.0000000 )
                  (  1.0000000  0.0000000  0.0000000 )


      isym =  6     120 deg rotation - cart. axis [-1,1,1]       

 cryst.   s( 6) = (     0          0         -1      )
                  (    -1          0          0      )
                  (     0          1          0      )

 cart.    s( 6) = (  0.0000000 -1.0000000  0.0000000 )
                  (  0.0000000  0.0000000  1.0000000 )
                  ( -1.0000000  0.0000000  0.0000000 )


      isym =  7     120 deg rotation - cart. axis [1,1,-1]       

 cryst.   s( 7) = (     0          0         -1      )
                  (     1          0          0      )
                  (     0         -1          0      )

 cart.    s( 7) = (  0.0000000  1.0000000  0.0000000 )
                  (  0.0000000  0.0000000 -1.0000000 )
                  ( -1.0000000  0.0000000  0.0000000 )


      isym =  8     120 deg rotation - cart. axis [1,-1,1]       

 cryst.   s( 8) = (     0          0          1      )
                  (    -1          0          0      )
                  (     0         -1          0      )

 cart.    s( 8) = (  0.0000000 -1.0000000  0.0000000 )
                  (  0.0000000  0.0000000 -1.0000000 )
                  (  1.0000000  0.0000000  0.0000000 )


      isym =  9     120 deg rotation - cart. axis [1,1,1]        

 cryst.   s( 9) = (     0          1          0      )
                  (     0          0          1      )
                  (     1          0          0      )

 cart.    s( 9) = (  0.0000000  0.0000000  1.0000000 )
                  (  1.0000000  0.0000000  0.0000000 )
                  (  0.0000000  1.0000000  0.0000000 )


      isym = 10     120 deg rotation - cart. axis [-1,1,-1]      

 cryst.   s(10) = (     0         -1          0      )
                  (     0          0         -1      )
                  (     1          0          0      )

 cart.    s(10) = (  0.0000000  0.0000000  1.0000000 )
                  ( -1.0000000  0.0000000  0.0000000 )
                  (  0.0000000 -1.0000000  0.0000000 )


      isym = 11     120 deg rotation - cart. axis [1,-1,-1]      

 cryst.   s(11) = (     0         -1          0      )
                  (     0          0          1      )
                  (    -1          0          0      )

 cart.    s(11) = (  0.0000000  0.0000000 -1.0000000 )
                  ( -1.0000000  0.0000000  0.0000000 )
                  (  0.0000000  1.0000000  0.0000000 )


      isym = 12     120 deg rotation - cart. axis [-1,-1,1]      

 cryst.   s(12) = (     0          1          0      )
                  (     0          0         -1      )
                  (    -1          0          0      )

 cart.    s(12) = (  0.0000000  0.0000000 -1.0000000 )
                  (  1.0000000  0.0000000  0.0000000 )
                  (  0.0000000 -1.0000000  0.0000000 )


      isym = 13     inv. 180 deg rotation - cart. axis [1,1,0]   

 cryst.   s(13) = (     0         -1          0      )
                  (    -1          0          0      )
                  (     0          0          1      )

 cart.    s(13) = (  0.0000000 -1.0000000  0.0000000 )
                  ( -1.0000000  0.0000000  0.0000000 )
                  (  0.0000000  0.0000000  1.0000000 )


      isym = 14     inv. 180 deg rotation - cart. axis [1,-1,0]  

 cryst.   s(14) = (     0          1          0      )
                  (     1          0          0      )
                  (     0          0          1      )

 cart.    s(14) = (  0.0000000  1.0000000  0.0000000 )
                  (  1.0000000  0.0000000  0.0000000 )
                  (  0.0000000  0.0000000  1.0000000 )


      isym = 15     inv.  90 deg rotation - cart. axis [0,0,-1]  

 cryst.   s(15) = (     0          1          0      )
                  (    -1          0          0      )
                  (     0          0         -1      )

 cart.    s(15) = (  0.0000000 -1.0000000  0.0000000 )
                  (  1.0000000  0.0000000  0.0000000 )
                  (  0.0000000  0.0000000 -1.0000000 )


      isym = 16     inv.  90 deg rotation - cart. axis [0,0,1]   

 cryst.   s(16) = (     0         -1          0      )
                  (     1          0          0      )
                  (     0          0         -1      )

 cart.    s(16) = (  0.0000000  1.0000000  0.0000000 )
                  ( -1.0000000  0.0000000  0.0000000 )
                  (  0.0000000  0.0000000 -1.0000000 )


      isym = 17     inv. 180 deg rotation - cart. axis [1,0,1]   

 cryst.   s(17) = (     0          0         -1      )
                  (     0          1          0      )
                  (    -1          0          0      )

 cart.    s(17) = (  0.0000000  0.0000000 -1.0000000 )
                  (  0.0000000  1.0000000  0.0000000 )
                  ( -1.0000000  0.0000000  0.0000000 )


      isym = 18     inv. 180 deg rotation - cart. axis [-1,0,1]  

 cryst.   s(18) = (     0          0          1      )
                  (     0          1          0      )
                  (     1          0          0      )

 cart.    s(18) = (  0.0000000  0.0000000  1.0000000 )
                  (  0.0000000  1.0000000  0.0000000 )
                  (  1.0000000  0.0000000  0.0000000 )


      isym = 19     inv.  90 deg rotation - cart. axis [0,1,0]   

 cryst.   s(19) = (     0          0          1      )
                  (     0         -1          0      )
                  (    -1          0          0      )

 cart.    s(19) = (  0.0000000  0.0000000 -1.0000000 )
                  (  0.0000000 -1.0000000  0.0000000 )
                  (  1.0000000  0.0000000  0.0000000 )


      isym = 20     inv.  90 deg rotation - cart. axis [0,-1,0]  

 cryst.   s(20) = (     0          0         -1      )
                  (     0         -1          0      )
                  (     1          0          0      )

 cart.    s(20) = (  0.0000000  0.0000000  1.0000000 )
                  (  0.0000000 -1.0000000  0.0000000 )
                  ( -1.0000000  0.0000000  0.0000000 )


      isym = 21     inv. 180 deg rotation - cart. axis [0,1,1]   

 cryst.   s(21) = (     1          0          0      )
                  (     0          0         -1      )
                  (     0         -1          0      )

 cart.    s(21) = (  1.0000000  0.0000000  0.0000000 )
                  (  0.0000000  0.0000000 -1.0000000 )
                  (  0.0000000 -1.0000000  0.0000000 )


      isym = 22     inv. 180 deg rotation - cart. axis [0,1,-1]  

 cryst.   s(22) = (     1          0          0      )
                  (     0          0          1      )
                  (     0          1          0      )

 cart.    s(22) = (  1.0000000  0.0000000  0.0000000 )
                  (  0.0000000  0.0000000  1.0000000 )
                  (  0.0000000  1.0000000  0.0000000 )


      isym = 23     inv.  90 deg rotation - cart. axis [-1,0,0]  

 cryst.   s(23) = (    -1          0          0      )
                  (     0          0          1      )
                  (     0         -1          0      )

 cart.    s(23) = ( -1.0000000  0.0000000  0.0000000 )
                  (  0.0000000  0.0000000 -1.0000000 )
                  (  0.0000000  1.0000000  0.0000000 )


      isym = 24     inv.  90 deg rotation - cart. axis [1,0,0]   

 cryst.   s(24) = (    -1          0          0      )
                  (     0          0         -1      )
                  (     0          1          0      )

 cart.    s(24) = ( -1.0000000  0.0000000  0.0000000 )
                  (  0.0000000  0.0000000  1.0000000 )
                  (  0.0000000 -1.0000000  0.0000000 )


     point group T_d (-43m) 
     there are  5 classes
     the character table:

       E     8C3   3C2   6S4   6s_d 
A_1    1.00  1.00  1.00  1.00  1.00
A_2    1.00  1.00  1.00 -1.00 -1.00
E      2.00 -1.00  2.00  0.00  0.00
T_1    3.00  0.00 -1.00  1.00 -1.00
T_2    3.00  0.00 -1.00 -1.00  1.00

     the symmetry operations in each class and the name of the first element:

     E        1
          identity                                               
     8C3      5    7    8    6   12    9   10   11
          120 deg rotation - cart. axis [-1,-1,-1]               
     3C2      2    3    4
          180 deg rotation - cart. axis [0,0,1]                  
     6S4     15   16   20   19   23   24
          inv.  90 deg rotation - cart. axis [0,0,-1]            
     6s_d    13   14   17   18   21   22
          inv. 180 deg rotation - cart. axis [1,1,0]             

   Cartesian axes

     site n.     atom                  positions (alat units)
         1           C   tau(   1) = (   0.0625015   0.1874985   0.0625015  )
         2           C   tau(   2) = (   0.0625015   0.1874985   0.3125015  )
         3           C   tau(   3) = (   0.0625015   0.1874985   0.5625015  )
         4           C   tau(   4) = (   0.0625015   0.1874985   0.8125015  )
         5           C   tau(   5) = (   0.0625015   0.4374985   0.0625015  )
         6           C   tau(   6) = (   0.0625015   0.4374985   0.3125015  )
         7           C   tau(   7) = (   0.0625015   0.4374985   0.5625015  )
         8           C   tau(   8) = (   0.0625015   0.4374985   0.8125015  )
         9           C   tau(   9) = (   0.0625015   0.6874985   0.0625015  )
        10           C   tau(  10) = (   0.0625015   0.6874985   0.3125015  )
        11           C   tau(  11) = (   0.0625015   0.6874985   0.5625015  )
        12           C   tau(  12) = (   0.0625015   0.6874985   0.8125015  )
        13           C   tau(  13) = (   0.0625015   0.9374985   0.0625015  )
        14           C   tau(  14) = (   0.0625015   0.9374985   0.3125015  )
        15           C   tau(  15) = (   0.0625015   0.9374985   0.5625015  )
        16           C   tau(  16) = (   0.0625015   0.9374985   0.8125015  )
        17           C   tau(  17) = (   0.3125015   0.1874985   0.0625015  )
        18           C   tau(  18) = (   0.3125015   0.1874985   0.3125015  )
        19           C   tau(  19) = (   0.3125015   0.1874985   0.5625015  )
        20           C   tau(  20) = (   0.3125015   0.1874985   0.8125015  )
        21           C   tau(  21) = (   0.3125015   0.4374985   0.0625015  )
        22           C   tau(  22) = (   0.3125015   0.4374985   0.3125015  )
        23           C   tau(  23) = (   0.3125015   0.4374985   0.5625015  )
        24           C   tau(  24) = (   0.3125015   0.4374985   0.8125015  )
        25           C   tau(  25) = (   0.3125015   0.6874985   0.0625015  )
        26           C   tau(  26) = (   0.3125015   0.6874985   0.3125015  )
        27           C   tau(  27) = (   0.3125015   0.6874985   0.5625015  )
        28           C   tau(  28) = (   0.3125015   0.6874985   0.8125015  )
        29           C   tau(  29) = (   0.3125015   0.9374985   0.0625015  )
        30           C   tau(  30) = (   0.3125015   0.9374985   0.3125015  )
        31           C   tau(  31) = (   0.3125015   0.9374985   0.5625015  )
        32           C   tau(  32) = (   0.3125015   0.9374985   0.8125015  )
        33           C   tau(  33) = (   0.5625015   0.1874985   0.0625015  )
        34           C   tau(  34) = (   0.5625015   0.1874985   0.3125015  )
        35           C   tau(  35) = (   0.5625015   0.1874985   0.5625015  )
        36           C   tau(  36) = (   0.5625015   0.1874985   0.8125015  )
        37           C   tau(  37) = (   0.5625015   0.4374985   0.0625015  )
        38           C   tau(  38) = (   0.5625015   0.4374985   0.3125015  )
        39           C   tau(  39) = (   0.5625015   0.4374985   0.5625015  )
        40           C   tau(  40) = (   0.5625015   0.4374985   0.8125015  )
        41           C   tau(  41) = (   0.5625015   0.6874985   0.0625015  )
        42           C   tau(  42) = (   0.5625015   0.6874985   0.3125015  )
        43           C   tau(  43) = (   0.5625015   0.6874985   0.5625015  )
        44           C   tau(  44) = (   0.5625015   0.6874985   0.8125015  )
        45           C   tau(  45) = (   0.5625015   0.9374985   0.0625015  )
        46           C   tau(  46) = (   0.5625015   0.9374985   0.3125015  )
        47           C   tau(  47) = (   0.5625015   0.9374985   0.5625015  )
        48           C   tau(  48) = (   0.5625015   0.9374985   0.8125015  )
        49           C   tau(  49) = (   0.8125015   0.1874985   0.0625015  )
        50           C   tau(  50) = (   0.8125015   0.1874985   0.3125015  )
        51           C   tau(  51) = (   0.8125015   0.1874985   0.5625015  )
        52           C   tau(  52) = (   0.8125015   0.1874985   0.8125015  )
        53           C   tau(  53) = (   0.8125015   0.4374985   0.0625015  )
        54           C   tau(  54) = (   0.8125015   0.4374985   0.3125015  )
        55           C   tau(  55) = (   0.8125015   0.4374985   0.5625015  )
        56           C   tau(  56) = (   0.8125015   0.4374985   0.8125015  )
        57           C   tau(  57) = (   0.8125015   0.6874985   0.0625015  )
        58           C   tau(  58) = (   0.8125015   0.6874985   0.3125015  )
        59           C   tau(  59) = (   0.8125015   0.6874985   0.5625015  )
        60           C   tau(  60) = (   0.8125015   0.6874985   0.8125015  )
        61           C   tau(  61) = (   0.8125015   0.9374985   0.0625015  )
        62           C   tau(  62) = (   0.8125015   0.9374985   0.3125015  )
        63           C   tau(  63) = (   0.8125015   0.9374985   0.5625015  )
        64           C   tau(  64) = (   0.8125015   0.9374985   0.8125015  )
        65           C   tau(  65) = (   0.0000000   0.0000000   0.1250000  )
        66           C   tau(  66) = (   0.0000000   0.0000000   0.3750000  )
        67           C   tau(  67) = (   0.0000000   0.0000000   0.6250000  )
        68           C   tau(  68) = (   0.0000000   0.0000000   0.8750000  )
        69           C   tau(  69) = (   0.0000000   0.2500000   0.1250000  )
        70           C   tau(  70) = (   0.0000000   0.2500000   0.3750000  )
        71           C   tau(  71) = (   0.0000000   0.2500000   0.6250000  )
        72           C   tau(  72) = (   0.0000000   0.2500000   0.8750000  )
        73           C   tau(  73) = (   0.0000000   0.5000000   0.1250000  )
        74           C   tau(  74) = (   0.0000000   0.5000000   0.3750000  )
        75           C   tau(  75) = (   0.0000000   0.5000000   0.6250000  )
        76           C   tau(  76) = (   0.0000000   0.5000000   0.8750000  )
        77           C   tau(  77) = (   0.0000000   0.7500000   0.1250000  )
        78           C   tau(  78) = (   0.0000000   0.7500000   0.3750000  )
        79           C   tau(  79) = (   0.0000000   0.7500000   0.6250000  )
        80           C   tau(  80) = (   0.0000000   0.7500000   0.8750000  )
        81           C   tau(  81) = (   0.2500000   0.0000000   0.1250000  )
        82           C   tau(  82) = (   0.2500000   0.0000000   0.3750000  )
        83           C   tau(  83) = (   0.2500000   0.0000000   0.6250000  )
        84           C   tau(  84) = (   0.2500000   0.0000000   0.8750000  )
        85           C   tau(  85) = (   0.2500000   0.2500000   0.1250000  )
        86           C   tau(  86) = (   0.2500000   0.2500000   0.3750000  )
        87           C   tau(  87) = (   0.2500000   0.2500000   0.6250000  )
        88           C   tau(  88) = (   0.2500000   0.2500000   0.8750000  )
        89           C   tau(  89) = (   0.2500000   0.5000000   0.1250000  )
        90           C   tau(  90) = (   0.2500000   0.5000000   0.3750000  )
        91           C   tau(  91) = (   0.2500000   0.5000000   0.6250000  )
        92           C   tau(  92) = (   0.2500000   0.5000000   0.8750000  )
        93           C   tau(  93) = (   0.2500000   0.7500000   0.1250000  )
        94           C   tau(  94) = (   0.2500000   0.7500000   0.3750000  )
        95           C   tau(  95) = (   0.2500000   0.7500000   0.6250000  )
        96           C   tau(  96) = (   0.2500000   0.7500000   0.8750000  )
        97           C   tau(  97) = (   0.5000000   0.0000000   0.1250000  )
        98           C   tau(  98) = (   0.5000000   0.0000000   0.3750000  )
        99           C   tau(  99) = (   0.5000000   0.0000000   0.6250000  )
       100           C   tau( 100) = (   0.5000000   0.0000000   0.8750000  )
       101           C   tau( 101) = (   0.5000000   0.2500000   0.1250000  )
       102           C   tau( 102) = (   0.5000000   0.2500000   0.3750000  )
       103           C   tau( 103) = (   0.5000000   0.2500000   0.6250000  )
       104           C   tau( 104) = (   0.5000000   0.2500000   0.8750000  )
       105           C   tau( 105) = (   0.5000000   0.5000000   0.1250000  )
       106           C   tau( 106) = (   0.5000000   0.5000000   0.3750000  )
       107           C   tau( 107) = (   0.5000000   0.5000000   0.6250000  )
       108           C   tau( 108) = (   0.5000000   0.5000000   0.8750000  )
       109           C   tau( 109) = (   0.5000000   0.7500000   0.1250000  )
       110           C   tau( 110) = (   0.5000000   0.7500000   0.3750000  )
       111           C   tau( 111) = (   0.5000000   0.7500000   0.6250000  )
       112           C   tau( 112) = (   0.5000000   0.7500000   0.8750000  )
       113           C   tau( 113) = (   0.7500000   0.0000000   0.1250000  )
       114           C   tau( 114) = (   0.7500000   0.0000000   0.3750000  )
       115           C   tau( 115) = (   0.7500000   0.0000000   0.6250000  )
       116           C   tau( 116) = (   0.7500000   0.0000000   0.8750000  )
       117           C   tau( 117) = (   0.7500000   0.2500000   0.1250000  )
       118           C   tau( 118) = (   0.7500000   0.2500000   0.3750000  )
       119           C   tau( 119) = (   0.7500000   0.2500000   0.6250000  )
       120           C   tau( 120) = (   0.7500000   0.2500000   0.8750000  )
       121           C   tau( 121) = (   0.7500000   0.5000000   0.1250000  )
       122           C   tau( 122) = (   0.7500000   0.5000000   0.3750000  )
       123           C   tau( 123) = (   0.7500000   0.5000000   0.6250000  )
       124           C   tau( 124) = (   0.7500000   0.5000000   0.8750000  )
       125           C   tau( 125) = (   0.7500000   0.7500000   0.1250000  )
       126           C   tau( 126) = (   0.7500000   0.7500000   0.3750000  )
       127           C   tau( 127) = (   0.7500000   0.7500000   0.6250000  )
       128           C   tau( 128) = (   0.7500000   0.7500000   0.8750000  )
       129           C   tau( 129) = (   0.0625015   0.0625015   0.1874985  )
       130           C   tau( 130) = (   0.0625015   0.0625015   0.4374985  )
       131           C   tau( 131) = (   0.0625015   0.0625015   0.6874985  )
       132           C   tau( 132) = (   0.0625015   0.0625015   0.9374985  )
       133           C   tau( 133) = (   0.0625015   0.3125015   0.1874985  )
       134           C   tau( 134) = (   0.0625015   0.3125015   0.4374985  )
       135           C   tau( 135) = (   0.0625015   0.3125015   0.6874985  )
       136           C   tau( 136) = (   0.0625015   0.3125015   0.9374985  )
       137           C   tau( 137) = (   0.0625015   0.5625015   0.1874985  )
       138           C   tau( 138) = (   0.0625015   0.5625015   0.4374985  )
       139           C   tau( 139) = (   0.0625015   0.5625015   0.6874985  )
       140           C   tau( 140) = (   0.0625015   0.5625015   0.9374985  )
       141           C   tau( 141) = (   0.0625015   0.8125015   0.1874985  )
       142           C   tau( 142) = (   0.0625015   0.8125015   0.4374985  )
       143           C   tau( 143) = (   0.0625015   0.8125015   0.6874985  )
       144           C   tau( 144) = (   0.0625015   0.8125015   0.9374985  )
       145           C   tau( 145) = (   0.3125015   0.0625015   0.1874985  )
       146           C   tau( 146) = (   0.3125015   0.0625015   0.4374985  )
       147           C   tau( 147) = (   0.3125015   0.0625015   0.6874985  )
       148           C   tau( 148) = (   0.3125015   0.0625015   0.9374985  )
       149           C   tau( 149) = (   0.3125015   0.3125015   0.1874985  )
       150           C   tau( 150) = (   0.3125015   0.3125015   0.4374985  )
       151           C   tau( 151) = (   0.3125015   0.3125015   0.6874985  )
       152           C   tau( 152) = (   0.3125015   0.3125015   0.9374985  )
       153           C   tau( 153) = (   0.3125015   0.5625015   0.1874985  )
       154           C   tau( 154) = (   0.3125015   0.5625015   0.4374985  )
       155           C   tau( 155) = (   0.3125015   0.5625015   0.6874985  )
       156           C   tau( 156) = (   0.3125015   0.5625015   0.9374985  )
       157           C   tau( 157) = (   0.3125015   0.8125015   0.1874985  )
       158           C   tau( 158) = (   0.3125015   0.8125015   0.4374985  )
       159           C   tau( 159) = (   0.3125015   0.8125015   0.6874985  )
       160           C   tau( 160) = (   0.3125015   0.8125015   0.9374985  )
       161           C   tau( 161) = (   0.5625015   0.0625015   0.1874985  )
       162           C   tau( 162) = (   0.5625015   0.0625015   0.4374985  )
       163           C   tau( 163) = (   0.5625015   0.0625015   0.6874985  )
       164           C   tau( 164) = (   0.5625015   0.0625015   0.9374985  )
       165           C   tau( 165) = (   0.5625015   0.3125015   0.1874985  )
       166           C   tau( 166) = (   0.5625015   0.3125015   0.4374985  )
       167           C   tau( 167) = (   0.5625015   0.3125015   0.6874985  )
       168           C   tau( 168) = (   0.5625015   0.3125015   0.9374985  )
       169           C   tau( 169) = (   0.5625015   0.5625015   0.1874985  )
       170           C   tau( 170) = (   0.5625015   0.5625015   0.4374985  )
       171           C   tau( 171) = (   0.5625015   0.5625015   0.6874985  )
       172           C   tau( 172) = (   0.5625015   0.5625015   0.9374985  )
       173           C   tau( 173) = (   0.5625015   0.8125015   0.1874985  )
       174           C   tau( 174) = (   0.5625015   0.8125015   0.4374985  )
       175           C   tau( 175) = (   0.5625015   0.8125015   0.6874985  )
       176           C   tau( 176) = (   0.5625015   0.8125015   0.9374985  )
       177           C   tau( 177) = (   0.8125015   0.0625015   0.1874985  )
       178           C   tau( 178) = (   0.8125015   0.0625015   0.4374985  )
       179           C   tau( 179) = (   0.8125015   0.0625015   0.6874985  )
       180           C   tau( 180) = (   0.8125015   0.0625015   0.9374985  )
       181           C   tau( 181) = (   0.8125015   0.3125015   0.1874985  )
       182           C   tau( 182) = (   0.8125015   0.3125015   0.4374985  )
       183           C   tau( 183) = (   0.8125015   0.3125015   0.6874985  )
       184           C   tau( 184) = (   0.8125015   0.3125015   0.9374985  )
       185           C   tau( 185) = (   0.8125015   0.5625015   0.1874985  )
       186           C   tau( 186) = (   0.8125015   0.5625015   0.4374985  )
       187           C   tau( 187) = (   0.8125015   0.5625015   0.6874985  )
       188           C   tau( 188) = (   0.8125015   0.5625015   0.9374985  )
       189           C   tau( 189) = (   0.8125015   0.8125015   0.1874985  )
       190           C   tau( 190) = (   0.8125015   0.8125015   0.4374985  )
       191           C   tau( 191) = (   0.8125015   0.8125015   0.6874985  )
       192           C   tau( 192) = (   0.8125015   0.8125015   0.9374985  )
       193           C   tau( 193) = (   0.0000000   0.1250000   0.0000000  )
       194           C   tau( 194) = (   0.0000000   0.1250000   0.2500000  )
       195           C   tau( 195) = (   0.0000000   0.1250000   0.5000000  )
       196           C   tau( 196) = (   0.0000000   0.1250000   0.7500000  )
       197           C   tau( 197) = (   0.0000000   0.3750000   0.0000000  )
       198           C   tau( 198) = (   0.0000000   0.3750000   0.2500000  )
       199           C   tau( 199) = (   0.0000000   0.3750000   0.5000000  )
       200           C   tau( 200) = (   0.0000000   0.3750000   0.7500000  )
       201           C   tau( 201) = (   0.0000000   0.6250000   0.0000000  )
       202           C   tau( 202) = (   0.0000000   0.6250000   0.2500000  )
       203           C   tau( 203) = (   0.0000000   0.6250000   0.5000000  )
       204           C   tau( 204) = (   0.0000000   0.6250000   0.7500000  )
       205           C   tau( 205) = (   0.0000000   0.8750000   0.0000000  )
       206           C   tau( 206) = (   0.0000000   0.8750000   0.2500000  )
       207           C   tau( 207) = (   0.0000000   0.8750000   0.5000000  )
       208           C   tau( 208) = (   0.0000000   0.8750000   0.7500000  )
       209           C   tau( 209) = (   0.2500000   0.1250000   0.0000000  )
       210           C   tau( 210) = (   0.2500000   0.1250000   0.2500000  )
       211           C   tau( 211) = (   0.2500000   0.1250000   0.5000000  )
       212           C   tau( 212) = (   0.2500000   0.1250000   0.7500000  )
       213           C   tau( 213) = (   0.2500000   0.3750000   0.0000000  )
       214           C   tau( 214) = (   0.2500000   0.3750000   0.2500000  )
       215           C   tau( 215) = (   0.2500000   0.3750000   0.5000000  )
       216           C   tau( 216) = (   0.2500000   0.3750000   0.7500000  )
       217           C   tau( 217) = (   0.2500000   0.6250000   0.0000000  )
       218           C   tau( 218) = (   0.2500000   0.6250000   0.2500000  )
       219           C   tau( 219) = (   0.2500000   0.6250000   0.5000000  )
       220           C   tau( 220) = (   0.2500000   0.6250000   0.7500000  )
       221           C   tau( 221) = (   0.2500000   0.8750000   0.0000000  )
       222           C   tau( 222) = (   0.2500000   0.8750000   0.2500000  )
       223           C   tau( 223) = (   0.2500000   0.8750000   0.5000000  )
       224           C   tau( 224) = (   0.2500000   0.8750000   0.7500000  )
       225           C   tau( 225) = (   0.5000000   0.1250000   0.0000000  )
       226           C   tau( 226) = (   0.5000000   0.1250000   0.2500000  )
       227           C   tau( 227) = (   0.5000000   0.1250000   0.5000000  )
       228           C   tau( 228) = (   0.5000000   0.1250000   0.7500000  )
       229           C   tau( 229) = (   0.5000000   0.3750000   0.0000000  )
       230           C   tau( 230) = (   0.5000000   0.3750000   0.2500000  )
       231           C   tau( 231) = (   0.5000000   0.3750000   0.5000000  )
       232           C   tau( 232) = (   0.5000000   0.3750000   0.7500000  )
       233           C   tau( 233) = (   0.5000000   0.6250000   0.0000000  )
       234           C   tau( 234) = (   0.5000000   0.6250000   0.2500000  )
       235           C   tau( 235) = (   0.5000000   0.6250000   0.5000000  )
       236           C   tau( 236) = (   0.5000000   0.6250000   0.7500000  )
       237           C   tau( 237) = (   0.5000000   0.8750000   0.0000000  )
       238           C   tau( 238) = (   0.5000000   0.8750000   0.2500000  )
       239           C   tau( 239) = (   0.5000000   0.8750000   0.5000000  )
       240           C   tau( 240) = (   0.5000000   0.8750000   0.7500000  )
       241           C   tau( 241) = (   0.7500000   0.1250000   0.0000000  )
       242           C   tau( 242) = (   0.7500000   0.1250000   0.2500000  )
       243           C   tau( 243) = (   0.7500000   0.1250000   0.5000000  )
       244           C   tau( 244) = (   0.7500000   0.1250000   0.7500000  )
       245           C   tau( 245) = (   0.7500000   0.3750000   0.0000000  )
       246           C   tau( 246) = (   0.7500000   0.3750000   0.2500000  )
       247           C   tau( 247) = (   0.7500000   0.3750000   0.5000000  )
       248           C   tau( 248) = (   0.7500000   0.3750000   0.7500000  )
       249           C   tau( 249) = (   0.7500000   0.6250000   0.0000000  )
       250           C   tau( 250) = (   0.7500000   0.6250000   0.2500000  )
       251           C   tau( 251) = (   0.7500000   0.6250000   0.5000000  )
       252           C   tau( 252) = (   0.7500000   0.6250000   0.7500000  )
       253           C   tau( 253) = (   0.7500000   0.8750000   0.0000000  )
       254           C   tau( 254) = (   0.7500000   0.8750000   0.2500000  )
       255           C   tau( 255) = (   0.7500000   0.8750000   0.5000000  )
       256           C   tau( 256) = (   0.7500000   0.8750000   0.7500000  )
       257           C   tau( 257) = (   0.1874985   0.1874985   0.1874985  )
       258           C   tau( 258) = (   0.1874985   0.1874985   0.4374985  )
       259           C   tau( 259) = (   0.1874985   0.1874985   0.6874985  )
       260           C   tau( 260) = (   0.1874985   0.1874985   0.9374985  )
       261           C   tau( 261) = (   0.1874985   0.4374985   0.1874985  )
       262           C   tau( 262) = (   0.1874985   0.4374985   0.4374985  )
       263           C   tau( 263) = (   0.1874985   0.4374985   0.6874985  )
       264           C   tau( 264) = (   0.1874985   0.4374985   0.9374985  )
       265           C   tau( 265) = (   0.1874985   0.6874985   0.1874985  )
       266           C   tau( 266) = (   0.1874985   0.6874985   0.4374985  )
       267           C   tau( 267) = (   0.1874985   0.6874985   0.6874985  )
       268           C   tau( 268) = (   0.1874985   0.6874985   0.9374985  )
       269           C   tau( 269) = (   0.1874985   0.9374985   0.1874985  )
       270           C   tau( 270) = (   0.1874985   0.9374985   0.4374985  )
       271           C   tau( 271) = (   0.1874985   0.9374985   0.6874985  )
       272           C   tau( 272) = (   0.1874985   0.9374985   0.9374985  )
       273           C   tau( 273) = (   0.4374985   0.1874985   0.1874985  )
       274           C   tau( 274) = (   0.4374985   0.1874985   0.4374985  )
       275           C   tau( 275) = (   0.4374985   0.1874985   0.6874985  )
       276           C   tau( 276) = (   0.4374985   0.1874985   0.9374985  )
       277           C   tau( 277) = (   0.4374985   0.4374985   0.1874985  )
       278           C   tau( 278) = (   0.4374985   0.4374985   0.4374985  )
       279           C   tau( 279) = (   0.4374985   0.4374985   0.6874985  )
       280           C   tau( 280) = (   0.4374985   0.4374985   0.9374985  )
       281           C   tau( 281) = (   0.4374985   0.6874985   0.1874985  )
       282           C   tau( 282) = (   0.4374985   0.6874985   0.4374985  )
       283           C   tau( 283) = (   0.4374985   0.6874985   0.6874985  )
       284           C   tau( 284) = (   0.4374985   0.6874985   0.9374985  )
       285           C   tau( 285) = (   0.4374985   0.9374985   0.1874985  )
       286           C   tau( 286) = (   0.4374985   0.9374985   0.4374985  )
       287           C   tau( 287) = (   0.4374985   0.9374985   0.6874985  )
       288           C   tau( 288) = (   0.4374985   0.9374985   0.9374985  )
       289           C   tau( 289) = (   0.6874985   0.1874985   0.1874985  )
       290           C   tau( 290) = (   0.6874985   0.1874985   0.4374985  )
       291           C   tau( 291) = (   0.6874985   0.1874985   0.6874985  )
       292           C   tau( 292) = (   0.6874985   0.1874985   0.9374985  )
       293           C   tau( 293) = (   0.6874985   0.4374985   0.1874985  )
       294           C   tau( 294) = (   0.6874985   0.4374985   0.4374985  )
       295           C   tau( 295) = (   0.6874985   0.4374985   0.6874985  )
       296           C   tau( 296) = (   0.6874985   0.4374985   0.9374985  )
       297           C   tau( 297) = (   0.6874985   0.6874985   0.1874985  )
       298           C   tau( 298) = (   0.6874985   0.6874985   0.4374985  )
       299           C   tau( 299) = (   0.6874985   0.6874985   0.6874985  )
       300           C   tau( 300) = (   0.6874985   0.6874985   0.9374985  )
       301           C   tau( 301) = (   0.6874985   0.9374985   0.1874985  )
       302           C   tau( 302) = (   0.6874985   0.9374985   0.4374985  )
       303           C   tau( 303) = (   0.6874985   0.9374985   0.6874985  )
       304           C   tau( 304) = (   0.6874985   0.9374985   0.9374985  )
       305           C   tau( 305) = (   0.9374985   0.1874985   0.1874985  )
       306           C   tau( 306) = (   0.9374985   0.1874985   0.4374985  )
       307           C   tau( 307) = (   0.9374985   0.1874985   0.6874985  )
       308           C   tau( 308) = (   0.9374985   0.1874985   0.9374985  )
       309           C   tau( 309) = (   0.9374985   0.4374985   0.1874985  )
       310           C   tau( 310) = (   0.9374985   0.4374985   0.4374985  )
       311           C   tau( 311) = (   0.9374985   0.4374985   0.6874985  )
       312           C   tau( 312) = (   0.9374985   0.4374985   0.9374985  )
       313           C   tau( 313) = (   0.9374985   0.6874985   0.1874985  )
       314           C   tau( 314) = (   0.9374985   0.6874985   0.4374985  )
       315           C   tau( 315) = (   0.9374985   0.6874985   0.6874985  )
       316           C   tau( 316) = (   0.9374985   0.6874985   0.9374985  )
       317           C   tau( 317) = (   0.9374985   0.9374985   0.1874985  )
       318           C   tau( 318) = (   0.9374985   0.9374985   0.4374985  )
       319           C   tau( 319) = (   0.9374985   0.9374985   0.6874985  )
       320           C   tau( 320) = (   0.9374985   0.9374985   0.9374985  )
       321           C   tau( 321) = (   0.1250000   0.0000000   0.0000000  )
       322           C   tau( 322) = (   0.1250000   0.0000000   0.2500000  )
       323           C   tau( 323) = (   0.1250000   0.0000000   0.5000000  )
       324           C   tau( 324) = (   0.1250000   0.0000000   0.7500000  )
       325           C   tau( 325) = (   0.1250000   0.2500000   0.0000000  )
       326           C   tau( 326) = (   0.1250000   0.2500000   0.2500000  )
       327           C   tau( 327) = (   0.1250000   0.2500000   0.5000000  )
       328           C   tau( 328) = (   0.1250000   0.2500000   0.7500000  )
       329           C   tau( 329) = (   0.1250000   0.5000000   0.0000000  )
       330           C   tau( 330) = (   0.1250000   0.5000000   0.2500000  )
       331           C   tau( 331) = (   0.1250000   0.5000000   0.5000000  )
       332           C   tau( 332) = (   0.1250000   0.5000000   0.7500000  )
       333           C   tau( 333) = (   0.1250000   0.7500000   0.0000000  )
       334           C   tau( 334) = (   0.1250000   0.7500000   0.2500000  )
       335           C   tau( 335) = (   0.1250000   0.7500000   0.5000000  )
       336           C   tau( 336) = (   0.1250000   0.7500000   0.7500000  )
       337           C   tau( 337) = (   0.3750000   0.0000000   0.0000000  )
       338           C   tau( 338) = (   0.3750000   0.0000000   0.2500000  )
       339           C   tau( 339) = (   0.3750000   0.0000000   0.5000000  )
       340           C   tau( 340) = (   0.3750000   0.0000000   0.7500000  )
       341           C   tau( 341) = (   0.3750000   0.2500000   0.0000000  )
       342           C   tau( 342) = (   0.3750000   0.2500000   0.2500000  )
       343           C   tau( 343) = (   0.3750000   0.2500000   0.5000000  )
       344           C   tau( 344) = (   0.3750000   0.2500000   0.7500000  )
       345           C   tau( 345) = (   0.3750000   0.5000000   0.0000000  )
       346           C   tau( 346) = (   0.3750000   0.5000000   0.2500000  )
       347           C   tau( 347) = (   0.3750000   0.5000000   0.5000000  )
       348           C   tau( 348) = (   0.3750000   0.5000000   0.7500000  )
       349           C   tau( 349) = (   0.3750000   0.7500000   0.0000000  )
       350           C   tau( 350) = (   0.3750000   0.7500000   0.2500000  )
       351           C   tau( 351) = (   0.3750000   0.7500000   0.5000000  )
       352           C   tau( 352) = (   0.3750000   0.7500000   0.7500000  )
       353           C   tau( 353) = (   0.6250000   0.0000000   0.0000000  )
       354           C   tau( 354) = (   0.6250000   0.0000000   0.2500000  )
       355           C   tau( 355) = (   0.6250000   0.0000000   0.5000000  )
       356           C   tau( 356) = (   0.6250000   0.0000000   0.7500000  )
       357           C   tau( 357) = (   0.6250000   0.2500000   0.0000000  )
       358           C   tau( 358) = (   0.6250000   0.2500000   0.2500000  )
       359           C   tau( 359) = (   0.6250000   0.2500000   0.5000000  )
       360           C   tau( 360) = (   0.6250000   0.2500000   0.7500000  )
       361           C   tau( 361) = (   0.6250000   0.5000000   0.0000000  )
       362           C   tau( 362) = (   0.6250000   0.5000000   0.2500000  )
       363           C   tau( 363) = (   0.6250000   0.5000000   0.5000000  )
       364           C   tau( 364) = (   0.6250000   0.5000000   0.7500000  )
       365           C   tau( 365) = (   0.6250000   0.7500000   0.0000000  )
       366           C   tau( 366) = (   0.6250000   0.7500000   0.2500000  )
       367           C   tau( 367) = (   0.6250000   0.7500000   0.5000000  )
       368           C   tau( 368) = (   0.6250000   0.7500000   0.7500000  )
       369           C   tau( 369) = (   0.8750000   0.0000000   0.0000000  )
       370           C   tau( 370) = (   0.8750000   0.0000000   0.2500000  )
       371           C   tau( 371) = (   0.8750000   0.0000000   0.5000000  )
       372           C   tau( 372) = (   0.8750000   0.0000000   0.7500000  )
       373           C   tau( 373) = (   0.8750000   0.2500000   0.0000000  )
       374           C   tau( 374) = (   0.8750000   0.2500000   0.2500000  )
       375           C   tau( 375) = (   0.8750000   0.2500000   0.5000000  )
       376           C   tau( 376) = (   0.8750000   0.2500000   0.7500000  )
       377           C   tau( 377) = (   0.8750000   0.5000000   0.0000000  )
       378           C   tau( 378) = (   0.8750000   0.5000000   0.2500000  )
       379           C   tau( 379) = (   0.8750000   0.5000000   0.5000000  )
       380           C   tau( 380) = (   0.8750000   0.5000000   0.7500000  )
       381           C   tau( 381) = (   0.8750000   0.7500000   0.0000000  )
       382           C   tau( 382) = (   0.8750000   0.7500000   0.2500000  )
       383           C   tau( 383) = (   0.8750000   0.7500000   0.5000000  )
       384           C   tau( 384) = (   0.8750000   0.7500000   0.7500000  )
       385           C   tau( 385) = (   0.1874985   0.0625015   0.0625015  )
       386           C   tau( 386) = (   0.1874985   0.0625015   0.3125015  )
       387           C   tau( 387) = (   0.1874985   0.0625015   0.5625015  )
       388           C   tau( 388) = (   0.1874985   0.0625015   0.8125015  )
       389           C   tau( 389) = (   0.1874985   0.3125015   0.0625015  )
       390           C   tau( 390) = (   0.1874985   0.3125015   0.3125015  )
       391           C   tau( 391) = (   0.1874985   0.3125015   0.5625015  )
       392           C   tau( 392) = (   0.1874985   0.3125015   0.8125015  )
       393           C   tau( 393) = (   0.1874985   0.5625015   0.0625015  )
       394           C   tau( 394) = (   0.1874985   0.5625015   0.3125015  )
       395           C   tau( 395) = (   0.1874985   0.5625015   0.5625015  )
       396           C   tau( 396) = (   0.1874985   0.5625015   0.8125015  )
       397           C   tau( 397) = (   0.1874985   0.8125015   0.0625015  )
       398           C   tau( 398) = (   0.1874985   0.8125015   0.3125015  )
       399           C   tau( 399) = (   0.1874985   0.8125015   0.5625015  )
       400           C   tau( 400) = (   0.1874985   0.8125015   0.8125015  )
       401           C   tau( 401) = (   0.4374985   0.0625015   0.0625015  )
       402           C   tau( 402) = (   0.4374985   0.0625015   0.3125015  )
       403           C   tau( 403) = (   0.4374985   0.0625015   0.5625015  )
       404           C   tau( 404) = (   0.4374985   0.0625015   0.8125015  )
       405           C   tau( 405) = (   0.4374985   0.3125015   0.0625015  )
       406           C   tau( 406) = (   0.4374985   0.3125015   0.3125015  )
       407           C   tau( 407) = (   0.4374985   0.3125015   0.5625015  )
       408           C   tau( 408) = (   0.4374985   0.3125015   0.8125015  )
       409           C   tau( 409) = (   0.4374985   0.5625015   0.0625015  )
       410           C   tau( 410) = (   0.4374985   0.5625015   0.3125015  )
       411           C   tau( 411) = (   0.4374985   0.5625015   0.5625015  )
       412           C   tau( 412) = (   0.4374985   0.5625015   0.8125015  )
       413           C   tau( 413) = (   0.4374985   0.8125015   0.0625015  )
       414           C   tau( 414) = (   0.4374985   0.8125015   0.3125015  )
       415           C   tau( 415) = (   0.4374985   0.8125015   0.5625015  )
       416           C   tau( 416) = (   0.4374985   0.8125015   0.8125015  )
       417           C   tau( 417) = (   0.6874985   0.0625015   0.0625015  )
       418           C   tau( 418) = (   0.6874985   0.0625015   0.3125015  )
       419           C   tau( 419) = (   0.6874985   0.0625015   0.5625015  )
       420           C   tau( 420) = (   0.6874985   0.0625015   0.8125015  )
       421           C   tau( 421) = (   0.6874985   0.3125015   0.0625015  )
       422           C   tau( 422) = (   0.6874985   0.3125015   0.3125015  )
       423           C   tau( 423) = (   0.6874985   0.3125015   0.5625015  )
       424           C   tau( 424) = (   0.6874985   0.3125015   0.8125015  )
       425           C   tau( 425) = (   0.6874985   0.5625015   0.0625015  )
       426           C   tau( 426) = (   0.6874985   0.5625015   0.3125015  )
       427           C   tau( 427) = (   0.6874985   0.5625015   0.5625015  )
       428           C   tau( 428) = (   0.6874985   0.5625015   0.8125015  )
       429           C   tau( 429) = (   0.6874985   0.8125015   0.0625015  )
       430           C   tau( 430) = (   0.6874985   0.8125015   0.3125015  )
       431           C   tau( 431) = (   0.6874985   0.8125015   0.5625015  )
       432           C   tau( 432) = (   0.6874985   0.8125015   0.8125015  )
       433           C   tau( 433) = (   0.9374985   0.0625015   0.0625015  )
       434           C   tau( 434) = (   0.9374985   0.0625015   0.3125015  )
       435           C   tau( 435) = (   0.9374985   0.0625015   0.5625015  )
       436           C   tau( 436) = (   0.9374985   0.0625015   0.8125015  )
       437           C   tau( 437) = (   0.9374985   0.3125015   0.0625015  )
       438           C   tau( 438) = (   0.9374985   0.3125015   0.3125015  )
       439           C   tau( 439) = (   0.9374985   0.3125015   0.5625015  )
       440           C   tau( 440) = (   0.9374985   0.3125015   0.8125015  )
       441           C   tau( 441) = (   0.9374985   0.5625015   0.0625015  )
       442           C   tau( 442) = (   0.9374985   0.5625015   0.3125015  )
       443           C   tau( 443) = (   0.9374985   0.5625015   0.5625015  )
       444           C   tau( 444) = (   0.9374985   0.5625015   0.8125015  )
       445           C   tau( 445) = (   0.9374985   0.8125015   0.0625015  )
       446           C   tau( 446) = (   0.9374985   0.8125015   0.3125015  )
       447           C   tau( 447) = (   0.9374985   0.8125015   0.5625015  )
       448           C   tau( 448) = (   0.9374985   0.8125015   0.8125015  )
       449           C   tau( 449) = (   0.1250000   0.1250000   0.1250000  )
       450           C   tau( 450) = (   0.1250000   0.1250000   0.3750000  )
       451           C   tau( 451) = (   0.1250000   0.1250000   0.6250000  )
       452           C   tau( 452) = (   0.1250000   0.1250000   0.8750000  )
       453           C   tau( 453) = (   0.1250000   0.3750000   0.1250000  )
       454           C   tau( 454) = (   0.1250000   0.3750000   0.3750000  )
       455           C   tau( 455) = (   0.1250000   0.3750000   0.6250000  )
       456           C   tau( 456) = (   0.1250000   0.3750000   0.8750000  )
       457           C   tau( 457) = (   0.1250000   0.6250000   0.1250000  )
       458           C   tau( 458) = (   0.1250000   0.6250000   0.3750000  )
       459           C   tau( 459) = (   0.1250000   0.6250000   0.6250000  )
       460           C   tau( 460) = (   0.1250000   0.6250000   0.8750000  )
       461           C   tau( 461) = (   0.1250000   0.8750000   0.1250000  )
       462           C   tau( 462) = (   0.1250000   0.8750000   0.3750000  )
       463           C   tau( 463) = (   0.1250000   0.8750000   0.6250000  )
       464           C   tau( 464) = (   0.1250000   0.8750000   0.8750000  )
       465           C   tau( 465) = (   0.3750000   0.1250000   0.1250000  )
       466           C   tau( 466) = (   0.3750000   0.1250000   0.3750000  )
       467           C   tau( 467) = (   0.3750000   0.1250000   0.6250000  )
       468           C   tau( 468) = (   0.3750000   0.1250000   0.8750000  )
       469           C   tau( 469) = (   0.3750000   0.3750000   0.1250000  )
       470           C   tau( 470) = (   0.3750000   0.3750000   0.3750000  )
       471           C   tau( 471) = (   0.3750000   0.3750000   0.6250000  )
       472           C   tau( 472) = (   0.3750000   0.3750000   0.8750000  )
       473           C   tau( 473) = (   0.3750000   0.6250000   0.1250000  )
       474           C   tau( 474) = (   0.3750000   0.6250000   0.3750000  )
       475           C   tau( 475) = (   0.3750000   0.6250000   0.6250000  )
       476           C   tau( 476) = (   0.3750000   0.6250000   0.8750000  )
       477           C   tau( 477) = (   0.3750000   0.8750000   0.1250000  )
       478           C   tau( 478) = (   0.3750000   0.8750000   0.3750000  )
       479           C   tau( 479) = (   0.3750000   0.8750000   0.6250000  )
       480           C   tau( 480) = (   0.3750000   0.8750000   0.8750000  )
       481           C   tau( 481) = (   0.6250000   0.1250000   0.1250000  )
       482           C   tau( 482) = (   0.6250000   0.1250000   0.3750000  )
       483           C   tau( 483) = (   0.6250000   0.1250000   0.6250000  )
       484           C   tau( 484) = (   0.6250000   0.1250000   0.8750000  )
       485           C   tau( 485) = (   0.6250000   0.3750000   0.1250000  )
       486           C   tau( 486) = (   0.6250000   0.3750000   0.3750000  )
       487           C   tau( 487) = (   0.6250000   0.3750000   0.6250000  )
       488           C   tau( 488) = (   0.6250000   0.3750000   0.8750000  )
       489           C   tau( 489) = (   0.6250000   0.6250000   0.1250000  )
       490           C   tau( 490) = (   0.6250000   0.6250000   0.3750000  )
       491           C   tau( 491) = (   0.6250000   0.6250000   0.6250000  )
       492           C   tau( 492) = (   0.6250000   0.6250000   0.8750000  )
       493           C   tau( 493) = (   0.6250000   0.8750000   0.1250000  )
       494           C   tau( 494) = (   0.6250000   0.8750000   0.3750000  )
       495           C   tau( 495) = (   0.6250000   0.8750000   0.6250000  )
       496           C   tau( 496) = (   0.6250000   0.8750000   0.8750000  )
       497           C   tau( 497) = (   0.8750000   0.1250000   0.1250000  )
       498           C   tau( 498) = (   0.8750000   0.1250000   0.3750000  )
       499           C   tau( 499) = (   0.8750000   0.1250000   0.6250000  )
       500           C   tau( 500) = (   0.8750000   0.1250000   0.8750000  )
       501           C   tau( 501) = (   0.8750000   0.3750000   0.1250000  )
       502           C   tau( 502) = (   0.8750000   0.3750000   0.3750000  )
       503           C   tau( 503) = (   0.8750000   0.3750000   0.6250000  )
       504           C   tau( 504) = (   0.8750000   0.3750000   0.8750000  )
       505           C   tau( 505) = (   0.8750000   0.6250000   0.1250000  )
       506           C   tau( 506) = (   0.8750000   0.6250000   0.3750000  )
       507           C   tau( 507) = (   0.8750000   0.6250000   0.6250000  )
       508           C   tau( 508) = (   0.8750000   0.6250000   0.8750000  )
       509           C   tau( 509) = (   0.8750000   0.8750000   0.1250000  )
       510           C   tau( 510) = (   0.8750000   0.8750000   0.3750000  )
       511           C   tau( 511) = (   0.8750000   0.8750000   0.6250000  )
       512           C   tau( 512) = (   0.8750000   0.8750000   0.8750000  )

   Crystallographic axes

     site n.     atom                  positions (cryst. coord.)
         1           C   tau(   1) = (  0.0625015  0.1874985  0.0625015  )
         2           C   tau(   2) = (  0.0625015  0.1874985  0.3125015  )
         3           C   tau(   3) = (  0.0625015  0.1874985  0.5625015  )
         4           C   tau(   4) = (  0.0625015  0.1874985  0.8125015  )
         5           C   tau(   5) = (  0.0625015  0.4374985  0.0625015  )
         6           C   tau(   6) = (  0.0625015  0.4374985  0.3125015  )
         7           C   tau(   7) = (  0.0625015  0.4374985  0.5625015  )
         8           C   tau(   8) = (  0.0625015  0.4374985  0.8125015  )
         9           C   tau(   9) = (  0.0625015  0.6874985  0.0625015  )
        10           C   tau(  10) = (  0.0625015  0.6874985  0.3125015  )
        11           C   tau(  11) = (  0.0625015  0.6874985  0.5625015  )
        12           C   tau(  12) = (  0.0625015  0.6874985  0.8125015  )
        13           C   tau(  13) = (  0.0625015  0.9374985  0.0625015  )
        14           C   tau(  14) = (  0.0625015  0.9374985  0.3125015  )
        15           C   tau(  15) = (  0.0625015  0.9374985  0.5625015  )
        16           C   tau(  16) = (  0.0625015  0.9374985  0.8125015  )
        17           C   tau(  17) = (  0.3125015  0.1874985  0.0625015  )
        18           C   tau(  18) = (  0.3125015  0.1874985  0.3125015  )
        19           C   tau(  19) = (  0.3125015  0.1874985  0.5625015  )
        20           C   tau(  20) = (  0.3125015  0.1874985  0.8125015  )
        21           C   tau(  21) = (  0.3125015  0.4374985  0.0625015  )
        22           C   tau(  22) = (  0.3125015  0.4374985  0.3125015  )
        23           C   tau(  23) = (  0.3125015  0.4374985  0.5625015  )
        24           C   tau(  24) = (  0.3125015  0.4374985  0.8125015  )
        25           C   tau(  25) = (  0.3125015  0.6874985  0.0625015  )
        26           C   tau(  26) = (  0.3125015  0.6874985  0.3125015  )
        27           C   tau(  27) = (  0.3125015  0.6874985  0.5625015  )
        28           C   tau(  28) = (  0.3125015  0.6874985  0.8125015  )
        29           C   tau(  29) = (  0.3125015  0.9374985  0.0625015  )
        30           C   tau(  30) = (  0.3125015  0.9374985  0.3125015  )
        31           C   tau(  31) = (  0.3125015  0.9374985  0.5625015  )
        32           C   tau(  32) = (  0.3125015  0.9374985  0.8125015  )
        33           C   tau(  33) = (  0.5625015  0.1874985  0.0625015  )
        34           C   tau(  34) = (  0.5625015  0.1874985  0.3125015  )
        35           C   tau(  35) = (  0.5625015  0.1874985  0.5625015  )
        36           C   tau(  36) = (  0.5625015  0.1874985  0.8125015  )
        37           C   tau(  37) = (  0.5625015  0.4374985  0.0625015  )
        38           C   tau(  38) = (  0.5625015  0.4374985  0.3125015  )
        39           C   tau(  39) = (  0.5625015  0.4374985  0.5625015  )
        40           C   tau(  40) = (  0.5625015  0.4374985  0.8125015  )
        41           C   tau(  41) = (  0.5625015  0.6874985  0.0625015  )
        42           C   tau(  42) = (  0.5625015  0.6874985  0.3125015  )
        43           C   tau(  43) = (  0.5625015  0.6874985  0.5625015  )
        44           C   tau(  44) = (  0.5625015  0.6874985  0.8125015  )
        45           C   tau(  45) = (  0.5625015  0.9374985  0.0625015  )
        46           C   tau(  46) = (  0.5625015  0.9374985  0.3125015  )
        47           C   tau(  47) = (  0.5625015  0.9374985  0.5625015  )
        48           C   tau(  48) = (  0.5625015  0.9374985  0.8125015  )
        49           C   tau(  49) = (  0.8125015  0.1874985  0.0625015  )
        50           C   tau(  50) = (  0.8125015  0.1874985  0.3125015  )
        51           C   tau(  51) = (  0.8125015  0.1874985  0.5625015  )
        52           C   tau(  52) = (  0.8125015  0.1874985  0.8125015  )
        53           C   tau(  53) = (  0.8125015  0.4374985  0.0625015  )
        54           C   tau(  54) = (  0.8125015  0.4374985  0.3125015  )
        55           C   tau(  55) = (  0.8125015  0.4374985  0.5625015  )
        56           C   tau(  56) = (  0.8125015  0.4374985  0.8125015  )
        57           C   tau(  57) = (  0.8125015  0.6874985  0.0625015  )
        58           C   tau(  58) = (  0.8125015  0.6874985  0.3125015  )
        59           C   tau(  59) = (  0.8125015  0.6874985  0.5625015  )
        60           C   tau(  60) = (  0.8125015  0.6874985  0.8125015  )
        61           C   tau(  61) = (  0.8125015  0.9374985  0.0625015  )
        62           C   tau(  62) = (  0.8125015  0.9374985  0.3125015  )
        63           C   tau(  63) = (  0.8125015  0.9374985  0.5625015  )
        64           C   tau(  64) = (  0.8125015  0.9374985  0.8125015  )
        65           C   tau(  65) = (  0.0000000  0.0000000  0.1250000  )
        66           C   tau(  66) = (  0.0000000  0.0000000  0.3750000  )
        67           C   tau(  67) = (  0.0000000  0.0000000  0.6250000  )
        68           C   tau(  68) = (  0.0000000  0.0000000  0.8750000  )
        69           C   tau(  69) = (  0.0000000  0.2500000  0.1250000  )
        70           C   tau(  70) = (  0.0000000  0.2500000  0.3750000  )
        71           C   tau(  71) = (  0.0000000  0.2500000  0.6250000  )
        72           C   tau(  72) = (  0.0000000  0.2500000  0.8750000  )
        73           C   tau(  73) = (  0.0000000  0.5000000  0.1250000  )
        74           C   tau(  74) = (  0.0000000  0.5000000  0.3750000  )
        75           C   tau(  75) = (  0.0000000  0.5000000  0.6250000  )
        76           C   tau(  76) = (  0.0000000  0.5000000  0.8750000  )
        77           C   tau(  77) = (  0.0000000  0.7500000  0.1250000  )
        78           C   tau(  78) = (  0.0000000  0.7500000  0.3750000  )
        79           C   tau(  79) = (  0.0000000  0.7500000  0.6250000  )
        80           C   tau(  80) = (  0.0000000  0.7500000  0.8750000  )
        81           C   tau(  81) = (  0.2500000  0.0000000  0.1250000  )
        82           C   tau(  82) = (  0.2500000  0.0000000  0.3750000  )
        83           C   tau(  83) = (  0.2500000  0.0000000  0.6250000  )
        84           C   tau(  84) = (  0.2500000  0.0000000  0.8750000  )
        85           C   tau(  85) = (  0.2500000  0.2500000  0.1250000  )
        86           C   tau(  86) = (  0.2500000  0.2500000  0.3750000  )
        87           C   tau(  87) = (  0.2500000  0.2500000  0.6250000  )
        88           C   tau(  88) = (  0.2500000  0.2500000  0.8750000  )
        89           C   tau(  89) = (  0.2500000  0.5000000  0.1250000  )
        90           C   tau(  90) = (  0.2500000  0.5000000  0.3750000  )
        91           C   tau(  91) = (  0.2500000  0.5000000  0.6250000  )
        92           C   tau(  92) = (  0.2500000  0.5000000  0.8750000  )
        93           C   tau(  93) = (  0.2500000  0.7500000  0.1250000  )
        94           C   tau(  94) = (  0.2500000  0.7500000  0.3750000  )
        95           C   tau(  95) = (  0.2500000  0.7500000  0.6250000  )
        96           C   tau(  96) = (  0.2500000  0.7500000  0.8750000  )
        97           C   tau(  97) = (  0.5000000  0.0000000  0.1250000  )
        98           C   tau(  98) = (  0.5000000  0.0000000  0.3750000  )
        99           C   tau(  99) = (  0.5000000  0.0000000  0.6250000  )
       100           C   tau( 100) = (  0.5000000  0.0000000  0.8750000  )
       101           C   tau( 101) = (  0.5000000  0.2500000  0.1250000  )
       102           C   tau( 102) = (  0.5000000  0.2500000  0.3750000  )
       103           C   tau( 103) = (  0.5000000  0.2500000  0.6250000  )
       104           C   tau( 104) = (  0.5000000  0.2500000  0.8750000  )
       105           C   tau( 105) = (  0.5000000  0.5000000  0.1250000  )
       106           C   tau( 106) = (  0.5000000  0.5000000  0.3750000  )
       107           C   tau( 107) = (  0.5000000  0.5000000  0.6250000  )
       108           C   tau( 108) = (  0.5000000  0.5000000  0.8750000  )
       109           C   tau( 109) = (  0.5000000  0.7500000  0.1250000  )
       110           C   tau( 110) = (  0.5000000  0.7500000  0.3750000  )
       111           C   tau( 111) = (  0.5000000  0.7500000  0.6250000  )
       112           C   tau( 112) = (  0.5000000  0.7500000  0.8750000  )
       113           C   tau( 113) = (  0.7500000  0.0000000  0.1250000  )
       114           C   tau( 114) = (  0.7500000  0.0000000  0.3750000  )
       115           C   tau( 115) = (  0.7500000  0.0000000  0.6250000  )
       116           C   tau( 116) = (  0.7500000  0.0000000  0.8750000  )
       117           C   tau( 117) = (  0.7500000  0.2500000  0.1250000  )
       118           C   tau( 118) = (  0.7500000  0.2500000  0.3750000  )
       119           C   tau( 119) = (  0.7500000  0.2500000  0.6250000  )
       120           C   tau( 120) = (  0.7500000  0.2500000  0.8750000  )
       121           C   tau( 121) = (  0.7500000  0.5000000  0.1250000  )
       122           C   tau( 122) = (  0.7500000  0.5000000  0.3750000  )
       123           C   tau( 123) = (  0.7500000  0.5000000  0.6250000  )
       124           C   tau( 124) = (  0.7500000  0.5000000  0.8750000  )
       125           C   tau( 125) = (  0.7500000  0.7500000  0.1250000  )
       126           C   tau( 126) = (  0.7500000  0.7500000  0.3750000  )
       127           C   tau( 127) = (  0.7500000  0.7500000  0.6250000  )
       128           C   tau( 128) = (  0.7500000  0.7500000  0.8750000  )
       129           C   tau( 129) = (  0.0625015  0.0625015  0.1874985  )
       130           C   tau( 130) = (  0.0625015  0.0625015  0.4374985  )
       131           C   tau( 131) = (  0.0625015  0.0625015  0.6874985  )
       132           C   tau( 132) = (  0.0625015  0.0625015  0.9374985  )
       133           C   tau( 133) = (  0.0625015  0.3125015  0.1874985  )
       134           C   tau( 134) = (  0.0625015  0.3125015  0.4374985  )
       135           C   tau( 135) = (  0.0625015  0.3125015  0.6874985  )
       136           C   tau( 136) = (  0.0625015  0.3125015  0.9374985  )
       137           C   tau( 137) = (  0.0625015  0.5625015  0.1874985  )
       138           C   tau( 138) = (  0.0625015  0.5625015  0.4374985  )
       139           C   tau( 139) = (  0.0625015  0.5625015  0.6874985  )
       140           C   tau( 140) = (  0.0625015  0.5625015  0.9374985  )
       141           C   tau( 141) = (  0.0625015  0.8125015  0.1874985  )
       142           C   tau( 142) = (  0.0625015  0.8125015  0.4374985  )
       143           C   tau( 143) = (  0.0625015  0.8125015  0.6874985  )
       144           C   tau( 144) = (  0.0625015  0.8125015  0.9374985  )
       145           C   tau( 145) = (  0.3125015  0.0625015  0.1874985  )
       146           C   tau( 146) = (  0.3125015  0.0625015  0.4374985  )
       147           C   tau( 147) = (  0.3125015  0.0625015  0.6874985  )
       148           C   tau( 148) = (  0.3125015  0.0625015  0.9374985  )
       149           C   tau( 149) = (  0.3125015  0.3125015  0.1874985  )
       150           C   tau( 150) = (  0.3125015  0.3125015  0.4374985  )
       151           C   tau( 151) = (  0.3125015  0.3125015  0.6874985  )
       152           C   tau( 152) = (  0.3125015  0.3125015  0.9374985  )
       153           C   tau( 153) = (  0.3125015  0.5625015  0.1874985  )
       154           C   tau( 154) = (  0.3125015  0.5625015  0.4374985  )
       155           C   tau( 155) = (  0.3125015  0.5625015  0.6874985  )
       156           C   tau( 156) = (  0.3125015  0.5625015  0.9374985  )
       157           C   tau( 157) = (  0.3125015  0.8125015  0.1874985  )
       158           C   tau( 158) = (  0.3125015  0.8125015  0.4374985  )
       159           C   tau( 159) = (  0.3125015  0.8125015  0.6874985  )
       160           C   tau( 160) = (  0.3125015  0.8125015  0.9374985  )
       161           C   tau( 161) = (  0.5625015  0.0625015  0.1874985  )
       162           C   tau( 162) = (  0.5625015  0.0625015  0.4374985  )
       163           C   tau( 163) = (  0.5625015  0.0625015  0.6874985  )
       164           C   tau( 164) = (  0.5625015  0.0625015  0.9374985  )
       165           C   tau( 165) = (  0.5625015  0.3125015  0.1874985  )
       166           C   tau( 166) = (  0.5625015  0.3125015  0.4374985  )
       167           C   tau( 167) = (  0.5625015  0.3125015  0.6874985  )
       168           C   tau( 168) = (  0.5625015  0.3125015  0.9374985  )
       169           C   tau( 169) = (  0.5625015  0.5625015  0.1874985  )
       170           C   tau( 170) = (  0.5625015  0.5625015  0.4374985  )
       171           C   tau( 171) = (  0.5625015  0.5625015  0.6874985  )
       172           C   tau( 172) = (  0.5625015  0.5625015  0.9374985  )
       173           C   tau( 173) = (  0.5625015  0.8125015  0.1874985  )
       174           C   tau( 174) = (  0.5625015  0.8125015  0.4374985  )
       175           C   tau( 175) = (  0.5625015  0.8125015  0.6874985  )
       176           C   tau( 176) = (  0.5625015  0.8125015  0.9374985  )
       177           C   tau( 177) = (  0.8125015  0.0625015  0.1874985  )
       178           C   tau( 178) = (  0.8125015  0.0625015  0.4374985  )
       179           C   tau( 179) = (  0.8125015  0.0625015  0.6874985  )
       180           C   tau( 180) = (  0.8125015  0.0625015  0.9374985  )
       181           C   tau( 181) = (  0.8125015  0.3125015  0.1874985  )
       182           C   tau( 182) = (  0.8125015  0.3125015  0.4374985  )
       183           C   tau( 183) = (  0.8125015  0.3125015  0.6874985  )
       184           C   tau( 184) = (  0.8125015  0.3125015  0.9374985  )
       185           C   tau( 185) = (  0.8125015  0.5625015  0.1874985  )
       186           C   tau( 186) = (  0.8125015  0.5625015  0.4374985  )
       187           C   tau( 187) = (  0.8125015  0.5625015  0.6874985  )
       188           C   tau( 188) = (  0.8125015  0.5625015  0.9374985  )
       189           C   tau( 189) = (  0.8125015  0.8125015  0.1874985  )
       190           C   tau( 190) = (  0.8125015  0.8125015  0.4374985  )
       191           C   tau( 191) = (  0.8125015  0.8125015  0.6874985  )
       192           C   tau( 192) = (  0.8125015  0.8125015  0.9374985  )
       193           C   tau( 193) = (  0.0000000  0.1250000  0.0000000  )
       194           C   tau( 194) = (  0.0000000  0.1250000  0.2500000  )
       195           C   tau( 195) = (  0.0000000  0.1250000  0.5000000  )
       196           C   tau( 196) = (  0.0000000  0.1250000  0.7500000  )
       197           C   tau( 197) = (  0.0000000  0.3750000  0.0000000  )
       198           C   tau( 198) = (  0.0000000  0.3750000  0.2500000  )
       199           C   tau( 199) = (  0.0000000  0.3750000  0.5000000  )
       200           C   tau( 200) = (  0.0000000  0.3750000  0.7500000  )
       201           C   tau( 201) = (  0.0000000  0.6250000  0.0000000  )
       202           C   tau( 202) = (  0.0000000  0.6250000  0.2500000  )
       203           C   tau( 203) = (  0.0000000  0.6250000  0.5000000  )
       204           C   tau( 204) = (  0.0000000  0.6250000  0.7500000  )
       205           C   tau( 205) = (  0.0000000  0.8750000  0.0000000  )
       206           C   tau( 206) = (  0.0000000  0.8750000  0.2500000  )
       207           C   tau( 207) = (  0.0000000  0.8750000  0.5000000  )
       208           C   tau( 208) = (  0.0000000  0.8750000  0.7500000  )
       209           C   tau( 209) = (  0.2500000  0.1250000  0.0000000  )
       210           C   tau( 210) = (  0.2500000  0.1250000  0.2500000  )
       211           C   tau( 211) = (  0.2500000  0.1250000  0.5000000  )
       212           C   tau( 212) = (  0.2500000  0.1250000  0.7500000  )
       213           C   tau( 213) = (  0.2500000  0.3750000  0.0000000  )
       214           C   tau( 214) = (  0.2500000  0.3750000  0.2500000  )
       215           C   tau( 215) = (  0.2500000  0.3750000  0.5000000  )
       216           C   tau( 216) = (  0.2500000  0.3750000  0.7500000  )
       217           C   tau( 217) = (  0.2500000  0.6250000  0.0000000  )
       218           C   tau( 218) = (  0.2500000  0.6250000  0.2500000  )
       219           C   tau( 219) = (  0.2500000  0.6250000  0.5000000  )
       220           C   tau( 220) = (  0.2500000  0.6250000  0.7500000  )
       221           C   tau( 221) = (  0.2500000  0.8750000  0.0000000  )
       222           C   tau( 222) = (  0.2500000  0.8750000  0.2500000  )
       223           C   tau( 223) = (  0.2500000  0.8750000  0.5000000  )
       224           C   tau( 224) = (  0.2500000  0.8750000  0.7500000  )
       225           C   tau( 225) = (  0.5000000  0.1250000  0.0000000  )
       226           C   tau( 226) = (  0.5000000  0.1250000  0.2500000  )
       227           C   tau( 227) = (  0.5000000  0.1250000  0.5000000  )
       228           C   tau( 228) = (  0.5000000  0.1250000  0.7500000  )
       229           C   tau( 229) = (  0.5000000  0.3750000  0.0000000  )
       230           C   tau( 230) = (  0.5000000  0.3750000  0.2500000  )
       231           C   tau( 231) = (  0.5000000  0.3750000  0.5000000  )
       232           C   tau( 232) = (  0.5000000  0.3750000  0.7500000  )
       233           C   tau( 233) = (  0.5000000  0.6250000  0.0000000  )
       234           C   tau( 234) = (  0.5000000  0.6250000  0.2500000  )
       235           C   tau( 235) = (  0.5000000  0.6250000  0.5000000  )
       236           C   tau( 236) = (  0.5000000  0.6250000  0.7500000  )
       237           C   tau( 237) = (  0.5000000  0.8750000  0.0000000  )
       238           C   tau( 238) = (  0.5000000  0.8750000  0.2500000  )
       239           C   tau( 239) = (  0.5000000  0.8750000  0.5000000  )
       240           C   tau( 240) = (  0.5000000  0.8750000  0.7500000  )
       241           C   tau( 241) = (  0.7500000  0.1250000  0.0000000  )
       242           C   tau( 242) = (  0.7500000  0.1250000  0.2500000  )
       243           C   tau( 243) = (  0.7500000  0.1250000  0.5000000  )
       244           C   tau( 244) = (  0.7500000  0.1250000  0.7500000  )
       245           C   tau( 245) = (  0.7500000  0.3750000  0.0000000  )
       246           C   tau( 246) = (  0.7500000  0.3750000  0.2500000  )
       247           C   tau( 247) = (  0.7500000  0.3750000  0.5000000  )
       248           C   tau( 248) = (  0.7500000  0.3750000  0.7500000  )
       249           C   tau( 249) = (  0.7500000  0.6250000  0.0000000  )
       250           C   tau( 250) = (  0.7500000  0.6250000  0.2500000  )
       251           C   tau( 251) = (  0.7500000  0.6250000  0.5000000  )
       252           C   tau( 252) = (  0.7500000  0.6250000  0.7500000  )
       253           C   tau( 253) = (  0.7500000  0.8750000  0.0000000  )
       254           C   tau( 254) = (  0.7500000  0.8750000  0.2500000  )
       255           C   tau( 255) = (  0.7500000  0.8750000  0.5000000  )
       256           C   tau( 256) = (  0.7500000  0.8750000  0.7500000  )
       257           C   tau( 257) = (  0.1874985  0.1874985  0.1874985  )
       258           C   tau( 258) = (  0.1874985  0.1874985  0.4374985  )
       259           C   tau( 259) = (  0.1874985  0.1874985  0.6874985  )
       260           C   tau( 260) = (  0.1874985  0.1874985  0.9374985  )
       261           C   tau( 261) = (  0.1874985  0.4374985  0.1874985  )
       262           C   tau( 262) = (  0.1874985  0.4374985  0.4374985  )
       263           C   tau( 263) = (  0.1874985  0.4374985  0.6874985  )
       264           C   tau( 264) = (  0.1874985  0.4374985  0.9374985  )
       265           C   tau( 265) = (  0.1874985  0.6874985  0.1874985  )
       266           C   tau( 266) = (  0.1874985  0.6874985  0.4374985  )
       267           C   tau( 267) = (  0.1874985  0.6874985  0.6874985  )
       268           C   tau( 268) = (  0.1874985  0.6874985  0.9374985  )
       269           C   tau( 269) = (  0.1874985  0.9374985  0.1874985  )
       270           C   tau( 270) = (  0.1874985  0.9374985  0.4374985  )
       271           C   tau( 271) = (  0.1874985  0.9374985  0.6874985  )
       272           C   tau( 272) = (  0.1874985  0.9374985  0.9374985  )
       273           C   tau( 273) = (  0.4374985  0.1874985  0.1874985  )
       274           C   tau( 274) = (  0.4374985  0.1874985  0.4374985  )
       275           C   tau( 275) = (  0.4374985  0.1874985  0.6874985  )
       276           C   tau( 276) = (  0.4374985  0.1874985  0.9374985  )
       277           C   tau( 277) = (  0.4374985  0.4374985  0.1874985  )
       278           C   tau( 278) = (  0.4374985  0.4374985  0.4374985  )
       279           C   tau( 279) = (  0.4374985  0.4374985  0.6874985  )
       280           C   tau( 280) = (  0.4374985  0.4374985  0.9374985  )
       281           C   tau( 281) = (  0.4374985  0.6874985  0.1874985  )
       282           C   tau( 282) = (  0.4374985  0.6874985  0.4374985  )
       283           C   tau( 283) = (  0.4374985  0.6874985  0.6874985  )
       284           C   tau( 284) = (  0.4374985  0.6874985  0.9374985  )
       285           C   tau( 285) = (  0.4374985  0.9374985  0.1874985  )
       286           C   tau( 286) = (  0.4374985  0.9374985  0.4374985  )
       287           C   tau( 287) = (  0.4374985  0.9374985  0.6874985  )
       288           C   tau( 288) = (  0.4374985  0.9374985  0.9374985  )
       289           C   tau( 289) = (  0.6874985  0.1874985  0.1874985  )
       290           C   tau( 290) = (  0.6874985  0.1874985  0.4374985  )
       291           C   tau( 291) = (  0.6874985  0.1874985  0.6874985  )
       292           C   tau( 292) = (  0.6874985  0.1874985  0.9374985  )
       293           C   tau( 293) = (  0.6874985  0.4374985  0.1874985  )
       294           C   tau( 294) = (  0.6874985  0.4374985  0.4374985  )
       295           C   tau( 295) = (  0.6874985  0.4374985  0.6874985  )
       296           C   tau( 296) = (  0.6874985  0.4374985  0.9374985  )
       297           C   tau( 297) = (  0.6874985  0.6874985  0.1874985  )
       298           C   tau( 298) = (  0.6874985  0.6874985  0.4374985  )
       299           C   tau( 299) = (  0.6874985  0.6874985  0.6874985  )
       300           C   tau( 300) = (  0.6874985  0.6874985  0.9374985  )
       301           C   tau( 301) = (  0.6874985  0.9374985  0.1874985  )
       302           C   tau( 302) = (  0.6874985  0.9374985  0.4374985  )
       303           C   tau( 303) = (  0.6874985  0.9374985  0.6874985  )
       304           C   tau( 304) = (  0.6874985  0.9374985  0.9374985  )
       305           C   tau( 305) = (  0.9374985  0.1874985  0.1874985  )
       306           C   tau( 306) = (  0.9374985  0.1874985  0.4374985  )
       307           C   tau( 307) = (  0.9374985  0.1874985  0.6874985  )
       308           C   tau( 308) = (  0.9374985  0.1874985  0.9374985  )
       309           C   tau( 309) = (  0.9374985  0.4374985  0.1874985  )
       310           C   tau( 310) = (  0.9374985  0.4374985  0.4374985  )
       311           C   tau( 311) = (  0.9374985  0.4374985  0.6874985  )
       312           C   tau( 312) = (  0.9374985  0.4374985  0.9374985  )
       313           C   tau( 313) = (  0.9374985  0.6874985  0.1874985  )
       314           C   tau( 314) = (  0.9374985  0.6874985  0.4374985  )
       315           C   tau( 315) = (  0.9374985  0.6874985  0.6874985  )
       316           C   tau( 316) = (  0.9374985  0.6874985  0.9374985  )
       317           C   tau( 317) = (  0.9374985  0.9374985  0.1874985  )
       318           C   tau( 318) = (  0.9374985  0.9374985  0.4374985  )
       319           C   tau( 319) = (  0.9374985  0.9374985  0.6874985  )
       320           C   tau( 320) = (  0.9374985  0.9374985  0.9374985  )
       321           C   tau( 321) = (  0.1250000  0.0000000  0.0000000  )
       322           C   tau( 322) = (  0.1250000  0.0000000  0.2500000  )
       323           C   tau( 323) = (  0.1250000  0.0000000  0.5000000  )
       324           C   tau( 324) = (  0.1250000  0.0000000  0.7500000  )
       325           C   tau( 325) = (  0.1250000  0.2500000  0.0000000  )
[...]
C             6.2515090676        6.2515090676        2.6792058914
C             6.2515090676        6.2515090676        6.2515090676
C             6.2515090676        6.2515090676        9.8238122437
C             6.2515090676        6.2515090676       13.3961154199
C             6.2515090676        9.8238122437        2.6792058914
C             6.2515090676        9.8238122437        6.2515090676
C             6.2515090676        9.8238122437        9.8238122437
C             6.2515090676        9.8238122437       13.3961154199
C             6.2515090676       13.3961154199        2.6792058914
C             6.2515090676       13.3961154199        6.2515090676
C             6.2515090676       13.3961154199        9.8238122437
C             6.2515090676       13.3961154199       13.3961154199
C             9.8238122437        2.6792058914        2.6792058914
C             9.8238122437        2.6792058914        6.2515090676
C             9.8238122437        2.6792058914        9.8238122437
C             9.8238122437        2.6792058914       13.3961154199
C             9.8238122437        6.2515090676        2.6792058914
C             9.8238122437        6.2515090676        6.2515090676
C             9.8238122437        6.2515090676        9.8238122437
C             9.8238122437        6.2515090676       13.3961154199
C             9.8238122437        9.8238122437        2.6792058914
C             9.8238122437        9.8238122437        6.2515090676
C             9.8238122437        9.8238122437        9.8238122437
C             9.8238122437        9.8238122437       13.3961154199
C             9.8238122437       13.3961154199        2.6792058914
C             9.8238122437       13.3961154199        6.2515090676
C             9.8238122437       13.3961154199        9.8238122437
C             9.8238122437       13.3961154199       13.3961154199
C            13.3961154199        2.6792058914        2.6792058914
C            13.3961154199        2.6792058914        6.2515090676
C            13.3961154199        2.6792058914        9.8238122437
C            13.3961154199        2.6792058914       13.3961154199
C            13.3961154199        6.2515090676        2.6792058914
C            13.3961154199        6.2515090676        6.2515090676
C            13.3961154199        6.2515090676        9.8238122437
C            13.3961154199        6.2515090676       13.3961154199
C            13.3961154199        9.8238122437        2.6792058914
C            13.3961154199        9.8238122437        6.2515090676
C            13.3961154199        9.8238122437        9.8238122437
C            13.3961154199        9.8238122437       13.3961154199
C            13.3961154199       13.3961154199        2.6792058914
C            13.3961154199       13.3961154199        6.2515090676
C            13.3961154199       13.3961154199        9.8238122437
C            13.3961154199       13.3961154199       13.3961154199
C             1.7861515885        0.0000000000        0.0000000000
C             1.7861515885        0.0000000000        3.5723031762
C             1.7861515885        0.0000000000        7.1446063523
C             1.7861515885        0.0000000000       10.7169095285
C             1.7861515885        3.5723031762        0.0000000000
C             1.7861515885        3.5723031762        3.5723031762
C             1.7861515885        3.5723031762        7.1446063523
C             1.7861515885        3.5723031762       10.7169095285
C             1.7861515885        7.1446063523        0.0000000000
C             1.7861515885        7.1446063523        3.5723031762
C             1.7861515885        7.1446063523        7.1446063523
C             1.7861515885        7.1446063523       10.7169095285
C             1.7861515885       10.7169095285        0.0000000000
C             1.7861515885       10.7169095285        3.5723031762
C             1.7861515885       10.7169095285        7.1446063523
C             1.7861515885       10.7169095285       10.7169095285
C             5.3584547647        0.0000000000        0.0000000000
C             5.3584547647        0.0000000000        3.5723031762
C             5.3584547647        0.0000000000        7.1446063523
C             5.3584547647        0.0000000000       10.7169095285
C             5.3584547647        3.5723031762        0.0000000000
C             5.3584547647        3.5723031762        3.5723031762
C             5.3584547647        3.5723031762        7.1446063523
C             5.3584547647        3.5723031762       10.7169095285
C             5.3584547647        7.1446063523        0.0000000000
C             5.3584547647        7.1446063523        3.5723031762
C             5.3584547647        7.1446063523        7.1446063523
C             5.3584547647        7.1446063523       10.7169095285
C             5.3584547647       10.7169095285        0.0000000000
C             5.3584547647       10.7169095285        3.5723031762
C             5.3584547647       10.7169095285        7.1446063523
C             5.3584547647       10.7169095285       10.7169095285
C             8.9307579408        0.0000000000        0.0000000000
C             8.9307579408        0.0000000000        3.5723031762
C             8.9307579408        0.0000000000        7.1446063523
C             8.9307579408        0.0000000000       10.7169095285
C             8.9307579408        3.5723031762        0.0000000000
C             8.9307579408        3.5723031762        3.5723031762
C             8.9307579408        3.5723031762        7.1446063523
C             8.9307579408        3.5723031762       10.7169095285
C             8.9307579408        7.1446063523        0.0000000000
C             8.9307579408        7.1446063523        3.5723031762
C             8.9307579408        7.1446063523        7.1446063523
C             8.9307579408        7.1446063523       10.7169095285
C             8.9307579408       10.7169095285        0.0000000000
C             8.9307579408       10.7169095285        3.5723031762
C             8.9307579408       10.7169095285        7.1446063523
C             8.9307579408       10.7169095285       10.7169095285
C            12.5030611170        0.0000000000        0.0000000000
C            12.5030611170        0.0000000000        3.5723031762
C            12.5030611170        0.0000000000        7.1446063523
C            12.5030611170        0.0000000000       10.7169095285
C            12.5030611170        3.5723031762        0.0000000000
C            12.5030611170        3.5723031762        3.5723031762
C            12.5030611170        3.5723031762        7.1446063523
C            12.5030611170        3.5723031762       10.7169095285
C            12.5030611170        7.1446063523        0.0000000000
C            12.5030611170        7.1446063523        3.5723031762
C            12.5030611170        7.1446063523        7.1446063523
C            12.5030611170        7.1446063523       10.7169095285
C            12.5030611170       10.7169095285        0.0000000000
C            12.5030611170       10.7169095285        3.5723031762
C            12.5030611170       10.7169095285        7.1446063523
C            12.5030611170       10.7169095285       10.7169095285
C             2.6792058914        0.8930972856        0.8930972856
C             2.6792058914        0.8930972856        4.4654004618
C             2.6792058914        0.8930972856        8.0377036379
C             2.6792058914        0.8930972856       11.6100068141
C             2.6792058914        4.4654004618        0.8930972856
C             2.6792058914        4.4654004618        4.4654004618
C             2.6792058914        4.4654004618        8.0377036379
C             2.6792058914        4.4654004618       11.6100068141
C             2.6792058914        8.0377036379        0.8930972856
C             2.6792058914        8.0377036379        4.4654004618
C             2.6792058914        8.0377036379        8.0377036379
C             2.6792058914        8.0377036379       11.6100068141
C             2.6792058914       11.6100068141        0.8930972856
C             2.6792058914       11.6100068141        4.4654004618
C             2.6792058914       11.6100068141        8.0377036379
C             2.6792058914       11.6100068141       11.6100068141
C             6.2515090676        0.8930972856        0.8930972856
C             6.2515090676        0.8930972856        4.4654004618
C             6.2515090676        0.8930972856        8.0377036379
C             6.2515090676        0.8930972856       11.6100068141
C             6.2515090676        4.4654004618        0.8930972856
C             6.2515090676        4.4654004618        4.4654004618
C             6.2515090676        4.4654004618        8.0377036379
C             6.2515090676        4.4654004618       11.6100068141
C             6.2515090676        8.0377036379        0.8930972856
C             6.2515090676        8.0377036379        4.4654004618
C             6.2515090676        8.0377036379        8.0377036379
C             6.2515090676        8.0377036379       11.6100068141
C             6.2515090676       11.6100068141        0.8930972856
C             6.2515090676       11.6100068141        4.4654004618
C             6.2515090676       11.6100068141        8.0377036379
C             6.2515090676       11.6100068141       11.6100068141
C             9.8238122437        0.8930972856        0.8930972856
C             9.8238122437        0.8930972856        4.4654004618
C             9.8238122437        0.8930972856        8.0377036379
C             9.8238122437        0.8930972856       11.6100068141
C             9.8238122437        4.4654004618        0.8930972856
C             9.8238122437        4.4654004618        4.4654004618
C             9.8238122437        4.4654004618        8.0377036379
C             9.8238122437        4.4654004618       11.6100068141
C             9.8238122437        8.0377036379        0.8930972856
C             9.8238122437        8.0377036379        4.4654004618
C             9.8238122437        8.0377036379        8.0377036379
C             9.8238122437        8.0377036379       11.6100068141
C             9.8238122437       11.6100068141        0.8930972856
C             9.8238122437       11.6100068141        4.4654004618
C             9.8238122437       11.6100068141        8.0377036379
C             9.8238122437       11.6100068141       11.6100068141
C            13.3961154199        0.8930972856        0.8930972856
C            13.3961154199        0.8930972856        4.4654004618
C            13.3961154199        0.8930972856        8.0377036379
C            13.3961154199        0.8930972856       11.6100068141
C            13.3961154199        4.4654004618        0.8930972856
C            13.3961154199        4.4654004618        4.4654004618
C            13.3961154199        4.4654004618        8.0377036379
C            13.3961154199        4.4654004618       11.6100068141
C            13.3961154199        8.0377036379        0.8930972856
C            13.3961154199        8.0377036379        4.4654004618
C            13.3961154199        8.0377036379        8.0377036379
C            13.3961154199        8.0377036379       11.6100068141
C            13.3961154199       11.6100068141        0.8930972856
C            13.3961154199       11.6100068141        4.4654004618
C            13.3961154199       11.6100068141        8.0377036379
C            13.3961154199       11.6100068141       11.6100068141
C             1.7861515885        1.7861515885        1.7861515885
C             1.7861515885        1.7861515885        5.3584547647
C             1.7861515885        1.7861515885        8.9307579408
C             1.7861515885        1.7861515885       12.5030611170
C             1.7861515885        5.3584547647        1.7861515885
C             1.7861515885        5.3584547647        5.3584547647
C             1.7861515885        5.3584547647        8.9307579408
C             1.7861515885        5.3584547647       12.5030611170
C             1.7861515885        8.9307579408        1.7861515885
C             1.7861515885        8.9307579408        5.3584547647
C             1.7861515885        8.9307579408        8.9307579408
C             1.7861515885        8.9307579408       12.5030611170
C             1.7861515885       12.5030611170        1.7861515885
C             1.7861515885       12.5030611170        5.3584547647
C             1.7861515885       12.5030611170        8.9307579408
C             1.7861515885       12.5030611170       12.5030611170
C             5.3584547647        1.7861515885        1.7861515885
C             5.3584547647        1.7861515885        5.3584547647
C             5.3584547647        1.7861515885        8.9307579408
C             5.3584547647        1.7861515885       12.5030611170
C             5.3584547647        5.3584547647        1.7861515885
C             5.3584547647        5.3584547647        5.3584547647
C             5.3584547647        5.3584547647        8.9307579408
C             5.3584547647        5.3584547647       12.5030611170
C             5.3584547647        8.9307579408        1.7861515885
C             5.3584547647        8.9307579408        5.3584547647
C             5.3584547647        8.9307579408        8.9307579408
C             5.3584547647        8.9307579408       12.5030611170
C             5.3584547647       12.5030611170        1.7861515885
C             5.3584547647       12.5030611170        5.3584547647
C             5.3584547647       12.5030611170        8.9307579408
C             5.3584547647       12.5030611170       12.5030611170
C             8.9307579408        1.7861515885        1.7861515885
C             8.9307579408        1.7861515885        5.3584547647
C             8.9307579408        1.7861515885        8.9307579408
C             8.9307579408        1.7861515885       12.5030611170
C             8.9307579408        5.3584547647        1.7861515885
C             8.9307579408        5.3584547647        5.3584547647
C             8.9307579408        5.3584547647        8.9307579408
C             8.9307579408        5.3584547647       12.5030611170
C             8.9307579408        8.9307579408        1.7861515885
C             8.9307579408        8.9307579408        5.3584547647
C             8.9307579408        8.9307579408        8.9307579408
C             8.9307579408        8.9307579408       12.5030611170
C             8.9307579408       12.5030611170        1.7861515885
C             8.9307579408       12.5030611170        5.3584547647
C             8.9307579408       12.5030611170        8.9307579408
C             8.9307579408       12.5030611170       12.5030611170
C            12.5030611170        1.7861515885        1.7861515885
C            12.5030611170        1.7861515885        5.3584547647
C            12.5030611170        1.7861515885        8.9307579408
C            12.5030611170        1.7861515885       12.5030611170
C            12.5030611170        5.3584547647        1.7861515885
C            12.5030611170        5.3584547647        5.3584547647
C            12.5030611170        5.3584547647        8.9307579408
C            12.5030611170        5.3584547647       12.5030611170
C            12.5030611170        8.9307579408        1.7861515885
C            12.5030611170        8.9307579408        5.3584547647
C            12.5030611170        8.9307579408        8.9307579408
C            12.5030611170        8.9307579408       12.5030611170
C            12.5030611170       12.5030611170        1.7861515885
C            12.5030611170       12.5030611170        5.3584547647
C            12.5030611170       12.5030611170        8.9307579408
C            12.5030611170       12.5030611170       12.5030611170
End final coordinates



     Writing all to output data dir ./diamond.save/
 
     init_run     :     48.04s CPU     49.32s WALL (       1 calls)
     electrons    :   1483.86s CPU   1568.06s WALL (       1 calls)
     forces       :      8.24s CPU      8.68s WALL (       1 calls)
     stress       :    101.49s CPU    103.56s WALL (       1 calls)

     Called by init_run:
     wfcinit      :     45.02s CPU     45.98s WALL (       1 calls)
     wfcinit:atom :      0.03s CPU      0.05s WALL (       1 calls)
     wfcinit:wfcr :     44.57s CPU     45.30s WALL (       1 calls)
     potinit      :      0.89s CPU      1.01s WALL (       1 calls)
     hinit0       :      0.84s CPU      0.91s WALL (       1 calls)

     Called by electrons:
     c_bands      :   1461.36s CPU   1544.83s WALL (       2 calls)
     sum_band     :     21.47s CPU     21.88s WALL (       2 calls)
     v_of_rho     :      1.26s CPU      1.31s WALL (       2 calls)
     v_h          :      0.02s CPU      0.02s WALL (       2 calls)
     v_xc         :      2.31s CPU      2.37s WALL (       4 calls)
     newd         :      0.16s CPU      0.28s WALL (       2 calls)
     PAW_pot      :      0.24s CPU      0.25s WALL (       2 calls)
     mix_rho      :      0.00s CPU      0.00s WALL (       2 calls)
     vdW_kernel   :      0.14s CPU      0.15s WALL (       1 calls)

     Called by c_bands:
     init_us_2    :      0.17s CPU      0.21s WALL (       5 calls)
     init_us_2:cp :      0.17s CPU      0.21s WALL (       5 calls)
     cegterg      :   1460.94s CPU   1543.21s WALL (       3 calls)

     Called by sum_band:
     sum_band:wei :      0.00s CPU      0.00s WALL (       2 calls)
     sum_band:loo :     21.16s CPU     21.34s WALL (       2 calls)
     sum_band:buf :      0.00s CPU      0.00s WALL (       2 calls)
     sum_band:ini :      0.11s CPU      0.11s WALL (       2 calls)
     sum_band:cal :      3.25s CPU      3.27s WALL (       2 calls)
     sum_band:bec :      0.53s CPU      0.53s WALL (       2 calls)
     addusdens    :      0.16s CPU      0.26s WALL (       2 calls)
     addusd:skk   :      0.05s CPU      0.15s WALL (       2 calls)
     addusd:dgemm :      0.10s CPU      0.11s WALL (       2 calls)
     addusd:qvan2 :      0.01s CPU      0.01s WALL (       2 calls)

     Called by *egterg:
     cdiaghg      :   1045.82s CPU   1114.35s WALL (      44 calls)
     cegterg:over :     35.89s CPU     38.27s WALL (      43 calls)
     cegterg:upda :     15.89s CPU     16.17s WALL (      43 calls)
     cegterg:last :     14.37s CPU     14.52s WALL (       6 calls)
     h_psi        :    350.04s CPU    354.60s WALL (      47 calls)
     s_psi        :     20.79s CPU     22.16s WALL (      47 calls)
     g_psi        :      0.05s CPU      0.06s WALL (      43 calls)

     Called by h_psi:
     h_psi:calbec :     32.42s CPU     32.70s WALL (      47 calls)
     vloc_psi     :    296.57s CPU    299.09s WALL (      47 calls)
     vloc_psi:tg_ :      0.01s CPU      0.01s WALL (      47 calls)
     add_vuspsi   :     20.89s CPU     22.50s WALL (      47 calls)

     General routines
     calbec       :     43.69s CPU     44.05s WALL (      54 calls)
     fft          :      2.86s CPU      2.92s WALL (     294 calls)
     ffts         :      0.03s CPU      0.03s WALL (       4 calls)
     fftw         :    312.13s CPU    314.76s WALL (   43902 calls)
     interpolate  :      0.04s CPU      0.04s WALL (       2 calls)
 
     Parallel routines
     fft_scatt_xy :      2.33s CPU      2.35s WALL (   44200 calls)
     fft_scatt_yz :    300.01s CPU    302.50s WALL (   44200 calls)
     fft_scatt_tg :      0.13s CPU      0.14s WALL (   43902 calls)

     PAW routines
     PAW_pot      :      0.24s CPU      0.25s WALL (       2 calls)
     PAW_symme    :      0.00s CPU      0.00s WALL (       3 calls)
 
     PWSCF        :  27m44.63s CPU  29m18.65s WALL

 
   This run was terminated on:  18:19:52  18Feb2024            

=------------------------------------------------------------------------------=
   JOB DONE.
=------------------------------------------------------------------------------=
