
     Program PWSCF v.7.1 starts on 19Feb2024 at 11: 4:36 

     This program is part of the open-source Quantum ESPRESSO suite
     for quantum simulation of materials; please cite
         "P. Giannozzi et al., J. Phys.:Condens. Matter 21 395502 (2009);
         "P. Giannozzi et al., J. Phys.:Condens. Matter 29 465901 (2017);
         "P. Giannozzi et al., J. Chem. Phys. 152 154105 (2020);
          URL http://www.quantum-espresso.org", 
     in publications or presentations arising from this work. More details at
     http://www.quantum-espresso.org/quote

     Parallel version (MPI & OpenMP), running on     256 processor cores
     Number of MPI processes:               256
     Threads/MPI process:                     1

     MPI processes distributed on     2 nodes
     1977962 MiB available memory on the printing compute node when the environment starts
 
     Reading input from espresso.pwi
Warning: card &CELL ignored
Warning: card    CELL_DYNAMICS    = 'BFGS' ignored
Warning: card / ignored

     Current dimensions of program PWSCF are:
     Max number of different atomic species (ntypx) = 10
     Max number of k-points (npk) =  40000
     Max angular momentum in pseudopotentials (lmaxx) =  4
     file C.pbe-n-kjpaw_psl.1.0.0.UPF: wavefunction(s)  2S 2P renormalized

     **************************************************************************
     Initializing libbeef V0.1.2 with the BEEF-vdW functional.
     Citation: Wellendorff et al., PRB 85, 235149 (2012).
     **************************************************************************


     IMPORTANT: XC functional enforced from input :
     Exchange-correlation= BEEF-VDW
                           (   1   4  43  14   2   0   0)
     Any further DFT definition will be discarded
     Please, verify this is what you really want

 
     K-points division:     npool     =       4
     R & G space division:  proc/nbgrp/npool/nimage =      64
     Subspace diagonalization in iterative solution of the eigenvalue problem:
     a serial algorithm will be used

 
     Parallelization info
     --------------------
     sticks:   dense  smooth     PW     G-vecs:    dense   smooth      PW
     Min         178     142     38                14350    10258    1410
     Max         179     143     39                14357    10265    1416
     Sum       11433    9133   2433               918657   656775   90447
 
     Using Slab Decomposition
 


     bravais-lattice index     =            1
     lattice parameter (alat)  =      20.2520  a.u.
     unit-cell volume          =    8306.2556 (a.u.)^3
     number of atoms/cell      =          215
     number of atomic types    =            1
     number of electrons       =       860.00
     number of Kohn-Sham states=          516
     kinetic-energy cutoff     =      70.0000  Ry
     charge density cutoff     =     350.0000  Ry
     scf convergence threshold =      1.0E-07
     mixing beta               =       0.7000
     number of iterations used =            8  plain     mixing
     energy convergence thresh.=      1.0E-04
     force convergence thresh. =      1.0E-03
     Exchange-correlation= BEEF-VDW
                           (   1   4  43  14   2   0   0)
     nstep                     =           50


     celldm(1)=  20.252024  celldm(2)=   0.000000  celldm(3)=   0.000000
     celldm(4)=   0.000000  celldm(5)=   0.000000  celldm(6)=   0.000000

     crystal axes: (cart. coord. in units of alat)
               a(1) = (   1.000000   0.000000   0.000000 )  
               a(2) = (   0.000000   1.000000   0.000000 )  
               a(3) = (   0.000000   0.000000   1.000000 )  

     reciprocal axes: (cart. coord. in units 2 pi/alat)
               b(1) = (  1.000000  0.000000  0.000000 )  
               b(2) = (  0.000000  1.000000  0.000000 )  
               b(3) = (  0.000000  0.000000  1.000000 )  


     PseudoPot. # 1 for C  read from file:
     /trace/group/acmegroup/atimmins/packages/espresso/pseudo/psl_1.0.0/pslibrary.1.0.0/pbe/PSEUDOPOTENTIALS/C.pbe-n-kjpaw_psl.1.0.0.UPF
     MD5 check sum: 5459cf7f2c8c37df2f7cde8914797f4d
     Pseudo is Projector augmented-wave + core cor, Zval =  4.0
     Generated using 'atomic' code by A. Dal Corso  v.7.1
     Shape of augmentation charge: PSQ
     Using radial grid of 1073 points,  4 beta functions with: 
                l(1) =   0
                l(2) =   0
                l(3) =   1
                l(4) =   1
     Q(r) pseudized with 0 coefficients 


     atomic species   valence    mass     pseudopotential
        C              4.00    12.01100     C ( 1.00)

      6 Sym. Ops. (no inversion) found ( 4 have fractional translation)


                                    s                        frac. trans.

      isym =  1     identity                                     

 cryst.   s( 1) = (     1          0          0      )
                  (     0          1          0      )
                  (     0          0          1      )

 cart.    s( 1) = (  1.0000000  0.0000000  0.0000000 )
                  (  0.0000000  1.0000000  0.0000000 )
                  (  0.0000000  0.0000000  1.0000000 )


      isym =  2     120 deg rotation - cart. axis [1,-1,1]       

 cryst.   s( 2) = (     0          0          1      )    f =( -0.3333333 )
                  (    -1          0          0      )       ( -0.3333333 )
                  (     0         -1          0      )       (  0.0000000 )

 cart.    s( 2) = (  0.0000000 -1.0000000  0.0000000 )    f =( -0.3333333 )
                  (  0.0000000  0.0000000 -1.0000000 )       ( -0.3333333 )
                  (  1.0000000  0.0000000  0.0000000 )       (  0.0000000 )


      isym =  3     120 deg rotation - cart. axis [-1,1,-1]      

 cryst.   s( 3) = (     0         -1          0      )    f =(  0.0000000 )
                  (     0          0         -1      )       ( -0.3333333 )
                  (     1          0          0      )       ( -0.3333333 )

 cart.    s( 3) = (  0.0000000  0.0000000  1.0000000 )    f =(  0.0000000 )
                  ( -1.0000000  0.0000000  0.0000000 )       ( -0.3333333 )
                  (  0.0000000 -1.0000000  0.0000000 )       ( -0.3333333 )


      isym =  4     inv. 180 deg rotation - cart. axis [1,1,0]   

 cryst.   s( 4) = (     0         -1          0      )    f =( -0.3333333 )
                  (    -1          0          0      )       ( -0.3333333 )
                  (     0          0          1      )       (  0.0000000 )

 cart.    s( 4) = (  0.0000000 -1.0000000  0.0000000 )    f =( -0.3333333 )
                  ( -1.0000000  0.0000000  0.0000000 )       ( -0.3333333 )
                  (  0.0000000  0.0000000  1.0000000 )       (  0.0000000 )


      isym =  5     inv. 180 deg rotation - cart. axis [-1,0,1]  

 cryst.   s( 5) = (     0          0          1      )
                  (     0          1          0      )
                  (     1          0          0      )

 cart.    s( 5) = (  0.0000000  0.0000000  1.0000000 )
                  (  0.0000000  1.0000000  0.0000000 )
                  (  1.0000000  0.0000000  0.0000000 )


      isym =  6     inv. 180 deg rotation - cart. axis [0,1,1]   

 cryst.   s( 6) = (     1          0          0      )    f =(  0.0000000 )
                  (     0          0         -1      )       ( -0.3333333 )
                  (     0         -1          0      )       ( -0.3333333 )

 cart.    s( 6) = (  1.0000000  0.0000000  0.0000000 )    f =(  0.0000000 )
                  (  0.0000000  0.0000000 -1.0000000 )       ( -0.3333333 )
                  (  0.0000000 -1.0000000  0.0000000 )       ( -0.3333333 )


     point group C_3v (3m)  
     there are  3 classes
     the character table:

       E     2C3   3s_v 
A_1    1.00  1.00  1.00
A_2    1.00  1.00 -1.00
E      2.00 -1.00  0.00

     the symmetry operations in each class and the name of the first element:

     E        1
          identity                                               
     2C3      2    3
          120 deg rotation - cart. axis [1,-1,1]                 
     3s_v     4    5    6
          inv. 180 deg rotation - cart. axis [1,1,0]             

   Cartesian axes

     site n.     atom                  positions (alat units)
         1           C   tau(   1) = (   0.0833353   0.2499980   0.4166687  )
         2           C   tau(   2) = (   0.0833353   0.2499980   0.7500020  )
         3           C   tau(   3) = (   0.0833353   0.5833313   0.0833353  )
         4           C   tau(   4) = (   0.0833353   0.5833313   0.4166687  )
         5           C   tau(   5) = (   0.0833353   0.5833313   0.7500020  )
         6           C   tau(   6) = (   0.0833353   0.9166647   0.0833353  )
         7           C   tau(   7) = (   0.0833353   0.9166647   0.4166687  )
         8           C   tau(   8) = (   0.0833353   0.9166647   0.7500020  )
         9           C   tau(   9) = (   0.4166687   0.2499980   0.0833353  )
        10           C   tau(  10) = (   0.4166687   0.2499980   0.4166687  )
        11           C   tau(  11) = (   0.4166687   0.2499980   0.7500020  )
        12           C   tau(  12) = (   0.4166687   0.5833313   0.0833353  )
        13           C   tau(  13) = (   0.4166687   0.5833313   0.4166687  )
        14           C   tau(  14) = (   0.4166687   0.5833313   0.7500020  )
        15           C   tau(  15) = (   0.4166687   0.9166647   0.0833353  )
        16           C   tau(  16) = (   0.4166687   0.9166647   0.4166687  )
        17           C   tau(  17) = (   0.4166687   0.9166647   0.7500020  )
        18           C   tau(  18) = (   0.7500020   0.2499980   0.0833353  )
        19           C   tau(  19) = (   0.7500020   0.2499980   0.4166687  )
        20           C   tau(  20) = (   0.7500020   0.2499980   0.7500020  )
        21           C   tau(  21) = (   0.7500020   0.5833313   0.0833353  )
        22           C   tau(  22) = (   0.7500020   0.5833313   0.4166687  )
        23           C   tau(  23) = (   0.7500020   0.5833313   0.7500020  )
        24           C   tau(  24) = (   0.7500020   0.9166647   0.0833353  )
        25           C   tau(  25) = (   0.7500020   0.9166647   0.4166687  )
        26           C   tau(  26) = (   0.7500020   0.9166647   0.7500020  )
        27           C   tau(  27) = (   0.0000000   0.0000000   0.1666667  )
        28           C   tau(  28) = (   0.0000000   0.0000000   0.5000000  )
        29           C   tau(  29) = (   0.0000000   0.0000000   0.8333333  )
        30           C   tau(  30) = (   0.0000000   0.3333333   0.1666667  )
        31           C   tau(  31) = (   0.0000000   0.3333333   0.5000000  )
        32           C   tau(  32) = (   0.0000000   0.3333333   0.8333333  )
        33           C   tau(  33) = (   0.0000000   0.6666667   0.1666667  )
        34           C   tau(  34) = (   0.0000000   0.6666667   0.5000000  )
        35           C   tau(  35) = (   0.0000000   0.6666667   0.8333333  )
        36           C   tau(  36) = (   0.3333333   0.0000000   0.1666667  )
        37           C   tau(  37) = (   0.3333333   0.0000000   0.5000000  )
        38           C   tau(  38) = (   0.3333333   0.0000000   0.8333333  )
        39           C   tau(  39) = (   0.3333333   0.3333333   0.1666667  )
        40           C   tau(  40) = (   0.3333333   0.3333333   0.5000000  )
        41           C   tau(  41) = (   0.3333333   0.3333333   0.8333333  )
        42           C   tau(  42) = (   0.3333333   0.6666667   0.1666667  )
        43           C   tau(  43) = (   0.3333333   0.6666667   0.5000000  )
        44           C   tau(  44) = (   0.3333333   0.6666667   0.8333333  )
        45           C   tau(  45) = (   0.6666667   0.0000000   0.1666667  )
        46           C   tau(  46) = (   0.6666667   0.0000000   0.5000000  )
        47           C   tau(  47) = (   0.6666667   0.0000000   0.8333333  )
        48           C   tau(  48) = (   0.6666667   0.3333333   0.1666667  )
        49           C   tau(  49) = (   0.6666667   0.3333333   0.5000000  )
        50           C   tau(  50) = (   0.6666667   0.3333333   0.8333333  )
        51           C   tau(  51) = (   0.6666667   0.6666667   0.1666667  )
        52           C   tau(  52) = (   0.6666667   0.6666667   0.5000000  )
        53           C   tau(  53) = (   0.6666667   0.6666667   0.8333333  )
        54           C   tau(  54) = (   0.0833353   0.0833353   0.2499980  )
        55           C   tau(  55) = (   0.0833353   0.0833353   0.5833313  )
        56           C   tau(  56) = (   0.0833353   0.0833353   0.9166647  )
        57           C   tau(  57) = (   0.0833353   0.4166687   0.2499980  )
        58           C   tau(  58) = (   0.0833353   0.4166687   0.5833313  )
        59           C   tau(  59) = (   0.0833353   0.4166687   0.9166647  )
        60           C   tau(  60) = (   0.0833353   0.7500020   0.2499980  )
        61           C   tau(  61) = (   0.0833353   0.7500020   0.5833313  )
        62           C   tau(  62) = (   0.0833353   0.7500020   0.9166647  )
        63           C   tau(  63) = (   0.4166687   0.0833353   0.2499980  )
        64           C   tau(  64) = (   0.4166687   0.0833353   0.5833313  )
        65           C   tau(  65) = (   0.4166687   0.0833353   0.9166647  )
        66           C   tau(  66) = (   0.4166687   0.4166687   0.2499980  )
        67           C   tau(  67) = (   0.4166687   0.4166687   0.5833313  )
        68           C   tau(  68) = (   0.4166687   0.4166687   0.9166647  )
        69           C   tau(  69) = (   0.4166687   0.7500020   0.2499980  )
        70           C   tau(  70) = (   0.4166687   0.7500020   0.5833313  )
        71           C   tau(  71) = (   0.4166687   0.7500020   0.9166647  )
        72           C   tau(  72) = (   0.7500020   0.0833353   0.2499980  )
        73           C   tau(  73) = (   0.7500020   0.0833353   0.5833313  )
        74           C   tau(  74) = (   0.7500020   0.0833353   0.9166647  )
        75           C   tau(  75) = (   0.7500020   0.4166687   0.2499980  )
        76           C   tau(  76) = (   0.7500020   0.4166687   0.5833313  )
        77           C   tau(  77) = (   0.7500020   0.4166687   0.9166647  )
        78           C   tau(  78) = (   0.7500020   0.7500020   0.2499980  )
        79           C   tau(  79) = (   0.7500020   0.7500020   0.5833313  )
        80           C   tau(  80) = (   0.7500020   0.7500020   0.9166647  )
        81           C   tau(  81) = (   0.0000000   0.1666667   0.0000000  )
        82           C   tau(  82) = (   0.0000000   0.1666667   0.3333333  )
        83           C   tau(  83) = (   0.0000000   0.1666667   0.6666667  )
        84           C   tau(  84) = (   0.0000000   0.5000000   0.0000000  )
        85           C   tau(  85) = (   0.0000000   0.5000000   0.3333333  )
        86           C   tau(  86) = (   0.0000000   0.5000000   0.6666667  )
        87           C   tau(  87) = (   0.0000000   0.8333333   0.0000000  )
        88           C   tau(  88) = (   0.0000000   0.8333333   0.3333333  )
        89           C   tau(  89) = (   0.0000000   0.8333333   0.6666667  )
        90           C   tau(  90) = (   0.3333333   0.1666667   0.0000000  )
        91           C   tau(  91) = (   0.3333333   0.1666667   0.3333333  )
        92           C   tau(  92) = (   0.3333333   0.1666667   0.6666667  )
        93           C   tau(  93) = (   0.3333333   0.5000000   0.0000000  )
        94           C   tau(  94) = (   0.3333333   0.5000000   0.3333333  )
        95           C   tau(  95) = (   0.3333333   0.5000000   0.6666667  )
        96           C   tau(  96) = (   0.3333333   0.8333333   0.0000000  )
        97           C   tau(  97) = (   0.3333333   0.8333333   0.3333333  )
        98           C   tau(  98) = (   0.3333333   0.8333333   0.6666667  )
        99           C   tau(  99) = (   0.6666667   0.1666667   0.0000000  )
       100           C   tau( 100) = (   0.6666667   0.1666667   0.3333333  )
       101           C   tau( 101) = (   0.6666667   0.1666667   0.6666667  )
       102           C   tau( 102) = (   0.6666667   0.5000000   0.0000000  )
       103           C   tau( 103) = (   0.6666667   0.5000000   0.3333333  )
       104           C   tau( 104) = (   0.6666667   0.5000000   0.6666667  )
       105           C   tau( 105) = (   0.6666667   0.8333333   0.0000000  )
       106           C   tau( 106) = (   0.6666667   0.8333333   0.3333333  )
       107           C   tau( 107) = (   0.6666667   0.8333333   0.6666667  )
       108           C   tau( 108) = (   0.2499980   0.2499980   0.2499980  )
       109           C   tau( 109) = (   0.2499980   0.2499980   0.5833313  )
       110           C   tau( 110) = (   0.2499980   0.2499980   0.9166647  )
       111           C   tau( 111) = (   0.2499980   0.5833313   0.2499980  )
       112           C   tau( 112) = (   0.2499980   0.5833313   0.5833313  )
       113           C   tau( 113) = (   0.2499980   0.5833313   0.9166647  )
       114           C   tau( 114) = (   0.2499980   0.9166647   0.2499980  )
       115           C   tau( 115) = (   0.2499980   0.9166647   0.5833313  )
       116           C   tau( 116) = (   0.2499980   0.9166647   0.9166647  )
       117           C   tau( 117) = (   0.5833313   0.2499980   0.2499980  )
       118           C   tau( 118) = (   0.5833313   0.2499980   0.5833313  )
       119           C   tau( 119) = (   0.5833313   0.2499980   0.9166647  )
       120           C   tau( 120) = (   0.5833313   0.5833313   0.2499980  )
       121           C   tau( 121) = (   0.5833313   0.5833313   0.5833313  )
       122           C   tau( 122) = (   0.5833313   0.5833313   0.9166647  )
       123           C   tau( 123) = (   0.5833313   0.9166647   0.2499980  )
       124           C   tau( 124) = (   0.5833313   0.9166647   0.5833313  )
       125           C   tau( 125) = (   0.5833313   0.9166647   0.9166647  )
       126           C   tau( 126) = (   0.9166647   0.2499980   0.2499980  )
       127           C   tau( 127) = (   0.9166647   0.2499980   0.5833313  )
       128           C   tau( 128) = (   0.9166647   0.2499980   0.9166647  )
       129           C   tau( 129) = (   0.9166647   0.5833313   0.2499980  )
       130           C   tau( 130) = (   0.9166647   0.5833313   0.5833313  )
       131           C   tau( 131) = (   0.9166647   0.5833313   0.9166647  )
       132           C   tau( 132) = (   0.9166647   0.9166647   0.2499980  )
       133           C   tau( 133) = (   0.9166647   0.9166647   0.5833313  )
       134           C   tau( 134) = (   0.9166647   0.9166647   0.9166647  )
       135           C   tau( 135) = (   0.1666667   0.0000000   0.0000000  )
       136           C   tau( 136) = (   0.1666667   0.0000000   0.3333333  )
       137           C   tau( 137) = (   0.1666667   0.0000000   0.6666667  )
       138           C   tau( 138) = (   0.1666667   0.3333333   0.0000000  )
       139           C   tau( 139) = (   0.1666667   0.3333333   0.3333333  )
       140           C   tau( 140) = (   0.1666667   0.3333333   0.6666667  )
       141           C   tau( 141) = (   0.1666667   0.6666667   0.0000000  )
       142           C   tau( 142) = (   0.1666667   0.6666667   0.3333333  )
       143           C   tau( 143) = (   0.1666667   0.6666667   0.6666667  )
       144           C   tau( 144) = (   0.5000000   0.0000000   0.0000000  )
       145           C   tau( 145) = (   0.5000000   0.0000000   0.3333333  )
       146           C   tau( 146) = (   0.5000000   0.0000000   0.6666667  )
       147           C   tau( 147) = (   0.5000000   0.3333333   0.0000000  )
       148           C   tau( 148) = (   0.5000000   0.3333333   0.3333333  )
       149           C   tau( 149) = (   0.5000000   0.3333333   0.6666667  )
       150           C   tau( 150) = (   0.5000000   0.6666667   0.0000000  )
       151           C   tau( 151) = (   0.5000000   0.6666667   0.3333333  )
       152           C   tau( 152) = (   0.5000000   0.6666667   0.6666667  )
       153           C   tau( 153) = (   0.8333333   0.0000000   0.0000000  )
       154           C   tau( 154) = (   0.8333333   0.0000000   0.3333333  )
       155           C   tau( 155) = (   0.8333333   0.0000000   0.6666667  )
       156           C   tau( 156) = (   0.8333333   0.3333333   0.0000000  )
       157           C   tau( 157) = (   0.8333333   0.3333333   0.3333333  )
       158           C   tau( 158) = (   0.8333333   0.3333333   0.6666667  )
       159           C   tau( 159) = (   0.8333333   0.6666667   0.0000000  )
       160           C   tau( 160) = (   0.8333333   0.6666667   0.3333333  )
       161           C   tau( 161) = (   0.8333333   0.6666667   0.6666667  )
       162           C   tau( 162) = (   0.2499980   0.0833353   0.0833353  )
       163           C   tau( 163) = (   0.2499980   0.0833353   0.4166687  )
       164           C   tau( 164) = (   0.2499980   0.0833353   0.7500020  )
       165           C   tau( 165) = (   0.2499980   0.4166687   0.0833353  )
       166           C   tau( 166) = (   0.2499980   0.4166687   0.4166687  )
       167           C   tau( 167) = (   0.2499980   0.4166687   0.7500020  )
       168           C   tau( 168) = (   0.2499980   0.7500020   0.0833353  )
       169           C   tau( 169) = (   0.2499980   0.7500020   0.4166687  )
       170           C   tau( 170) = (   0.2499980   0.7500020   0.7500020  )
       171           C   tau( 171) = (   0.5833313   0.0833353   0.0833353  )
       172           C   tau( 172) = (   0.5833313   0.0833353   0.4166687  )
       173           C   tau( 173) = (   0.5833313   0.0833353   0.7500020  )
       174           C   tau( 174) = (   0.5833313   0.4166687   0.0833353  )
       175           C   tau( 175) = (   0.5833313   0.4166687   0.4166687  )
       176           C   tau( 176) = (   0.5833313   0.4166687   0.7500020  )
       177           C   tau( 177) = (   0.5833313   0.7500020   0.0833353  )
       178           C   tau( 178) = (   0.5833313   0.7500020   0.4166687  )
       179           C   tau( 179) = (   0.5833313   0.7500020   0.7500020  )
       180           C   tau( 180) = (   0.9166647   0.0833353   0.0833353  )
       181           C   tau( 181) = (   0.9166647   0.0833353   0.4166687  )
       182           C   tau( 182) = (   0.9166647   0.0833353   0.7500020  )
       183           C   tau( 183) = (   0.9166647   0.4166687   0.0833353  )
       184           C   tau( 184) = (   0.9166647   0.4166687   0.4166687  )
       185           C   tau( 185) = (   0.9166647   0.4166687   0.7500020  )
       186           C   tau( 186) = (   0.9166647   0.7500020   0.0833353  )
       187           C   tau( 187) = (   0.9166647   0.7500020   0.4166687  )
       188           C   tau( 188) = (   0.9166647   0.7500020   0.7500020  )
       189           C   tau( 189) = (   0.1666667   0.1666667   0.1666667  )
       190           C   tau( 190) = (   0.1666667   0.1666667   0.5000000  )
       191           C   tau( 191) = (   0.1666667   0.1666667   0.8333333  )
       192           C   tau( 192) = (   0.1666667   0.5000000   0.1666667  )
       193           C   tau( 193) = (   0.1666667   0.5000000   0.5000000  )
       194           C   tau( 194) = (   0.1666667   0.5000000   0.8333333  )
       195           C   tau( 195) = (   0.1666667   0.8333333   0.1666667  )
       196           C   tau( 196) = (   0.1666667   0.8333333   0.5000000  )
       197           C   tau( 197) = (   0.1666667   0.8333333   0.8333333  )
       198           C   tau( 198) = (   0.5000000   0.1666667   0.1666667  )
       199           C   tau( 199) = (   0.5000000   0.1666667   0.5000000  )
       200           C   tau( 200) = (   0.5000000   0.1666667   0.8333333  )
       201           C   tau( 201) = (   0.5000000   0.5000000   0.1666667  )
       202           C   tau( 202) = (   0.5000000   0.5000000   0.5000000  )
       203           C   tau( 203) = (   0.5000000   0.5000000   0.8333333  )
       204           C   tau( 204) = (   0.5000000   0.8333333   0.1666667  )
       205           C   tau( 205) = (   0.5000000   0.8333333   0.5000000  )
       206           C   tau( 206) = (   0.5000000   0.8333333   0.8333333  )
       207           C   tau( 207) = (   0.8333333   0.1666667   0.1666667  )
       208           C   tau( 208) = (   0.8333333   0.1666667   0.5000000  )
       209           C   tau( 209) = (   0.8333333   0.1666667   0.8333333  )
       210           C   tau( 210) = (   0.8333333   0.5000000   0.1666667  )
       211           C   tau( 211) = (   0.8333333   0.5000000   0.5000000  )
       212           C   tau( 212) = (   0.8333333   0.5000000   0.8333333  )
       213           C   tau( 213) = (   0.8333333   0.8333333   0.1666667  )
       214           C   tau( 214) = (   0.8333333   0.8333333   0.5000000  )
       215           C   tau( 215) = (   0.8333333   0.8333333   0.8333333  )

   Crystallographic axes

     site n.     atom                  positions (cryst. coord.)
         1           C   tau(   1) = (  0.0833353  0.2499980  0.4166687  )
         2           C   tau(   2) = (  0.0833353  0.2499980  0.7500020  )
         3           C   tau(   3) = (  0.0833353  0.5833313  0.0833353  )
         4           C   tau(   4) = (  0.0833353  0.5833313  0.4166687  )
         5           C   tau(   5) = (  0.0833353  0.5833313  0.7500020  )
         6           C   tau(   6) = (  0.0833353  0.9166647  0.0833353  )
         7           C   tau(   7) = (  0.0833353  0.9166647  0.4166687  )
         8           C   tau(   8) = (  0.0833353  0.9166647  0.7500020  )
         9           C   tau(   9) = (  0.4166687  0.2499980  0.0833353  )
        10           C   tau(  10) = (  0.4166687  0.2499980  0.4166687  )
        11           C   tau(  11) = (  0.4166687  0.2499980  0.7500020  )
        12           C   tau(  12) = (  0.4166687  0.5833313  0.0833353  )
        13           C   tau(  13) = (  0.4166687  0.5833313  0.4166687  )
        14           C   tau(  14) = (  0.4166687  0.5833313  0.7500020  )
        15           C   tau(  15) = (  0.4166687  0.9166647  0.0833353  )
        16           C   tau(  16) = (  0.4166687  0.9166647  0.4166687  )
        17           C   tau(  17) = (  0.4166687  0.9166647  0.7500020  )
        18           C   tau(  18) = (  0.7500020  0.2499980  0.0833353  )
        19           C   tau(  19) = (  0.7500020  0.2499980  0.4166687  )
        20           C   tau(  20) = (  0.7500020  0.2499980  0.7500020  )
        21           C   tau(  21) = (  0.7500020  0.5833313  0.0833353  )
        22           C   tau(  22) = (  0.7500020  0.5833313  0.4166687  )
        23           C   tau(  23) = (  0.7500020  0.5833313  0.7500020  )
        24           C   tau(  24) = (  0.7500020  0.9166647  0.0833353  )
        25           C   tau(  25) = (  0.7500020  0.9166647  0.4166687  )
        26           C   tau(  26) = (  0.7500020  0.9166647  0.7500020  )
        27           C   tau(  27) = (  0.0000000  0.0000000  0.1666667  )
        28           C   tau(  28) = (  0.0000000  0.0000000  0.5000000  )
        29           C   tau(  29) = (  0.0000000  0.0000000  0.8333333  )
        30           C   tau(  30) = (  0.0000000  0.3333333  0.1666667  )
        31           C   tau(  31) = (  0.0000000  0.3333333  0.5000000  )
        32           C   tau(  32) = (  0.0000000  0.3333333  0.8333333  )
        33           C   tau(  33) = (  0.0000000  0.6666667  0.1666667  )
        34           C   tau(  34) = (  0.0000000  0.6666667  0.5000000  )
        35           C   tau(  35) = (  0.0000000  0.6666667  0.8333333  )
        36           C   tau(  36) = (  0.3333333  0.0000000  0.1666667  )
        37           C   tau(  37) = (  0.3333333  0.0000000  0.5000000  )
        38           C   tau(  38) = (  0.3333333  0.0000000  0.8333333  )
        39           C   tau(  39) = (  0.3333333  0.3333333  0.1666667  )
        40           C   tau(  40) = (  0.3333333  0.3333333  0.5000000  )
        41           C   tau(  41) = (  0.3333333  0.3333333  0.8333333  )
        42           C   tau(  42) = (  0.3333333  0.6666667  0.1666667  )
        43           C   tau(  43) = (  0.3333333  0.6666667  0.5000000  )
        44           C   tau(  44) = (  0.3333333  0.6666667  0.8333333  )
        45           C   tau(  45) = (  0.6666667  0.0000000  0.1666667  )
        46           C   tau(  46) = (  0.6666667  0.0000000  0.5000000  )
        47           C   tau(  47) = (  0.6666667  0.0000000  0.8333333  )
        48           C   tau(  48) = (  0.6666667  0.3333333  0.1666667  )
        49           C   tau(  49) = (  0.6666667  0.3333333  0.5000000  )
        50           C   tau(  50) = (  0.6666667  0.3333333  0.8333333  )
        51           C   tau(  51) = (  0.6666667  0.6666667  0.1666667  )
        52           C   tau(  52) = (  0.6666667  0.6666667  0.5000000  )
        53           C   tau(  53) = (  0.6666667  0.6666667  0.8333333  )
        54           C   tau(  54) = (  0.0833353  0.0833353  0.2499980  )
        55           C   tau(  55) = (  0.0833353  0.0833353  0.5833313  )
        56           C   tau(  56) = (  0.0833353  0.0833353  0.9166647  )
        57           C   tau(  57) = (  0.0833353  0.4166687  0.2499980  )
        58           C   tau(  58) = (  0.0833353  0.4166687  0.5833313  )
        59           C   tau(  59) = (  0.0833353  0.4166687  0.9166647  )
        60           C   tau(  60) = (  0.0833353  0.7500020  0.2499980  )
        61           C   tau(  61) = (  0.0833353  0.7500020  0.5833313  )
        62           C   tau(  62) = (  0.0833353  0.7500020  0.9166647  )
        63           C   tau(  63) = (  0.4166687  0.0833353  0.2499980  )
        64           C   tau(  64) = (  0.4166687  0.0833353  0.5833313  )
        65           C   tau(  65) = (  0.4166687  0.0833353  0.9166647  )
        66           C   tau(  66) = (  0.4166687  0.4166687  0.2499980  )
        67           C   tau(  67) = (  0.4166687  0.4166687  0.5833313  )
        68           C   tau(  68) = (  0.4166687  0.4166687  0.9166647  )
        69           C   tau(  69) = (  0.4166687  0.7500020  0.2499980  )
        70           C   tau(  70) = (  0.4166687  0.7500020  0.5833313  )
        71           C   tau(  71) = (  0.4166687  0.7500020  0.9166647  )
        72           C   tau(  72) = (  0.7500020  0.0833353  0.2499980  )
        73           C   tau(  73) = (  0.7500020  0.0833353  0.5833313  )
        74           C   tau(  74) = (  0.7500020  0.0833353  0.9166647  )
        75           C   tau(  75) = (  0.7500020  0.4166687  0.2499980  )
        76           C   tau(  76) = (  0.7500020  0.4166687  0.5833313  )
        77           C   tau(  77) = (  0.7500020  0.4166687  0.9166647  )
        78           C   tau(  78) = (  0.7500020  0.7500020  0.2499980  )
        79           C   tau(  79) = (  0.7500020  0.7500020  0.5833313  )
        80           C   tau(  80) = (  0.7500020  0.7500020  0.9166647  )
        81           C   tau(  81) = (  0.0000000  0.1666667  0.0000000  )
        82           C   tau(  82) = (  0.0000000  0.1666667  0.3333333  )
        83           C   tau(  83) = (  0.0000000  0.1666667  0.6666667  )
        84           C   tau(  84) = (  0.0000000  0.5000000  0.0000000  )
        85           C   tau(  85) = (  0.0000000  0.5000000  0.3333333  )
        86           C   tau(  86) = (  0.0000000  0.5000000  0.6666667  )
        87           C   tau(  87) = (  0.0000000  0.8333333  0.0000000  )
        88           C   tau(  88) = (  0.0000000  0.8333333  0.3333333  )
        89           C   tau(  89) = (  0.0000000  0.8333333  0.6666667  )
        90           C   tau(  90) = (  0.3333333  0.1666667  0.0000000  )
        91           C   tau(  91) = (  0.3333333  0.1666667  0.3333333  )
        92           C   tau(  92) = (  0.3333333  0.1666667  0.6666667  )
        93           C   tau(  93) = (  0.3333333  0.5000000  0.0000000  )
        94           C   tau(  94) = (  0.3333333  0.5000000  0.3333333  )
        95           C   tau(  95) = (  0.3333333  0.5000000  0.6666667  )
        96           C   tau(  96) = (  0.3333333  0.8333333  0.0000000  )
        97           C   tau(  97) = (  0.3333333  0.8333333  0.3333333  )
        98           C   tau(  98) = (  0.3333333  0.8333333  0.6666667  )
        99           C   tau(  99) = (  0.6666667  0.1666667  0.0000000  )
       100           C   tau( 100) = (  0.6666667  0.1666667  0.3333333  )
       101           C   tau( 101) = (  0.6666667  0.1666667  0.6666667  )
       102           C   tau( 102) = (  0.6666667  0.5000000  0.0000000  )
       103           C   tau( 103) = (  0.6666667  0.5000000  0.3333333  )
       104           C   tau( 104) = (  0.6666667  0.5000000  0.6666667  )
       105           C   tau( 105) = (  0.6666667  0.8333333  0.0000000  )
       106           C   tau( 106) = (  0.6666667  0.8333333  0.3333333  )
       107           C   tau( 107) = (  0.6666667  0.8333333  0.6666667  )
       108           C   tau( 108) = (  0.2499980  0.2499980  0.2499980  )
       109           C   tau( 109) = (  0.2499980  0.2499980  0.5833313  )
       110           C   tau( 110) = (  0.2499980  0.2499980  0.9166647  )
       111           C   tau( 111) = (  0.2499980  0.5833313  0.2499980  )
       112           C   tau( 112) = (  0.2499980  0.5833313  0.5833313  )
       113           C   tau( 113) = (  0.2499980  0.5833313  0.9166647  )
       114           C   tau( 114) = (  0.2499980  0.9166647  0.2499980  )
       115           C   tau( 115) = (  0.2499980  0.9166647  0.5833313  )
       116           C   tau( 116) = (  0.2499980  0.9166647  0.9166647  )
       117           C   tau( 117) = (  0.5833313  0.2499980  0.2499980  )
       118           C   tau( 118) = (  0.5833313  0.2499980  0.5833313  )
       119           C   tau( 119) = (  0.5833313  0.2499980  0.9166647  )
       120           C   tau( 120) = (  0.5833313  0.5833313  0.2499980  )
       121           C   tau( 121) = (  0.5833313  0.5833313  0.5833313  )
       122           C   tau( 122) = (  0.5833313  0.5833313  0.9166647  )
       123           C   tau( 123) = (  0.5833313  0.9166647  0.2499980  )
       124           C   tau( 124) = (  0.5833313  0.9166647  0.5833313  )
       125           C   tau( 125) = (  0.5833313  0.9166647  0.9166647  )
       126           C   tau( 126) = (  0.9166647  0.2499980  0.2499980  )
       127           C   tau( 127) = (  0.9166647  0.2499980  0.5833313  )
       128           C   tau( 128) = (  0.9166647  0.2499980  0.9166647  )
       129           C   tau( 129) = (  0.9166647  0.5833313  0.2499980  )
       130           C   tau( 130) = (  0.9166647  0.5833313  0.5833313  )
       131           C   tau( 131) = (  0.9166647  0.5833313  0.9166647  )
       132           C   tau( 132) = (  0.9166647  0.9166647  0.2499980  )
       133           C   tau( 133) = (  0.9166647  0.9166647  0.5833313  )
       134           C   tau( 134) = (  0.9166647  0.9166647  0.9166647  )
       135           C   tau( 135) = (  0.1666667  0.0000000  0.0000000  )
       136           C   tau( 136) = (  0.1666667  0.0000000  0.3333333  )
       137           C   tau( 137) = (  0.1666667  0.0000000  0.6666667  )
       138           C   tau( 138) = (  0.1666667  0.3333333  0.0000000  )
       139           C   tau( 139) = (  0.1666667  0.3333333  0.3333333  )
       140           C   tau( 140) = (  0.1666667  0.3333333  0.6666667  )
       141           C   tau( 141) = (  0.1666667  0.6666667  0.0000000  )
       142           C   tau( 142) = (  0.1666667  0.6666667  0.3333333  )
       143           C   tau( 143) = (  0.1666667  0.6666667  0.6666667  )
       144           C   tau( 144) = (  0.5000000  0.0000000  0.0000000  )
       145           C   tau( 145) = (  0.5000000  0.0000000  0.3333333  )
       146           C   tau( 146) = (  0.5000000  0.0000000  0.6666667  )
       147           C   tau( 147) = (  0.5000000  0.3333333  0.0000000  )
       148           C   tau( 148) = (  0.5000000  0.3333333  0.3333333  )
       149           C   tau( 149) = (  0.5000000  0.3333333  0.6666667  )
       150           C   tau( 150) = (  0.5000000  0.6666667  0.0000000  )
       151           C   tau( 151) = (  0.5000000  0.6666667  0.3333333  )
       152           C   tau( 152) = (  0.5000000  0.6666667  0.6666667  )
       153           C   tau( 153) = (  0.8333333  0.0000000  0.0000000  )
       154           C   tau( 154) = (  0.8333333  0.0000000  0.3333333  )
       155           C   tau( 155) = (  0.8333333  0.0000000  0.6666667  )
       156           C   tau( 156) = (  0.8333333  0.3333333  0.0000000  )
       157           C   tau( 157) = (  0.8333333  0.3333333  0.3333333  )
       158           C   tau( 158) = (  0.8333333  0.3333333  0.6666667  )
       159           C   tau( 159) = (  0.8333333  0.6666667  0.0000000  )
       160           C   tau( 160) = (  0.8333333  0.6666667  0.3333333  )
       161           C   tau( 161) = (  0.8333333  0.6666667  0.6666667  )
       162           C   tau( 162) = (  0.2499980  0.0833353  0.0833353  )
       163           C   tau( 163) = (  0.2499980  0.0833353  0.4166687  )
       164           C   tau( 164) = (  0.2499980  0.0833353  0.7500020  )
       165           C   tau( 165) = (  0.2499980  0.4166687  0.0833353  )
       166           C   tau( 166) = (  0.2499980  0.4166687  0.4166687  )
       167           C   tau( 167) = (  0.2499980  0.4166687  0.7500020  )
       168           C   tau( 168) = (  0.2499980  0.7500020  0.0833353  )
       169           C   tau( 169) = (  0.2499980  0.7500020  0.4166687  )
       170           C   tau( 170) = (  0.2499980  0.7500020  0.7500020  )
       171           C   tau( 171) = (  0.5833313  0.0833353  0.0833353  )
       172           C   tau( 172) = (  0.5833313  0.0833353  0.4166687  )
       173           C   tau( 173) = (  0.5833313  0.0833353  0.7500020  )
       174           C   tau( 174) = (  0.5833313  0.4166687  0.0833353  )
       175           C   tau( 175) = (  0.5833313  0.4166687  0.4166687  )
       176           C   tau( 176) = (  0.5833313  0.4166687  0.7500020  )
       177           C   tau( 177) = (  0.5833313  0.7500020  0.0833353  )
       178           C   tau( 178) = (  0.5833313  0.7500020  0.4166687  )
       179           C   tau( 179) = (  0.5833313  0.7500020  0.7500020  )
       180           C   tau( 180) = (  0.9166647  0.0833353  0.0833353  )
       181           C   tau( 181) = (  0.9166647  0.0833353  0.4166687  )
       182           C   tau( 182) = (  0.9166647  0.0833353  0.7500020  )
       183           C   tau( 183) = (  0.9166647  0.4166687  0.0833353  )
       184           C   tau( 184) = (  0.9166647  0.4166687  0.4166687  )
       185           C   tau( 185) = (  0.9166647  0.4166687  0.7500020  )
       186           C   tau( 186) = (  0.9166647  0.7500020  0.0833353  )
       187           C   tau( 187) = (  0.9166647  0.7500020  0.4166687  )
       188           C   tau( 188) = (  0.9166647  0.7500020  0.7500020  )
       189           C   tau( 189) = (  0.1666667  0.1666667  0.1666667  )
       190           C   tau( 190) = (  0.1666667  0.1666667  0.5000000  )
       191           C   tau( 191) = (  0.1666667  0.1666667  0.8333333  )
       192           C   tau( 192) = (  0.1666667  0.5000000  0.1666667  )
       193           C   tau( 193) = (  0.1666667  0.5000000  0.5000000  )
       194           C   tau( 194) = (  0.1666667  0.5000000  0.8333333  )
       195           C   tau( 195) = (  0.1666667  0.8333333  0.1666667  )
       196           C   tau( 196) = (  0.1666667  0.8333333  0.5000000  )
       197           C   tau( 197) = (  0.1666667  0.8333333  0.8333333  )
       198           C   tau( 198) = (  0.5000000  0.1666667  0.1666667  )
       199           C   tau( 199) = (  0.5000000  0.1666667  0.5000000  )
       200           C   tau( 200) = (  0.5000000  0.1666667  0.8333333  )
       201           C   tau( 201) = (  0.5000000  0.5000000  0.1666667  )
       202           C   tau( 202) = (  0.5000000  0.5000000  0.5000000  )
       203           C   tau( 203) = (  0.5000000  0.5000000  0.8333333  )
       204           C   tau( 204) = (  0.5000000  0.8333333  0.1666667  )
       205           C   tau( 205) = (  0.5000000  0.8333333  0.5000000  )
       206           C   tau( 206) = (  0.5000000  0.8333333  0.8333333  )
       207           C   tau( 207) = (  0.8333333  0.1666667  0.1666667  )
       208           C   tau( 208) = (  0.8333333  0.1666667  0.5000000  )
       209           C   tau( 209) = (  0.8333333  0.1666667  0.8333333  )
       210           C   tau( 210) = (  0.8333333  0.5000000  0.1666667  )
       211           C   tau( 211) = (  0.8333333  0.5000000  0.5000000  )
       212           C   tau( 212) = (  0.8333333  0.5000000  0.8333333  )
       213           C   tau( 213) = (  0.8333333  0.8333333  0.1666667  )
       214           C   tau( 214) = (  0.8333333  0.8333333  0.5000000  )
       215           C   tau( 215) = (  0.8333333  0.8333333  0.8333333  )

     number of k points=     4  Gaussian smearing, width (Ry)=  0.0100
                       cart. coord. in units 2pi/alat
        k(    1) = (   0.0000000   0.0000000   0.0000000), wk =   0.2500000
        k(    2) = (   0.0000000   0.0000000  -0.5000000), wk =   0.7500000
        k(    3) = (   0.0000000  -0.5000000  -0.5000000), wk =   0.7500000
        k(    4) = (  -0.5000000  -0.5000000  -0.5000000), wk =   0.2500000

                       cryst. coord.
        k(    1) = (   0.0000000   0.0000000   0.0000000), wk =   0.2500000
        k(    2) = (   0.0000000   0.0000000  -0.5000000), wk =   0.7500000
        k(    3) = (   0.0000000  -0.5000000  -0.5000000), wk =   0.7500000
        k(    4) = (  -0.5000000  -0.5000000  -0.5000000), wk =   0.2500000

     Dense  grid:   918657 G-vectors     FFT dimensions: ( 135, 135, 135)

     Smooth grid:   656775 G-vectors     FFT dimensions: ( 108, 108, 108)

     Dynamical RAM for                 wfc:      10.10 MB

     Dynamical RAM for     wfc (w. buffer):      10.10 MB

     Dynamical RAM for           str. fact:       0.22 MB

     Dynamical RAM for           local pot:       0.00 MB

     Dynamical RAM for          nlocal pot:      33.67 MB

     Dynamical RAM for                qrad:       0.43 MB

     Dynamical RAM for          rho,v,vnew:       1.91 MB

     Dynamical RAM for               rhoin:       0.64 MB

     Dynamical RAM for            rho*nmix:       3.50 MB

     Dynamical RAM for           G-vectors:       0.90 MB

     Dynamical RAM for          h,s,v(r/c):     195.01 MB

     Dynamical RAM for          <psi|beta>:      13.54 MB

     Dynamical RAM for                 psi:      40.41 MB

     Dynamical RAM for                hpsi:      40.41 MB

     Dynamical RAM for                spsi:      40.41 MB

     Dynamical RAM for      wfcinit/wfcrot:      26.30 MB

     Dynamical RAM for           addusdens:      14.29 MB

     Dynamical RAM for          addusforce:      37.84 MB

     Dynamical RAM for         addusstress:       2.82 MB

     Estimated static dynamical RAM per process >      50.39 MB

     Estimated max dynamical RAM per process >     383.67 MB

     Estimated total dynamical RAM >      95.26 GB

     Atomic positions and unit cell read from directory:
     ./diamond.save/
     Atomic positions from file used, from input discarded
 

     Check: negative core charge=   -0.000014

     The initial density is read from file :
     ./diamond.save/charge-density



     %%%%%%%%%%%%%%%%%%%%%%%%%%%%%%%%%%%%%%%%%%%%%%%%%%%%%%%%%%%%%%%%%%%%%%%%
     %                                                                      %
     % You are using vdW-DF, which was implemented by the Thonhauser group. %
     % Please cite the following two papers that made this development      %
     % possible and the two reviews that describe the various versions:     %
     %                                                                      %
     %   T. Thonhauser et al., PRL 115, 136402 (2015).                      %
     %   T. Thonhauser et al., PRB 76, 125112 (2007).                       %
     %   K. Berland et al., Rep. Prog. Phys. 78, 066501 (2015).             %
     %   D.C. Langreth et al., J. Phys.: Condens. Matter 21, 084203 (2009). %
     %                                                                      %
     % If you are calculating stress with vdW-DF, please also cite:         %
     %                                                                      %
     %   R. Sabatini et al., J. Phys.: Condens. Matter 24, 424209 (2012).   %
     %                                                                      %
     %%%%%%%%%%%%%%%%%%%%%%%%%%%%%%%%%%%%%%%%%%%%%%%%%%%%%%%%%%%%%%%%%%%%%%%%

     %%%%%%%%%%%%%%%%%%%%%%%%%%%%%%%%%%%%%%%%%%%%%%%%%%%%%%%%%%%%%%%%%%%%%%%%
     %                                                                      %
     %  vdW-DF NEWS:                                                        %
     %                                                                      %
     %  * vdW-DF3 is now available. DOI: 10.1021/acs.jctc.0c00471           %
     %    use with input_dft = 'vdW-DF3-opt1' or 'vdW-DF3-opt2'             %
     %                                                                      %
     %  * Unscreened and range-separated vdW-DF hybrid functionals          %
     %    DOI: 10.1063/1.4986522 and 10.1088/1361-648X/ac2ad2               %
     %    use with input_dft = 'vdW-DF-cx0' (etc) and 'vdW-DF-ahcx'         %
     %                                                                      %
     %%%%%%%%%%%%%%%%%%%%%%%%%%%%%%%%%%%%%%%%%%%%%%%%%%%%%%%%%%%%%%%%%%%%%%%%


     Carrying out vdW-DF run using the following parameters:
     Nqs    =  20  Npoints =  1024  r_max =  100.000
     q_mesh =  0.00001000  0.04494208  0.09755937  0.15916263
               0.23128650  0.31572767  0.41458969  0.53033537
               0.66584808  0.82450364  1.01025438  1.22772762
               1.48234092  1.78043706  2.12944203  2.53805004
               3.01644009  3.57652955  4.23227104  5.00000000


     -----------------------------------------------
     Non-local corr. energy    =       7.36200371 Ry
     -----------------------------------------------

     Wavefunctions not found or not readable, recomputing them from scratch
     Starting wfcs are  860 randomized atomic wfcs
     Checking if some PAW data can be deallocated... 

     total cpu time spent up to now is        8.2 secs

     Self-consistent Calculation

     iteration #  1     ecut=    70.00 Ry     beta= 0.70
     Davidson diagonalization with overlap

---- Real-time Memory Report at c_bands before calling an iterative solver
           359 MiB given to the printing process from OS
             0 MiB allocation reported by mallinfo(arena+hblkhd)
       1966061 MiB available memory on the node where the printing process lives
------------------
     ethr =  1.00E-05,  avg # of iterations = 23.3

     Threshold (ethr) on eigenvalues was too large:
     Diagonalizing with lowered threshold

     Davidson diagonalization with overlap

---- Real-time Memory Report at c_bands before calling an iterative solver
           558 MiB given to the printing process from OS
             0 MiB allocation reported by mallinfo(arena+hblkhd)
       1963232 MiB available memory on the node where the printing process lives
------------------
     c_bands:  4 eigenvalues not converged
     ethr =  1.24E-10,  avg # of iterations = 45.0


     -----------------------------------------------
     Non-local corr. energy    =       7.36200288 Ry
     -----------------------------------------------


     total cpu time spent up to now is      292.2 secs

     End of self-consistent calculation

          k = 0.0000 0.0000 0.0000 ( 82057 PWs)   bands (ev):

    -8.5447  -7.5582  -7.5582  -7.5485  -7.5485  -7.5484  -7.4173  -6.5604
    -6.5604  -6.5601  -6.5589  -6.5589  -6.5579  -6.5579  -6.5579  -6.5191
    -6.5191  -6.5188  -6.2758  -5.5849  -5.5755  -5.5755  -5.5754  -5.5561
    -5.5561  -5.5560  -5.3637  -4.5683  -4.5683  -4.5643  -4.5643  -4.5641
    -4.4717  -3.6764  -3.6764  -3.6761  -3.6655  -3.6655  -3.6654  -3.6599
    -3.6599  -3.6592  -3.6571  -3.6571  -3.6570  -3.6504  -3.6504  -3.6504
    -3.6419  -3.6419  -3.6368  -3.6367  -3.6367  -3.5666  -3.5666  -3.5662
    -3.3294  -2.9037  -2.9034  -2.9034  -2.9020  -2.9013  -2.9013  -2.9003
    -2.9000  -2.9000  -2.8945  -2.8945  -2.8942  -2.8796  -2.8796  -2.8721
    -2.8721  -2.8720  -2.8610  -2.8610  -2.8610  -2.8040  -2.8040  -2.8039
    -1.9388  -1.2451  -1.2451  -1.2449  -1.2381  -1.2379  -1.2379  -1.2366
    -1.2366  -1.2026  -1.2026  -1.2026  -0.7382   0.0835   0.0835   0.0949
     0.0954   0.0954   0.1544   0.5737   0.5737   0.5737   0.5765   0.5765
     0.5768   0.5773   0.5780   0.5780   0.5933   0.5936   0.5936   0.5970
     0.5970   0.5982   0.5984   0.5984   0.6070   0.6070   0.6073   0.6514
     0.6514   0.6514   0.8143   0.8827   0.9075   0.9078   0.9078   0.9112
     0.9112   0.9137   0.9137   0.9139   0.9236   0.9236   0.9238   0.9272
     0.9273   0.9273   0.9363   0.9363   0.9366   0.9457   0.9457   1.2317
     1.2317   1.2318   1.6533   1.8882   1.8884   1.8884   1.9109   1.9109
     1.9110   1.9246   1.9246   2.0203   2.0203   2.0204   3.1020   3.5034
     3.5276   3.5276   3.5276   3.5649   3.5650   3.5650   3.5983   3.6255
     3.6255   3.6256   3.6279   3.6279   3.6280   3.6363   3.6363   3.7182
     3.7631   3.7631   3.7632   4.1104   4.1105   4.1105   4.1199   4.1199
     4.1204   4.1204   4.1204   4.1237   4.1237   4.1237   4.1276   4.1281
     4.1281   4.1282   4.1395   4.1395   4.1395   4.1432   4.1432   4.3467
     4.3469   4.3469   5.0718   5.1310   5.1311   5.1311   5.1505   5.1505
     5.1507   5.1507   5.1507   5.1536   5.1537   5.1537   5.1710   5.1712
     5.1712   5.1757   5.1757   5.1761   5.1914   5.2316   5.2316   5.3283
     5.3283   5.3287   5.3375   5.5928   5.6030   5.6030   5.6031   5.6076
     5.6076   5.6168   5.6171   5.6171   5.6222   5.6222   5.6225   5.6242
     5.6392   5.6393   5.6393   5.6396   5.6396   5.6432   5.6432   5.6525
     5.6528   5.6528   5.6846   5.6846   5.6850   6.0750   6.0750   6.0755
     6.6282   6.6283   6.6283   6.6702   6.6702   6.6703   6.7576   7.1390
     7.1390   7.1390   7.1438   7.1438   7.1540   7.1542   7.1542   7.2338
     7.2339   7.2339   7.5545   7.5787   7.5788   7.5788   7.5812   7.5814
     7.5814   7.6153   7.6153   7.6153   7.6503   7.6504   7.6504   7.8463
     7.8463   7.8488   7.8489   7.8489   7.8707   7.8729   7.8732   7.8732
     7.8783   7.8785   7.8785   7.9052   7.9052   7.9120   7.9120   7.9123
     7.9141   7.9142   7.9142   7.9511   7.9513   7.9513   8.0434   8.0438
     8.0438   8.0483   8.0864   8.0864   8.0892   8.0892   8.0893   8.0954
     8.0964   8.0985   8.0985   8.0985   8.0988   8.0988   8.1013   8.1013
     8.1015   8.1080   8.1080   8.1082   8.1122   8.1122   8.1122   8.1124
     8.1124   8.1125   8.1540   8.1541   8.1541   8.1661   8.1661   8.1801
     8.1801   8.1801   8.2069   8.2069   8.2071   8.2280   8.2407   8.2407
     8.2407   8.2993   8.2993   8.6691   8.6691   8.6693   8.8711   8.8711
     8.8844   8.8846   8.8846   8.9035   8.9074   8.9074   8.9074   8.9177
     8.9178   8.9178   8.9215   8.9215   8.9216   8.9349   8.9487   8.9487
     8.9951   8.9953   8.9953   9.8061   9.8061   9.8066  10.1418  10.2932
    10.2933  10.2933  10.3046  10.3047  10.3047  10.3155  10.3155  10.3155
    10.3960  10.3962  10.3962  10.4957  10.4957  10.5410  10.5411  10.5411
    10.5449  10.5449  10.5450  10.5450  10.5450  10.5637  10.5637  10.5637
    10.5730  10.5731  10.5731  10.5836  10.5836  11.2542  11.2542  11.2543
    11.4550  11.4551  11.4551  11.4645  11.4832  11.4834  11.4834  11.5129
    11.5129  11.6850  12.7011  12.7011  12.7012  14.5269  14.5269  14.5269
    17.1853  17.1853  17.2333  17.2333  17.2334  17.2591  17.8485  17.8485
    17.8497  17.8654  17.8700  17.8700  17.9105  17.9105  18.0169  18.0268
    18.0268  18.0270  18.6010  18.6010  18.6010  19.3900  19.3901  19.3901
    19.4163  19.4164  19.4164  19.4515  19.4515  19.4517  19.4735  19.4735
    19.5145  20.0797  20.0797  20.0802  20.0802  20.0806  20.0902  20.0907
    20.0907  20.1077  20.1077  20.1085  20.1348  20.1352  20.1353  20.1353
    20.1451  20.1451  20.1453  20.1998  20.1998  20.2005  20.2387  20.2387
    20.2601  20.5426  20.5426  20.5426  20.5455  20.5455  20.5470  20.5621
    20.5621  20.5622  20.5852  20.5852  20.5853  20.6503  20.6503  20.6600
    20.6602  20.6602  20.6632  20.6634  20.6634  20.6684  20.6684  20.6687
    20.6775  20.6949  20.6949  20.6969

     occupation numbers 
     1.0000   1.0000   1.0000   1.0000   1.0000   1.0000   1.0000   1.0000
     1.0000   1.0000   1.0000   1.0000   1.0000   1.0000   1.0000   1.0000
     1.0000   1.0000   1.0000   1.0000   1.0000   1.0000   1.0000   1.0000
     1.0000   1.0000   1.0000   1.0000   1.0000   1.0000   1.0000   1.0000
     1.0000   1.0000   1.0000   1.0000   1.0000   1.0000   1.0000   1.0000
     1.0000   1.0000   1.0000   1.0000   1.0000   1.0000   1.0000   1.0000
     1.0000   1.0000   1.0000   1.0000   1.0000   1.0000   1.0000   1.0000
     1.0000   1.0000   1.0000   1.0000   1.0000   1.0000   1.0000   1.0000
     1.0000   1.0000   1.0000   1.0000   1.0000   1.0000   1.0000   1.0000
     1.0000   1.0000   1.0000   1.0000   1.0000   1.0000   1.0000   1.0000
     1.0000   1.0000   1.0000   1.0000   1.0000   1.0000   1.0000   1.0000
     1.0000   1.0000   1.0000   1.0000   1.0000   1.0000   1.0000   1.0000
     1.0000   1.0000   1.0000   1.0000   1.0000   1.0000   1.0000   1.0000
     1.0000   1.0000   1.0000   1.0000   1.0000   1.0000   1.0000   1.0000
     1.0000   1.0000   1.0000   1.0000   1.0000   1.0000   1.0000   1.0000
     1.0000   1.0000   1.0000   1.0000   1.0000   1.0000   1.0000   1.0000
     1.0000   1.0000   1.0000   1.0000   1.0000   1.0000   1.0000   1.0000
     1.0000   1.0000   1.0000   1.0000   1.0000   1.0000   1.0000   1.0000
     1.0000   1.0000   1.0000   1.0000   1.0000   1.0000   1.0000   1.0000
     1.0000   1.0000   1.0000   1.0000   1.0000   1.0000   1.0000   1.0000
     1.0000   1.0000   1.0000   1.0000   1.0000   1.0000   1.0000   1.0000
     1.0000   1.0000   1.0000   1.0000   1.0000   1.0000   1.0000   1.0000
     1.0000   1.0000   1.0000   1.0000   1.0000   1.0000   1.0000   1.0000
     1.0000   1.0000   1.0000   1.0000   1.0000   1.0000   1.0000   1.0000
     1.0000   1.0000   1.0000   1.0000   1.0000   1.0000   1.0000   1.0000
     1.0000   1.0000   1.0000   1.0000   1.0000   1.0000   1.0000   1.0000
     1.0000   1.0000   1.0000   1.0000   1.0000   1.0000   1.0000   1.0000
     1.0000   1.0000   1.0000   1.0000   1.0000   1.0000   1.0000   1.0000
     1.0000   1.0000   1.0000   1.0000   1.0000   1.0000   1.0000   1.0000
     1.0000   1.0000   1.0000   1.0000   1.0000   1.0000   1.0000   1.0000
     1.0000   1.0000   1.0000   1.0000   1.0000   1.0000   1.0000   1.0000
     1.0000   1.0000   1.0000   1.0000   1.0000   1.0000   1.0000   1.0000
     1.0000   1.0000   1.0000   1.0000   1.0000   1.0000   1.0000   1.0000
     1.0000   1.0000   1.0000   1.0000   1.0000   1.0000   1.0000   1.0000
     1.0000   1.0000   1.0000   1.0000   1.0000   1.0000   1.0000   1.0000
     1.0000   1.0000   1.0000   1.0000   1.0000   1.0000   1.0000   1.0000
     1.0000   1.0000   1.0000   1.0000   1.0000   1.0000   1.0000   1.0000
     1.0000   1.0000   1.0000   1.0000   1.0000   1.0000   1.0000   1.0000
     1.0000   1.0000   1.0000   1.0000   1.0000   1.0000   1.0000   1.0000
     1.0000   1.0000   1.0000   1.0000   1.0000   1.0000   1.0000   1.0000
     1.0000   1.0000   1.0000   1.0000   1.0000   1.0000   1.0000   1.0000
     1.0000   1.0000   1.0000   1.0000   1.0000   1.0000   1.0000   1.0000
     1.0000   1.0000   1.0000   1.0000   1.0000   1.0000   1.0000   1.0000
     1.0000   1.0000   1.0000   1.0000   1.0000   1.0000   1.0000   1.0000
     1.0000   1.0000   1.0000   1.0000   1.0000   1.0000   1.0000   1.0000
     1.0000   1.0000   1.0000   1.0000   1.0000   1.0000   1.0000   1.0000
     1.0000   1.0000   1.0000   1.0000   1.0000   1.0000   1.0000   1.0000
     1.0000   1.0000   1.0000   1.0000   1.0000   1.0000   1.0000   1.0000
     1.0000   1.0000   1.0000   1.0000   1.0000   1.0000   1.0000   1.0000
     1.0000   1.0000   1.0000   1.0000   1.0000   1.0000   1.0000   1.0000
     1.0000   1.0000   1.0000   1.0000   1.0000   1.0000   1.0000   1.0000
     1.0000   1.0000   1.0000   1.0000   1.0000   1.0000   1.0000   1.0000
     1.0000   1.0000   1.0000   1.0000   1.0000   1.0000   1.0000   1.0000
     1.0000   1.0000   1.0000   1.0000   1.0000   0.1600   0.1600   0.1599
     0.0000   0.0000   0.0000   0.0000   0.0000   0.0000   0.0000   0.0000
     0.0000   0.0000   0.0000   0.0000   0.0000   0.0000   0.0000   0.0000
     0.0000   0.0000   0.0000   0.0000   0.0000   0.0000   0.0000   0.0000
     0.0000   0.0000   0.0000   0.0000   0.0000   0.0000   0.0000   0.0000
     0.0000   0.0000   0.0000   0.0000   0.0000   0.0000   0.0000   0.0000
     0.0000   0.0000   0.0000   0.0000   0.0000   0.0000   0.0000   0.0000
     0.0000   0.0000   0.0000   0.0000   0.0000   0.0000   0.0000   0.0000
     0.0000   0.0000   0.0000   0.0000   0.0000   0.0000   0.0000   0.0000
     0.0000   0.0000   0.0000   0.0000   0.0000   0.0000   0.0000   0.0000
     0.0000   0.0000   0.0000   0.0000   0.0000   0.0000   0.0000   0.0000
     0.0000   0.0000   0.0000   0.0000

          k = 0.0000 0.0000-0.5000 ( 81982 PWs)   bands (ev):

    -8.3209  -8.2594  -7.3177  -7.3176  -7.3173  -7.2978  -7.2965  -7.2761
    -7.2760  -7.1180  -6.3209  -6.3192  -6.3148  -6.3148  -6.3132  -6.2944
    -6.2745  -6.2743  -6.2691  -6.0670  -5.3335  -5.3298  -5.3297  -5.3270
    -5.3113  -5.3109  -5.2777  -5.1460  -4.4108  -4.4014  -4.4012  -4.3930
    -4.3884  -4.3881  -4.3720  -4.3636  -4.3525  -4.3524  -4.3464  -4.3389
    -4.3220  -4.2975  -4.2972  -4.0560  -3.4614  -3.4613  -3.4606  -3.4596
    -3.4569  -3.4532  -3.4488  -3.4487  -3.4386  -3.4364  -3.4362  -3.4335
    -3.4269  -3.3464  -3.3463  -3.0824  -2.5743  -2.5743  -2.5724  -2.5554
    -2.5552  -2.5455  -2.5453  -2.5286  -2.4512  -2.4510  -2.4480  -2.4433
    -2.4264  -2.4258  -2.4183  -2.4182  -2.3980  -2.0336  -1.6298  -1.6253
    -1.6253  -1.6252  -1.6171  -1.6170  -1.6084  -1.5911  -1.5620  -1.5612
    -1.5611  -1.5602  -1.5338  -1.5338  -1.4841  -0.8346  -0.0778  -0.0759
    -0.0758  -0.0755  -0.0672  -0.0670  -0.0658  -0.0171   0.0629   0.0664
     0.0667   0.0747   0.1243   0.1244   0.1360   0.1617   0.2182   0.2199
     0.2222   0.2227   0.2495   0.3177   0.3179   0.5631   0.8160   0.8272
     0.8278   0.8331   0.8661   0.8661   0.8686   0.8870   0.9478   0.9479
     0.9676   1.0186   1.1340   1.1359   1.1360   1.1488   1.1732   1.2364
     1.2365   1.7240   1.9395   1.9640   1.9641   1.9720   2.0276   2.0426
     2.0427   2.1612   2.5776   2.5837   2.5838   2.5847   2.6029   2.6030
     2.6038   2.6171   2.6415   2.6470   2.6502   2.6512   2.6512   2.6560
     2.6561   2.6562   2.6647   2.6654   2.6850   2.6851   2.7596   2.7752
     2.7753   2.7964   2.8886   2.8892   2.9231   2.9323   2.9325   2.9592
     3.0638   3.0639   3.1242   3.8103   3.8105   3.8105   3.8296   3.8353
     3.9010   3.9011   3.9159   4.2526   4.3831   4.3836   4.3889   4.3889
     4.4442   4.4565   4.4566   4.6487   4.7093   4.7131   4.7135   4.7154
     5.0558   5.0678   5.0679   5.0706   5.0917   5.1112   5.1113   5.1206
     5.1692   5.1693   5.1857   5.1865   5.1921   5.2625   5.2625   5.3217
     5.4032   5.4037   5.4122   5.4123   5.4309   5.4363   5.4364   5.4403
     5.4479   5.4539   5.4647   5.4648   5.5146   5.5148   5.5227   5.5350
     5.5616   5.5685   5.5696   5.5698   5.7044   5.7045   5.7238   6.0940
     6.1016   6.1017   6.1263   6.1341   6.1394   6.1396   6.1398   6.1522
     6.1782   6.1783   6.1873   6.2310   6.2963   6.2964   6.3272   6.5085
     6.6738   6.6920   6.6936   6.6936   6.7370   6.7371   6.7502   6.7581
     6.8408   6.8408   6.8665   6.8694   6.8695   6.8791   6.8817   6.8830
     6.8833   6.8948   6.9060   6.9103   6.9103   6.9124   6.9126   6.9274
     6.9291   6.9336   6.9401   6.9402   6.9433   6.9498   6.9552   6.9556
     6.9611   6.9650   6.9703   6.9704   6.9778   6.9876   7.0024   7.0025
     7.3539   7.3540   7.4044   7.7067   7.7148   7.7149   7.7609   7.7624
     7.7967   7.7969   7.9143   7.9646   8.1285   8.1657   8.1673   8.1677
     8.1735   8.1938   8.1941   8.2388   8.2485   8.2807   8.2966   8.3016
     8.3017   8.3018   8.3143   8.3146   8.3343   8.3368   8.3371   8.3388
     8.3450   8.3642   8.3643   8.3644   8.3690   8.3693   8.3814   8.3814
     8.4071   8.4077   8.4152   8.4155   8.4371   8.4452   8.4660   8.4662
     8.4749   8.5308   8.6639   8.6978   8.6978   8.7035   8.7726   8.7729
     8.8060   8.8062   8.8344   8.8344   8.8364   8.8591   8.9797   9.1093
     9.1094   9.1748   9.2061   9.2214   9.2216   9.2436   9.3360   9.3361
     9.3778   9.4575   9.5561   9.5601   9.5645   9.5735   9.5735   9.5818
     9.5840   9.5853   9.5853   9.5882   9.6225   9.6225   9.6589   9.6591
     9.6593   9.6830   9.6902   9.6953   9.6955   9.7342   9.7444   9.8235
     9.8387   9.8546   9.8549   9.8687   9.8690   9.8715  10.0763  10.0997
    10.0999  10.1580  10.1583  10.1630  10.1720  10.1890  10.8679  10.8681
    11.1618  11.1905  11.1965  11.2122  11.2123  11.2329  11.2506  11.2558
    11.4107  11.4107  11.4960  11.4961  11.4979  11.5189  11.8052  11.8461
    11.8461  11.9435  11.9435  12.0584  12.3135  14.4299  14.4834  14.4834
    17.2913  17.2986  17.4824  17.5377  18.1935  18.2140  18.2152  18.2153
    18.2418  18.2967  18.2984  18.2985  18.3340  18.4727  18.8058  18.8121
    18.8130  18.8409  18.8531  18.8538  18.8564  18.8629  18.8764  18.8914
    18.8916  18.9086  18.9311  19.0018  19.0252  19.0480  19.0666  19.0667
    19.5652  19.5654  19.5736  19.5810  19.5830  19.5831  19.5840  19.5855
    19.6011  19.6012  19.6261  19.6261  19.6632  19.6797  19.6798  19.6878
    19.7253  19.7559  19.7559  19.8111  20.0688  20.0872  20.0895  20.0900
    20.0956  20.1017  20.1021  20.1161  20.1348  20.1352  20.1524  20.1692
    20.2354  20.2689  20.2692  20.3040  20.6566  20.6660  20.6820  20.6821
    20.7233  20.7234  20.7287  20.7303  20.7304  20.7352  20.7378  20.7394
    20.7406  20.7476  20.7496  20.7498

     occupation numbers 
     1.0000   1.0000   1.0000   1.0000   1.0000   1.0000   1.0000   1.0000
     1.0000   1.0000   1.0000   1.0000   1.0000   1.0000   1.0000   1.0000
     1.0000   1.0000   1.0000   1.0000   1.0000   1.0000   1.0000   1.0000
     1.0000   1.0000   1.0000   1.0000   1.0000   1.0000   1.0000   1.0000
     1.0000   1.0000   1.0000   1.0000   1.0000   1.0000   1.0000   1.0000
     1.0000   1.0000   1.0000   1.0000   1.0000   1.0000   1.0000   1.0000
     1.0000   1.0000   1.0000   1.0000   1.0000   1.0000   1.0000   1.0000
     1.0000   1.0000   1.0000   1.0000   1.0000   1.0000   1.0000   1.0000
     1.0000   1.0000   1.0000   1.0000   1.0000   1.0000   1.0000   1.0000
     1.0000   1.0000   1.0000   1.0000   1.0000   1.0000   1.0000   1.0000
     1.0000   1.0000   1.0000   1.0000   1.0000   1.0000   1.0000   1.0000
     1.0000   1.0000   1.0000   1.0000   1.0000   1.0000   1.0000   1.0000
     1.0000   1.0000   1.0000   1.0000   1.0000   1.0000   1.0000   1.0000
     1.0000   1.0000   1.0000   1.0000   1.0000   1.0000   1.0000   1.0000
     1.0000   1.0000   1.0000   1.0000   1.0000   1.0000   1.0000   1.0000
     1.0000   1.0000   1.0000   1.0000   1.0000   1.0000   1.0000   1.0000
     1.0000   1.0000   1.0000   1.0000   1.0000   1.0000   1.0000   1.0000
     1.0000   1.0000   1.0000   1.0000   1.0000   1.0000   1.0000   1.0000
     1.0000   1.0000   1.0000   1.0000   1.0000   1.0000   1.0000   1.0000
     1.0000   1.0000   1.0000   1.0000   1.0000   1.0000   1.0000   1.0000
     1.0000   1.0000   1.0000   1.0000   1.0000   1.0000   1.0000   1.0000
     1.0000   1.0000   1.0000   1.0000   1.0000   1.0000   1.0000   1.0000
     1.0000   1.0000   1.0000   1.0000   1.0000   1.0000   1.0000   1.0000
     1.0000   1.0000   1.0000   1.0000   1.0000   1.0000   1.0000   1.0000
     1.0000   1.0000   1.0000   1.0000   1.0000   1.0000   1.0000   1.0000
     1.0000   1.0000   1.0000   1.0000   1.0000   1.0000   1.0000   1.0000
     1.0000   1.0000   1.0000   1.0000   1.0000   1.0000   1.0000   1.0000
     1.0000   1.0000   1.0000   1.0000   1.0000   1.0000   1.0000   1.0000
     1.0000   1.0000   1.0000   1.0000   1.0000   1.0000   1.0000   1.0000
     1.0000   1.0000   1.0000   1.0000   1.0000   1.0000   1.0000   1.0000
     1.0000   1.0000   1.0000   1.0000   1.0000   1.0000   1.0000   1.0000
     1.0000   1.0000   1.0000   1.0000   1.0000   1.0000   1.0000   1.0000
     1.0000   1.0000   1.0000   1.0000   1.0000   1.0000   1.0000   1.0000
     1.0000   1.0000   1.0000   1.0000   1.0000   1.0000   1.0000   1.0000
     1.0000   1.0000   1.0000   1.0000   1.0000   1.0000   1.0000   1.0000
     1.0000   1.0000   1.0000   1.0000   1.0000   1.0000   1.0000   1.0000
     1.0000   1.0000   1.0000   1.0000   1.0000   1.0000   1.0000   1.0000
     1.0000   1.0000   1.0000   1.0000   1.0000   1.0000   1.0000   1.0000
     1.0000   1.0000   1.0000   1.0000   1.0000   1.0000   1.0000   1.0000
     1.0000   1.0000   1.0000   1.0000   1.0000   1.0000   1.0000   1.0000
     1.0000   1.0000   1.0000   1.0000   1.0000   1.0000   1.0000   1.0000
     1.0000   1.0000   1.0000   1.0000   1.0000   1.0000   1.0000   1.0000
     1.0000   1.0000   1.0000   1.0000   1.0000   1.0000   1.0000   1.0000
     1.0000   1.0000   1.0000   1.0000   1.0000   1.0000   1.0000   1.0000
     1.0000   1.0000   1.0000   1.0000   1.0000   1.0000   1.0000   1.0000
     1.0000   1.0000   1.0000   1.0000   1.0000   1.0000   1.0000   1.0000
     1.0000   1.0000   1.0000   1.0000   1.0000   1.0000   1.0000   1.0000
     1.0000   1.0000   1.0000   1.0000   1.0000   1.0000   1.0000   1.0000
     1.0000   1.0000   1.0000   1.0000   1.0000   1.0000   1.0000   1.0000
     1.0000   1.0000   1.0000   1.0000   1.0000   1.0000   1.0000   1.0000
     1.0000   1.0000   1.0000   1.0000   1.0000   1.0000   1.0000   1.0000
     1.0000   1.0000   1.0000   1.0000   1.0000   1.0000   1.0000   1.0000
     1.0000   1.0000   1.0000   1.0000   1.0000   1.0000   1.0000   1.0000
     1.0000   1.0000   1.0000   1.0000   1.0000   0.5055   0.2937   0.2936
     0.0000   0.0000   0.0000   0.0000   0.0000   0.0000   0.0000   0.0000
     0.0000   0.0000   0.0000   0.0000   0.0000   0.0000   0.0000   0.0000
     0.0000   0.0000   0.0000   0.0000   0.0000   0.0000   0.0000   0.0000
     0.0000   0.0000   0.0000   0.0000   0.0000   0.0000   0.0000   0.0000
     0.0000   0.0000   0.0000   0.0000   0.0000   0.0000   0.0000   0.0000
     0.0000   0.0000   0.0000   0.0000   0.0000   0.0000   0.0000   0.0000
     0.0000   0.0000   0.0000   0.0000   0.0000   0.0000   0.0000   0.0000
     0.0000   0.0000   0.0000   0.0000   0.0000   0.0000   0.0000   0.0000
     0.0000   0.0000   0.0000   0.0000   0.0000   0.0000   0.0000   0.0000
     0.0000   0.0000   0.0000   0.0000   0.0000   0.0000   0.0000   0.0000
     0.0000   0.0000   0.0000   0.0000

          k = 0.0000-0.5000-0.5000 ( 82212 PWs)   bands (ev):

    -8.0748  -8.0594  -8.0594  -7.9491  -7.0676  -7.0671  -7.0576  -7.0575
    -7.0459  -7.0459  -7.0080  -6.8485  -6.0647  -6.0640  -6.0639  -6.0609
    -6.0427  -6.0220  -6.0217  -5.8794  -5.1016  -5.1007  -5.1007  -5.0992
    -5.0985  -5.0985  -5.0979  -5.0927  -5.0850  -5.0848  -5.0792  -5.0747
    -5.0403  -5.0269  -5.0266  -4.7395  -4.1515  -4.1284  -4.1276  -4.1253
    -4.1197  -4.1196  -4.1182  -4.1181  -4.1041  -4.1040  -4.0279  -3.8223
    -3.3656  -3.3641  -3.3517  -3.3514  -3.3404  -3.3227  -3.3225  -3.1455
    -2.4587  -2.4581  -2.4581  -2.4540  -2.4540  -2.4510  -2.4508  -2.4431
    -2.4399  -2.4397  -2.4358  -2.4353  -2.3995  -2.3992  -2.3353  -2.2982
    -2.2294  -2.2260  -2.2258  -2.2240  -2.1914  -2.1652  -2.1652  -1.9015
    -1.5306  -1.5304  -1.5292  -1.5230  -1.5213  -1.5183  -1.5168  -1.5165
    -1.5013  -1.5011  -1.5005  -1.4948  -1.4750  -1.4304  -1.4303  -1.0047
    -0.7862  -0.7825  -0.7825  -0.7787  -0.7689  -0.7352  -0.7351  -0.2216
     0.1389   0.1389   0.1702   0.2693   0.4965   0.5121   0.5129   0.5130
     0.5229   0.5305   0.5330   0.5331   0.5905   0.5906   0.6695   0.8883
     1.3321   1.3327   1.3353   1.3353   1.3445   1.3447   1.3447   1.3448
     1.3484   1.3485   1.3536   1.3705   1.4569   1.4644   1.4645   1.5320
     1.7770   1.7810   1.7839   1.7840   1.7858   1.7864   1.7871   1.7871
     1.7892   1.8068   1.8068   1.8275   1.8407   1.8898   1.9009   1.9012
     1.9202   1.9284   1.9284   1.9368   2.0596   2.0598   2.1334   2.6065
     2.8038   2.8040   2.8040   2.8128   2.8245   2.8983   2.8985   3.4871
     3.8342   3.8567   3.8568   3.8640   3.8645   3.8703   3.8704   3.8733
     3.8733   3.8798   3.8822   3.8822   3.9457   3.9511   3.9511   4.0283
     4.0359   4.0360   4.0360   4.0454   4.0651   4.0930   4.1020   4.1021
     4.1679   4.1679   4.1725   4.1882   4.2101   4.2162   4.2162   4.2274
     4.3406   4.3408   4.4224   4.7310   4.7456   4.7583   4.7584   4.8498
     4.9553   4.9727   4.9729   4.9730   4.9782   4.9784   4.9805   4.9864
     4.9983   4.9985   5.0085   5.0304   5.1016   5.1924   5.1924   5.2993
     5.4144   5.4148   5.4316   5.8423   6.1380   6.1495   6.1578   6.1609
     6.1612   6.1807   6.1807   6.1883   6.1899   6.1899   6.1936   6.1945
     6.2234   6.2378   6.2380   6.2536   6.2652   6.2719   6.2722   6.3092
     6.3155   6.3157   6.3596   6.3829   6.4024   6.4025   6.4089   6.4339
     6.4356   6.4913   6.4913   6.5449   6.5450   6.5597   6.5673   6.5722
     6.6801   6.6909   6.6910   6.7862   7.0113   7.0373   7.0376   7.0376
     7.0637   7.0807   7.0847   7.0858   7.0858   7.1227   7.1238   7.1238
     7.1345   7.1345   7.1448   7.1602   7.1728   7.1731   7.1843   7.2191
     7.2279   7.2324   7.2325   7.2374   7.2376   7.2411   7.2441   7.2486
     7.2552   7.2553   7.2599   7.2754   7.2764   7.2771   7.2906   7.2906
     7.3018   7.3018   7.3109   7.3585   7.6216   7.6218   7.7097   7.9352
     7.9397   7.9600   7.9601   7.9619   7.9633   8.0035   8.0593   8.0594
     8.0789   8.0813   8.0814   8.1083   8.1453   8.1453   8.1710   8.2102
     8.2669   8.2952   8.2953   8.2981   8.3096   8.3106   8.3140   8.3140
     8.3361   8.3392   8.3393   8.3555   8.4359   8.5170   8.5170   8.6002
     8.6010   8.6014   8.6038   8.6060   8.6139   8.6139   8.6174   8.6369
     8.6409   8.6410   8.6651   8.7220   8.9904   9.0229   9.0230   9.1177
     9.1780   9.1988   9.2124   9.2127   9.3476   9.3478   9.5412   9.5483
     9.5997   9.6374   9.6374   9.6438   9.7245   9.7246   9.7752   9.8345
     9.8739   9.8931   9.8935   9.9752   9.9854   9.9988   9.9992  10.0008
    10.0169  10.0430  10.0430  10.0533  10.0587  10.0731  10.0731  10.0748
    10.0748  10.0788  10.0841  10.0841  10.1033  10.1244  10.1245  10.1823
    10.3399  10.3400  10.4200  10.4385  10.4441  10.4441  10.4472  10.4493
    10.4782  10.5662  10.5779  10.5779  10.7857  11.0143  11.1029  11.1030
    11.1689  11.1766  11.1996  11.1996  11.2177  11.2351  11.2352  11.2443
    11.8714  12.2837  12.2839  12.5088  12.5210  14.3979  14.4977  14.4977
    18.2321  18.2322  18.2719  18.2813  18.2816  18.2993  18.3038  18.3150
    18.3287  18.3289  18.3382  18.3516  18.4453  18.4454  18.4686  18.4784
    18.5028  18.5385  18.5477  18.5478  18.5560  18.5726  18.5726  18.5975
    18.6508  18.6509  18.7718  18.8464  19.0374  19.0444  19.1528  19.1529
    19.4684  19.4688  19.4750  19.4751  19.5181  19.5181  19.5781  19.6697
    19.7030  19.7036  19.7052  19.7081  19.7167  19.7172  19.7265  19.7279
    19.7384  19.7417  19.7421  19.7893  19.8005  19.8011  19.8079  19.8142
    19.8507  19.8922  19.8978  19.8981  19.9081  19.9280  19.9286  20.0381
    20.0724  20.0729  20.0954  20.1047  20.1805  20.1805  20.1995  20.3668
    20.5477  20.5565  20.5566  20.5599  20.5622  20.5643  20.5644  20.5648
    20.5880  20.6240  20.6241  20.6712

     occupation numbers 
     1.0000   1.0000   1.0000   1.0000   1.0000   1.0000   1.0000   1.0000
     1.0000   1.0000   1.0000   1.0000   1.0000   1.0000   1.0000   1.0000
     1.0000   1.0000   1.0000   1.0000   1.0000   1.0000   1.0000   1.0000
     1.0000   1.0000   1.0000   1.0000   1.0000   1.0000   1.0000   1.0000
     1.0000   1.0000   1.0000   1.0000   1.0000   1.0000   1.0000   1.0000
     1.0000   1.0000   1.0000   1.0000   1.0000   1.0000   1.0000   1.0000
     1.0000   1.0000   1.0000   1.0000   1.0000   1.0000   1.0000   1.0000
     1.0000   1.0000   1.0000   1.0000   1.0000   1.0000   1.0000   1.0000
     1.0000   1.0000   1.0000   1.0000   1.0000   1.0000   1.0000   1.0000
     1.0000   1.0000   1.0000   1.0000   1.0000   1.0000   1.0000   1.0000
     1.0000   1.0000   1.0000   1.0000   1.0000   1.0000   1.0000   1.0000
     1.0000   1.0000   1.0000   1.0000   1.0000   1.0000   1.0000   1.0000
     1.0000   1.0000   1.0000   1.0000   1.0000   1.0000   1.0000   1.0000
     1.0000   1.0000   1.0000   1.0000   1.0000   1.0000   1.0000   1.0000
     1.0000   1.0000   1.0000   1.0000   1.0000   1.0000   1.0000   1.0000
     1.0000   1.0000   1.0000   1.0000   1.0000   1.0000   1.0000   1.0000
     1.0000   1.0000   1.0000   1.0000   1.0000   1.0000   1.0000   1.0000
     1.0000   1.0000   1.0000   1.0000   1.0000   1.0000   1.0000   1.0000
     1.0000   1.0000   1.0000   1.0000   1.0000   1.0000   1.0000   1.0000
     1.0000   1.0000   1.0000   1.0000   1.0000   1.0000   1.0000   1.0000
     1.0000   1.0000   1.0000   1.0000   1.0000   1.0000   1.0000   1.0000
     1.0000   1.0000   1.0000   1.0000   1.0000   1.0000   1.0000   1.0000
     1.0000   1.0000   1.0000   1.0000   1.0000   1.0000   1.0000   1.0000
     1.0000   1.0000   1.0000   1.0000   1.0000   1.0000   1.0000   1.0000
     1.0000   1.0000   1.0000   1.0000   1.0000   1.0000   1.0000   1.0000
     1.0000   1.0000   1.0000   1.0000   1.0000   1.0000   1.0000   1.0000
     1.0000   1.0000   1.0000   1.0000   1.0000   1.0000   1.0000   1.0000
     1.0000   1.0000   1.0000   1.0000   1.0000   1.0000   1.0000   1.0000
     1.0000   1.0000   1.0000   1.0000   1.0000   1.0000   1.0000   1.0000
     1.0000   1.0000   1.0000   1.0000   1.0000   1.0000   1.0000   1.0000
     1.0000   1.0000   1.0000   1.0000   1.0000   1.0000   1.0000   1.0000
     1.0000   1.0000   1.0000   1.0000   1.0000   1.0000   1.0000   1.0000
     1.0000   1.0000   1.0000   1.0000   1.0000   1.0000   1.0000   1.0000
     1.0000   1.0000   1.0000   1.0000   1.0000   1.0000   1.0000   1.0000
     1.0000   1.0000   1.0000   1.0000   1.0000   1.0000   1.0000   1.0000
     1.0000   1.0000   1.0000   1.0000   1.0000   1.0000   1.0000   1.0000
     1.0000   1.0000   1.0000   1.0000   1.0000   1.0000   1.0000   1.0000
     1.0000   1.0000   1.0000   1.0000   1.0000   1.0000   1.0000   1.0000
     1.0000   1.0000   1.0000   1.0000   1.0000   1.0000   1.0000   1.0000
     1.0000   1.0000   1.0000   1.0000   1.0000   1.0000   1.0000   1.0000
     1.0000   1.0000   1.0000   1.0000   1.0000   1.0000   1.0000   1.0000
     1.0000   1.0000   1.0000   1.0000   1.0000   1.0000   1.0000   1.0000
     1.0000   1.0000   1.0000   1.0000   1.0000   1.0000   1.0000   1.0000
     1.0000   1.0000   1.0000   1.0000   1.0000   1.0000   1.0000   1.0000
     1.0000   1.0000   1.0000   1.0000   1.0000   1.0000   1.0000   1.0000
     1.0000   1.0000   1.0000   1.0000   1.0000   1.0000   1.0000   1.0000
     1.0000   1.0000   1.0000   1.0000   1.0000   1.0000   1.0000   1.0000
     1.0000   1.0000   1.0000   1.0000   1.0000   1.0000   1.0000   1.0000
     1.0000   1.0000   1.0000   1.0000   1.0000   1.0000   1.0000   1.0000
     1.0000   1.0000   1.0000   1.0000   1.0000   1.0000   1.0000   1.0000
     1.0000   1.0000   1.0000   1.0000   1.0000   1.0000   1.0000   1.0000
     1.0000   1.0000   1.0000   1.0000   1.0000   1.0000   1.0000   1.0000
     1.0000   1.0000   1.0000   1.0000   1.0000   1.0000   1.0000   1.0000
     1.0000   1.0000   1.0000   1.0000   1.0000   0.6352   0.2446   0.2445
     0.0000   0.0000   0.0000   0.0000   0.0000   0.0000   0.0000   0.0000
     0.0000   0.0000   0.0000   0.0000   0.0000   0.0000   0.0000   0.0000
     0.0000   0.0000   0.0000   0.0000   0.0000   0.0000   0.0000   0.0000
     0.0000   0.0000   0.0000   0.0000   0.0000   0.0000   0.0000   0.0000
     0.0000   0.0000   0.0000   0.0000   0.0000   0.0000   0.0000   0.0000
     0.0000   0.0000   0.0000   0.0000   0.0000   0.0000   0.0000   0.0000
     0.0000   0.0000   0.0000   0.0000   0.0000   0.0000   0.0000   0.0000
     0.0000   0.0000   0.0000   0.0000   0.0000   0.0000   0.0000   0.0000
     0.0000   0.0000   0.0000   0.0000   0.0000   0.0000   0.0000   0.0000
     0.0000   0.0000   0.0000   0.0000   0.0000   0.0000   0.0000   0.0000
     0.0000   0.0000   0.0000   0.0000

          k =-0.5000-0.5000-0.5000 ( 82136 PWs)   bands (ev):

    -7.8248  -7.8210  -7.8210  -7.8208  -7.7915  -7.7915  -7.7914  -7.5731
    -5.8332  -5.8332  -5.8330  -5.8279  -5.8279  -5.8226  -5.8208  -5.8208
    -5.8206  -5.8206  -5.8204  -5.8204  -5.8092  -5.8088  -5.8088  -5.8040
    -5.8038  -5.8038  -5.7816  -5.7816  -5.7285  -5.7285  -5.7277  -5.2503
    -3.9430  -3.9426  -3.9426  -3.9405  -3.9405  -3.9403  -3.9402  -3.9377
    -3.9377  -3.9373  -3.9356  -3.9356  -3.9291  -3.9291  -3.9164  -3.9164
    -3.9162  -3.9043  -3.9043  -3.9042  -3.8373  -3.8373  -3.8369  -3.3765
    -2.8884  -2.8880  -2.8880  -2.7889  -2.0425  -2.0423  -2.0423  -2.0391
    -2.0389  -2.0389  -2.0371  -2.0371  -2.0357  -2.0256  -2.0254  -2.0254
    -2.0223  -2.0223  -2.0222  -2.0148  -2.0148  -2.0147  -1.9799  -1.9799
    -1.9144  -1.9144  -1.9142  -1.6103  -1.1477  -1.1477  -1.1473  -1.1377
    -1.1377  -1.1377  -1.1345  -1.1271  -1.1269  -1.1269  -1.1265  -1.1265
    -1.1204  -1.1204  -1.1203  -1.1178  -1.1178  -1.1038  -1.1035  -1.1035
    -1.0541  -1.0541  -1.0538  -0.4520  -0.3302  -0.3302  -0.3298   0.3267
     1.1786   1.1787   1.1787   1.1831   1.1831   1.1832   1.1929   1.1929
     1.1951   1.1988   1.1988   1.1988   1.2088   1.2090   1.2090   1.2187
     1.2187   1.2191   1.2282   1.2282   1.3931   1.3931   1.3934   1.7037
     2.3193   2.3566   2.3569   2.3569   2.3626   2.3626   2.3627   2.3644
     2.3644   2.3667   2.3667   2.3668   2.3677   2.3678   2.3678   2.3847
     2.3847   2.3924   2.3924   2.3925   2.4606   2.4728   2.4732   2.4732
     2.5697   2.5814   2.5814   2.5814   2.5854   2.5855   2.5855   2.5856
     2.5856   2.5890   2.5890   2.5890   2.5959   2.5962   2.5962   2.6029
     2.6030   2.6030   2.6108   2.6108   2.9648   2.9649   2.9649   4.4643
     5.0590   5.0591   5.0591   5.0757   5.0757   5.0757   5.0793   5.0793
     5.0847   5.0855   5.0855   5.0858   5.0909   5.0909   5.1057   5.1057
     5.1057   5.1129   5.1129   5.1130   5.1574   5.1574   5.1574   5.2416
     5.2838   5.2840   5.2840   5.2878   5.2879   5.2879   5.3011   5.3011
     5.3012   5.3035   5.3035   5.3074   5.3330   5.3330   5.3331   5.3371
     5.3371   5.3372   5.3791   5.3791   5.4564   5.4870   5.4870   5.4871
     5.6203   5.6305   5.6305   5.6306   5.6390   5.6390   5.6475   5.6478
     5.6478   5.6479   5.6479   5.6479   5.6515   5.6515   5.6607   5.6607
     5.6608   5.6835   5.6835   5.6835   6.0379   6.0381   6.0381   6.8537
     6.9461   6.9466   6.9466   6.9835   6.9835   7.0019   7.0019   7.0019
     7.0060   7.0060   7.0062   7.0203   7.0204   7.0204   7.0270   7.0308
[...]
                               -0.07 -16124.70     -0.07
                                0.07     -0.07 -16124.70

     hubbard stress (kbar)      0.00      0.00      0.00
                                0.00      0.00      0.00
                                0.00      0.00      0.00

     DFT-D   stress (kbar)      0.00      0.00      0.00
                                0.00      0.00      0.00
                                0.00      0.00      0.00

     XDM     stress (kbar)      0.00      0.00      0.00
                                0.00      0.00      0.00
                                0.00      0.00      0.00

     dft-nl  stress (kbar)     24.79      0.00     -0.00
                                0.00     24.79      0.00
                               -0.00      0.00     24.79

     TS-vdW  stress (kbar)      0.00      0.00      0.00
                                0.00      0.00      0.00
                                0.00      0.00      0.00

     MDB     stress (kbar)      0.00      0.00      0.00
                                0.00      0.00      0.00
                                0.00      0.00      0.00

     3D-RISM stress (kbar)      0.00      0.00      0.00
                                0.00      0.00      0.00
                                0.00      0.00      0.00


     BFGS Geometry Optimization
     Energy error            =      0.0E+00 Ry
     Gradient error          =      3.0E-04 Ry/Bohr

     bfgs converged in   1 scf cycles and   0 bfgs steps
     (criteria: energy <  1.0E-04 Ry, force <  1.0E-03 Ry/Bohr)

     End of BFGS Geometry Optimization

     Final energy             =   -4082.9500554109 Ry
Begin final coordinates

ATOMIC_POSITIONS (angstrom)
C             0.8931387764        2.6791643766        4.4626703262
C             0.8930818800        2.6792212730        8.0404767123
C             0.8930818800        6.2487358942        0.8930818800
C             0.8934856473        6.2533782984        4.4672846098
C             0.8927318480        6.2534075311        8.0358050754
C             0.8931387764        9.8265422803        0.8931387764
C             0.8926580490        9.8219080746        4.4673045319
C             0.8934856473        9.8219279967        8.0358343081
C             4.4626703262        2.6791643766        0.8931387764
C             4.4673045319        2.6796451040        4.4673045319
C             4.4672846098        2.6788175057        8.0358343081
C             4.4672846098        6.2533782984        0.8934856473
C             4.4644382514        6.2505389642        4.4644382514
C             4.4651828340        6.2512799826        8.0379326239
C             4.4673045319        9.8219080746        0.8926580490
C             4.4651685520        9.8240440545        4.4651685520
C             4.4644382514        9.8247743551        8.0386736423
C             8.0404767123        2.6792212730        0.8930818800
C             8.0358343081        2.6788175057        4.4672846098
C             8.0358050754        2.6795713051        8.0358050754
C             8.0358050754        6.2534075311        0.8927318480
C             8.0379326239        6.2512799826        4.4651828340
C             8.0386871699        6.2505254366        8.0386871699
C             8.0358343081        9.8219279967        0.8934856473
C             8.0386736423        9.8247743551        4.4644382514
C             8.0379326239        9.8240297725        8.0379326239
C             0.0040911465        0.0038913352        1.7821617103
C             0.0003438413        0.0009301786        5.3576815648
C            -0.0030826449       -0.0077638297        8.9231473422
C            -0.0692339452        3.6415370964        1.8556091972
C             0.0003422943        3.5719608569        5.3584336547
C             0.0041228820        3.5681802692        8.9346724975
C             0.0003242053        7.1445545605        1.7858342461
C            -0.0002541354        7.1458204178        5.3596381703
C             0.0003728544        7.1438110524        8.9316586912
C             3.5800492974       -0.0077461462        1.7891695540
C             3.5728330040       -0.0005298528        5.3600296370
C             3.5701904895        0.0021126617        8.9328152952
C             3.5684118160        3.5682120047        1.7821617103
C             3.5713729726        3.5719593099        5.3576815648
C             3.5800669809        3.5753857961        8.9231473422
C             3.5713636889        7.1438050788        1.7857693954
C             3.5721951202        7.1440418202        5.3578720911
C             3.5728653163        7.1462319808        8.9302103717
C             7.1454075258        0.0009394623        1.7857693954
C             7.1451707844        0.0001080310        5.3578720911
C             7.1429806238       -0.0005621651        8.9302103717
C             7.1446580441        3.5719789459        1.7858342461
C             7.1433921868        3.5725572866        5.3596381703
C             7.1454015522        3.5719302969        8.9316586912
C             7.1433758810        7.1458367236        1.7863773722
C             7.1445431858        7.1446694189        5.3584981528
C             7.1451798734        7.1440327312        8.9308513776
C             0.8965186161        0.9036019934        2.6687011596
C             0.8930985282        0.8937368223        6.2515050402
C             0.8896544557        0.9036883028        9.8344998872
C             0.8896544557        4.4547127193        2.6686148502
C             0.8931131033        4.4647963590        6.2514990619
C             0.8967774873        4.4548434343        9.8343691722
C             0.8930985282        8.0377075663        2.6785663307
C             0.8930984827        8.0377253493        6.2514872572
C             0.8931131033        8.0377135446        9.8244162475
C             4.4665608885        0.8927191876        2.6795839654
C             4.4650991974        0.8931599192        6.2522954818
C             4.4618176625        0.8956066288        9.8262353963
C             4.4618176625        4.4629772102        2.6766965242
C             4.4651021028        4.4653968024        6.2506771091
C             4.4666083486        4.4657945968        9.8234180097
C             4.4650991974        8.0369171247        2.6791432338
C             4.4651939784        8.0377276330        6.2514849735
C             4.4651021028        8.0385354974        9.8238158041
C             8.0413203870        0.8955794369        2.6767237161
C             8.0380083543        0.8931438455        6.2506758915
C             8.0365555398        0.8926727852        9.8233729741
C             8.0365555398        4.4658396324        2.6796303678
C             8.0380106861        4.4653935886        6.2523086685
C             8.0413695363        4.4629212891        9.8262913174
C             8.0380083543        8.0385367150        2.6791593075
C             8.0379136077        8.0377246352        6.2514879713
C             8.0380106861        8.0369039380        9.8238190180
C            -0.0692339452        1.7166939558       -0.0692339452
C             0.0040911465        1.7901414427        3.5684118160
C             0.0003242053        1.7864689069        7.1446580441
C             0.0041228820        5.3545401091        0.0041228820
C            -0.0030826449        5.3660652643        3.5800669809
C             0.0003728544        5.3575539153        7.1454015522
C             0.0003422943        8.9307789518        0.0003422943
C             0.0003438413        8.9315310417        3.5713729726
C            -0.0002541354        8.9295744362        7.1433921868
C             3.5684118160        1.7901414427        0.0040911465
C             3.5800492974        1.7831335990        3.5800492974
C             3.5713636889        1.7865337576        7.1454075258
C             3.5800669809        5.3660652643       -0.0030826449
C             3.5701904895        5.3563973113        3.5701904895
C             3.5728653163        5.3590022348        7.1429806238
C             3.5713729726        8.9315310417        0.0003438413
C             3.5728330040        8.9291829696        3.5728330040
C             3.5721951202        8.9313405154        7.1451707844
C             7.1446580441        1.7864689069        0.0003242053
C             7.1454075258        1.7865337576        3.5713636889
C             7.1433758810        1.7859257808        7.1433758810
C             7.1454015522        5.3575539153        0.0003728544
C             7.1429806238        5.3590022348        3.5728653163
C             7.1451798734        5.3583612289        7.1451798734
C             7.1433921868        8.9295744362       -0.0002541354
C             7.1451707844        8.9313405154        3.5721951202
C             7.1445431858        8.9307144537        7.1445431858
C             2.6687011596        2.6757845369        2.6687011596
C             2.6785663307        2.6792046248        6.2515050402
C             2.6686148502        2.6826486973        9.8344998872
C             2.6767237161        6.2478922195        2.6767237161
C             2.6791593075        6.2512042522        6.2506758915
C             2.6796303678        6.2526570667        9.8233729741
C             2.6795839654        9.8226517180        2.6795839654
C             2.6791432338        9.8241134091        6.2522954818
C             2.6766965242        9.8273949440        9.8262353963
C             6.2515050402        2.6792046248        2.6785663307
C             6.2514872572        2.6792046703        6.2514872572
C             6.2514990619        2.6791900497        9.8244162475
C             6.2506758915        6.2512042522        2.6791593075
C             6.2514879713        6.2512989988        6.2514879713
C             6.2523086685        6.2512019204        9.8238190180
C             6.2522954818        9.8241134091        2.6791432338
C             6.2514849735        9.8240186281        6.2514849735
C             6.2506771091        9.8241105037        9.8238158041
C             9.8344998872        2.6826486973        2.6686148502
C             9.8244162475        2.6791900497        6.2514990619
C             9.8343691722        2.6755256657        9.8343691722
C             9.8233729741        6.2526570667        2.6796303678
C             9.8238190180        6.2512019204        6.2523086685
C             9.8262913174        6.2478430702        9.8262913174
C             9.8262353963        9.8273949440        2.6766965242
C             9.8238158041        9.8241105037        6.2506771091
C             9.8234180097        9.8226042579        9.8234180097
C             1.7821617103        0.0038913352        0.0040911465
C             1.7891695540       -0.0077461462        3.5800492974
C             1.7857693954        0.0009394623        7.1454075258
C             1.8556091972        3.6415370964       -0.0692339452
C             1.7821617103        3.5682120047        3.5684118160
C             1.7858342461        3.5719789459        7.1446580441
C             1.7858342461        7.1445545605        0.0003242053
C             1.7857693954        7.1438050788        3.5713636889
C             1.7863773722        7.1458367236        7.1433758810
C             5.3576815648        0.0009301786        0.0003438413
C             5.3600296370       -0.0005298528        3.5728330040
C             5.3578720911        0.0001080310        7.1451707844
C             5.3584336547        3.5719608569        0.0003422943
C             5.3576815648        3.5719593099        3.5713729726
C             5.3596381703        3.5725572866        7.1433921868
C             5.3596381703        7.1458204178       -0.0002541354
C             5.3578720911        7.1440418202        3.5721951202
C             5.3584981528        7.1446694189        7.1445431858
C             8.9231473422       -0.0077638297       -0.0030826449
C             8.9328152952        0.0021126617        3.5701904895
C             8.9302103717       -0.0005621651        7.1429806238
C             8.9346724975        3.5681802692        0.0041228820
C             8.9231473422        3.5753857961        3.5800669809
C             8.9316586912        3.5719302969        7.1454015522
C             8.9316586912        7.1438110524        0.0003728544
C             8.9302103717        7.1462319808        3.5728653163
C             8.9308513776        7.1440327312        7.1451798734
C             2.6687011596        0.9036019934        0.8965186161
C             2.6795839654        0.8927191876        4.4665608885
C             2.6767237161        0.8955794369        8.0413203870
C             2.6686148502        4.4547127193        0.8896544557
C             2.6766965242        4.4629772102        4.4618176625
C             2.6796303678        4.4658396324        8.0365555398
C             2.6785663307        8.0377075663        0.8930985282
C             2.6791432338        8.0369171247        4.4650991974
C             2.6791593075        8.0385367150        8.0380083543
C             6.2515050402        0.8937368223        0.8930985282
C             6.2522954818        0.8931599192        4.4650991974
C             6.2506758915        0.8931438455        8.0380083543
C             6.2514990619        4.4647963590        0.8931131033
C             6.2506771091        4.4653968024        4.4651021028
C             6.2523086685        4.4653935886        8.0380106861
C             6.2514872572        8.0377253493        0.8930984827
C             6.2514849735        8.0377276330        4.4651939784
C             6.2514879713        8.0377246352        8.0379136077
C             9.8344998872        0.9036883028        0.8896544557
C             9.8262353963        0.8956066288        4.4618176625
C             9.8233729741        0.8926727852        8.0365555398
C             9.8343691722        4.4548434343        0.8967774873
C             9.8234180097        4.4657945968        4.4666083486
C             9.8262913174        4.4629212891        8.0413695363
C             9.8244162475        8.0377135446        0.8931131033
C             9.8238158041        8.0385354974        4.4651021028
C             9.8238190180        8.0369039380        8.0380106861
C             1.8552204089        1.7170827441        1.8552204089
C             1.7858096587        1.7864934943        5.3584149746
C             1.7819854032        1.7903177498        8.9348084073
C             1.7819854032        5.3544041992        1.7819854032
C             1.7857583835        5.3575348601        5.3576453265
C             1.7893307300        5.3663335600        8.9228790465
C             1.7858096587        8.9307976319        1.7858096587
C             1.7863722242        8.9295377604        5.3596748461
C             1.7857583835        8.9315672800        8.9316777464
C             5.3584149746        1.7864934943        1.7858096587
C             5.3596748461        1.7859309288        5.3596748461
C             5.3576453265        1.7865447695        8.9316777464
C             5.3576453265        5.3575348601        1.7857583835
C             5.3578612725        5.3583646349        5.3578612725
C             5.3600920036        5.3590182763        8.9301943302
C             5.3596748461        8.9295377604        1.7863722242
C             5.3584924407        8.9307201658        5.3584924407
C             5.3578612725        8.9313513340        8.9308479716
C             8.9348084073        1.7903177498        1.7819854032
C             8.9316777464        1.7865447695        5.3576453265
C             8.9228790465        1.7829724230        8.9228790465
C             8.9228790465        5.3663335600        1.7893307300
C             8.9301943302        5.3590182763        5.3600920036
C             8.9329153860        5.3562972205        8.9329153860
C             8.9316777464        8.9315672800        1.7857583835
C             8.9308479716        8.9313513340        5.3578612725
C             8.9301943302        8.9291206029        8.9301943302
End final coordinates



     Writing all to output data dir ./diamond.save/
 
     init_run     :      6.10s CPU      6.49s WALL (       1 calls)
     electrons    :    280.75s CPU    284.18s WALL (       1 calls)
     forces       :      2.34s CPU      2.46s WALL (       1 calls)
     stress       :     29.23s CPU     29.51s WALL (       1 calls)

     Called by init_run:
     wfcinit      :      4.55s CPU      4.75s WALL (       1 calls)
     wfcinit:atom :      0.02s CPU      0.03s WALL (       1 calls)
     wfcinit:wfcr :      4.25s CPU      4.37s WALL (       1 calls)
     potinit      :      0.53s CPU      0.63s WALL (       1 calls)
     hinit0       :      0.49s CPU      0.53s WALL (       1 calls)

     Called by electrons:
     c_bands      :    278.57s CPU    281.79s WALL (       2 calls)
     sum_band     :      1.60s CPU      1.63s WALL (       2 calls)
     v_of_rho     :      0.71s CPU      0.77s WALL (       2 calls)
     v_h          :      0.01s CPU      0.01s WALL (       2 calls)
     v_xc         :      1.27s CPU      1.35s WALL (       4 calls)
     newd         :      0.07s CPU      0.08s WALL (       2 calls)
     PAW_pot      :      0.13s CPU      0.13s WALL (       2 calls)
     mix_rho      :      0.00s CPU      0.00s WALL (       2 calls)
     vdW_kernel   :      0.16s CPU      0.16s WALL (       1 calls)

     Called by c_bands:
     init_us_2    :      0.11s CPU      0.14s WALL (       5 calls)
     init_us_2:cp :      0.11s CPU      0.14s WALL (       5 calls)
     cegterg      :    126.32s CPU    127.68s WALL (       2 calls)

     Called by sum_band:
     sum_band:wei :      0.01s CPU      0.01s WALL (       2 calls)
     sum_band:loo :      1.40s CPU      1.41s WALL (       2 calls)
     sum_band:buf :      0.00s CPU      0.00s WALL (       2 calls)
     sum_band:ini :      0.07s CPU      0.07s WALL (       2 calls)
     sum_band:cal :      0.76s CPU      0.77s WALL (       2 calls)
     sum_band:bec :      0.02s CPU      0.02s WALL (       2 calls)
     addusdens    :      0.08s CPU      0.08s WALL (       2 calls)
     addusd:skk   :      0.02s CPU      0.02s WALL (       2 calls)
     addusd:dgemm :      0.03s CPU      0.03s WALL (       2 calls)
     addusd:qvan2 :      0.00s CPU      0.00s WALL (       2 calls)

     Called by *egterg:
     cdiaghg      :     85.96s CPU     86.50s WALL (      39 calls)
     cegterg:over :      8.42s CPU      8.62s WALL (      38 calls)
     cegterg:upda :      4.83s CPU      4.91s WALL (      38 calls)
     cegterg:last :      3.97s CPU      4.01s WALL (       5 calls)
     h_psi        :     19.20s CPU     19.58s WALL (      41 calls)
     s_psi        :      5.37s CPU      5.43s WALL (      41 calls)
     g_psi        :      0.02s CPU      0.02s WALL (      38 calls)

     Called by h_psi:
     h_psi:calbec :      6.01s CPU      6.09s WALL (      41 calls)
     vloc_psi     :      7.66s CPU      7.80s WALL (      41 calls)
     add_vuspsi   :      5.39s CPU      5.48s WALL (      41 calls)

     General routines
     calbec       :      8.69s CPU      8.79s WALL (      48 calls)
     fft          :      0.66s CPU      0.68s WALL (     294 calls)
     ffts         :      0.01s CPU      0.01s WALL (       4 calls)
     fftw         :      7.75s CPU      7.89s WALL (   16356 calls)
     interpolate  :      0.01s CPU      0.01s WALL (       2 calls)
 
     Parallel routines

     PAW routines
     PAW_pot      :      0.13s CPU      0.13s WALL (       2 calls)
     PAW_symme    :      0.01s CPU      0.01s WALL (       3 calls)
 
     PWSCF        :   5m19.54s CPU   5m27.11s WALL

 
   This run was terminated on:  11:10: 3  19Feb2024            

=------------------------------------------------------------------------------=
   JOB DONE.
=------------------------------------------------------------------------------=
