
     Program PWSCF v.7.2 starts on 19Feb2024 at 16:22:28 

     This program is part of the open-source Quantum ESPRESSO suite
     for quantum simulation of materials; please cite
         "P. Giannozzi et al., J. Phys.:Condens. Matter 21 395502 (2009);
         "P. Giannozzi et al., J. Phys.:Condens. Matter 29 465901 (2017);
         "P. Giannozzi et al., J. Chem. Phys. 152 154105 (2020);
          URL http://www.quantum-espresso.org", 
     in publications or presentations arising from this work. More details at
     http://www.quantum-espresso.org/quote

     Parallel version (MPI & OpenMP), running on     128 processor cores
     Number of MPI processes:               128
     Threads/MPI process:                     1

     MPI processes distributed on     1 nodes
     978974 MiB available memory on the printing compute node when the environment starts
 
     Reading input from espresso.pwi
Warning: card &CELL ignored
Warning: card    CELL_DYNAMICS    = 'BFGS' ignored
Warning: card / ignored

     Current dimensions of program PWSCF are:
     Max number of different atomic species (ntypx) = 10
     Max number of k-points (npk) =  40000
     Max angular momentum in pseudopotentials (lmaxx) =  4
     file C.pbe-n-kjpaw_psl.1.0.0.UPF: wavefunction(s)  2S 2P renormalized

     **************************************************************************
     Initializing libbeef V0.1.2 with the BEEF-vdW functional.
     Citation: Wellendorff et al., PRB 85, 235149 (2012).
     **************************************************************************


     IMPORTANT: XC functional enforced from input :
     Exchange-correlation= BEEF-VDW
                           (   1   4  43  14   2   0   0)
     Any further DFT definition will be discarded
     Please, verify this is what you really want

 
     K-points division:     npool     =       4
     R & G space division:  proc/nbgrp/npool/nimage =      32
     Subspace diagonalization in iterative solution of the eigenvalue problem:
     a serial algorithm will be used

 
     Parallelization info
     --------------------
     sticks:   dense  smooth     PW     G-vecs:    dense   smooth      PW
     Min         158     126     34                 8504     6078     876
     Max         160     127     35                 8506     6081     881
     Sum        5073    4049   1109               272153   194543   28113
 
     Using Slab Decomposition
 


     bravais-lattice index     =            1
     lattice parameter (alat)  =      13.5013  a.u.
     unit-cell volume          =    2461.1121 (a.u.)^3
     number of atoms/cell      =           63
     number of atomic types    =            1
     number of electrons       =       252.00
     number of Kohn-Sham states=          151
     kinetic-energy cutoff     =      70.0000  Ry
     charge density cutoff     =     350.0000  Ry
     scf convergence threshold =      1.0E-07
     mixing beta               =       0.7000
     number of iterations used =            8  plain     mixing
     Exchange-correlation= BEEF-VDW
                           (   1   4  43  14   2   0   0)

     celldm(1)=  13.501348  celldm(2)=   0.000000  celldm(3)=   0.000000
     celldm(4)=   0.000000  celldm(5)=   0.000000  celldm(6)=   0.000000

     crystal axes: (cart. coord. in units of alat)
               a(1) = (   1.000000   0.000000   0.000000 )  
               a(2) = (   0.000000   1.000000   0.000000 )  
               a(3) = (   0.000000   0.000000   1.000000 )  

     reciprocal axes: (cart. coord. in units 2 pi/alat)
               b(1) = (  1.000000  0.000000  0.000000 )  
               b(2) = (  0.000000  1.000000  0.000000 )  
               b(3) = (  0.000000  0.000000  1.000000 )  


     PseudoPot. # 1 for C  read from file:
     /trace/group/acmegroup/atimmins/packages/espresso/pseudo/psl_1.0.0/pslibrary.1.0.0/pbe/PSEUDOPOTENTIALS/C.pbe-n-kjpaw_psl.1.0.0.UPF
     MD5 check sum: 5459cf7f2c8c37df2f7cde8914797f4d
     Pseudo is Projector augmented-wave + core cor, Zval =  4.0
     Generated using 'atomic' code by A. Dal Corso  v.7.1
     Shape of augmentation charge: PSQ
     Using radial grid of 1073 points,  4 beta functions with: 
                l(1) =   0
                l(2) =   0
                l(3) =   1
                l(4) =   1
     Q(r) pseudized with 0 coefficients 


     atomic species   valence    mass     pseudopotential
        C              4.00    12.01100     C ( 1.00)

      6 Sym. Ops. (no inversion) found ( 4 have fractional translation)


                                    s                        frac. trans.

      isym =  1     identity                                     

 cryst.   s( 1) = (     1          0          0      )
                  (     0          1          0      )
                  (     0          0          1      )

 cart.    s( 1) = (  1.0000000  0.0000000  0.0000000 )
                  (  0.0000000  1.0000000  0.0000000 )
                  (  0.0000000  0.0000000  1.0000000 )


      isym =  2     120 deg rotation - cart. axis [1,-1,1]       

 cryst.   s( 2) = (     0          0          1      )    f =( -0.5000000 )
                  (    -1          0          0      )       ( -0.5000000 )
                  (     0         -1          0      )       (  0.0000000 )

 cart.    s( 2) = (  0.0000000 -1.0000000  0.0000000 )    f =( -0.5000000 )
                  (  0.0000000  0.0000000 -1.0000000 )       ( -0.5000000 )
                  (  1.0000000  0.0000000  0.0000000 )       (  0.0000000 )


      isym =  3     120 deg rotation - cart. axis [-1,1,-1]      

 cryst.   s( 3) = (     0         -1          0      )    f =(  0.0000000 )
                  (     0          0         -1      )       ( -0.5000000 )
                  (     1          0          0      )       ( -0.5000000 )

 cart.    s( 3) = (  0.0000000  0.0000000  1.0000000 )    f =(  0.0000000 )
                  ( -1.0000000  0.0000000  0.0000000 )       ( -0.5000000 )
                  (  0.0000000 -1.0000000  0.0000000 )       ( -0.5000000 )


      isym =  4     inv. 180 deg rotation - cart. axis [1,1,0]   

 cryst.   s( 4) = (     0         -1          0      )    f =( -0.5000000 )
                  (    -1          0          0      )       ( -0.5000000 )
                  (     0          0          1      )       (  0.0000000 )

 cart.    s( 4) = (  0.0000000 -1.0000000  0.0000000 )    f =( -0.5000000 )
                  ( -1.0000000  0.0000000  0.0000000 )       ( -0.5000000 )
                  (  0.0000000  0.0000000  1.0000000 )       (  0.0000000 )


      isym =  5     inv. 180 deg rotation - cart. axis [-1,0,1]  

 cryst.   s( 5) = (     0          0          1      )
                  (     0          1          0      )
                  (     1          0          0      )

 cart.    s( 5) = (  0.0000000  0.0000000  1.0000000 )
                  (  0.0000000  1.0000000  0.0000000 )
                  (  1.0000000  0.0000000  0.0000000 )


      isym =  6     inv. 180 deg rotation - cart. axis [0,1,1]   

 cryst.   s( 6) = (     1          0          0      )    f =(  0.0000000 )
                  (     0          0         -1      )       ( -0.5000000 )
                  (     0         -1          0      )       ( -0.5000000 )

 cart.    s( 6) = (  1.0000000  0.0000000  0.0000000 )    f =(  0.0000000 )
                  (  0.0000000  0.0000000 -1.0000000 )       ( -0.5000000 )
                  (  0.0000000 -1.0000000  0.0000000 )       ( -0.5000000 )


     point group C_3v (3m)  
     there are  3 classes
     the character table:

       E     2C3   3s_v 
A_1    1.00  1.00  1.00
A_2    1.00  1.00 -1.00
E      2.00 -1.00  0.00

     the symmetry operations in each class and the name of the first element:

     E        1
          identity                                               
     2C3      2    3
          120 deg rotation - cart. axis [1,-1,1]                 
     3s_v     4    5    6
          inv. 180 deg rotation - cart. axis [1,1,0]             

   Cartesian axes

     site n.     atom                  positions (alat units)
         1           C   tau(   1) = (   0.1250031   0.3749969   0.6250031  )
         2           C   tau(   2) = (   0.1250031   0.8749969   0.1250031  )
         3           C   tau(   3) = (   0.1250031   0.8749969   0.6250031  )
         4           C   tau(   4) = (   0.6250031   0.3749969   0.1250031  )
         5           C   tau(   5) = (   0.6250031   0.3749969   0.6250031  )
         6           C   tau(   6) = (   0.6250031   0.8749969   0.1250031  )
         7           C   tau(   7) = (   0.6250031   0.8749969   0.6250031  )
         8           C   tau(   8) = (   0.0000000   0.0000000   0.2500000  )
         9           C   tau(   9) = (   0.0000000   0.0000000   0.7500000  )
        10           C   tau(  10) = (   0.0000000   0.5000000   0.2500000  )
        11           C   tau(  11) = (   0.0000000   0.5000000   0.7500000  )
        12           C   tau(  12) = (   0.5000000   0.0000000   0.2500000  )
        13           C   tau(  13) = (   0.5000000   0.0000000   0.7500000  )
        14           C   tau(  14) = (   0.5000000   0.5000000   0.2500000  )
        15           C   tau(  15) = (   0.5000000   0.5000000   0.7500000  )
        16           C   tau(  16) = (   0.1250031   0.1250031   0.3749969  )
        17           C   tau(  17) = (   0.1250031   0.1250031   0.8749969  )
        18           C   tau(  18) = (   0.1250031   0.6250031   0.3749969  )
        19           C   tau(  19) = (   0.1250031   0.6250031   0.8749969  )
        20           C   tau(  20) = (   0.6250031   0.1250031   0.3749969  )
        21           C   tau(  21) = (   0.6250031   0.1250031   0.8749969  )
        22           C   tau(  22) = (   0.6250031   0.6250031   0.3749969  )
        23           C   tau(  23) = (   0.6250031   0.6250031   0.8749969  )
        24           C   tau(  24) = (   0.0000000   0.2500000   0.0000000  )
        25           C   tau(  25) = (   0.0000000   0.2500000   0.5000000  )
        26           C   tau(  26) = (   0.0000000   0.7500000   0.0000000  )
        27           C   tau(  27) = (   0.0000000   0.7500000   0.5000000  )
        28           C   tau(  28) = (   0.5000000   0.2500000   0.0000000  )
        29           C   tau(  29) = (   0.5000000   0.2500000   0.5000000  )
        30           C   tau(  30) = (   0.5000000   0.7500000   0.0000000  )
        31           C   tau(  31) = (   0.5000000   0.7500000   0.5000000  )
        32           C   tau(  32) = (   0.3749969   0.3749969   0.3749969  )
        33           C   tau(  33) = (   0.3749969   0.3749969   0.8749969  )
        34           C   tau(  34) = (   0.3749969   0.8749969   0.3749969  )
        35           C   tau(  35) = (   0.3749969   0.8749969   0.8749969  )
        36           C   tau(  36) = (   0.8749969   0.3749969   0.3749969  )
        37           C   tau(  37) = (   0.8749969   0.3749969   0.8749969  )
        38           C   tau(  38) = (   0.8749969   0.8749969   0.3749969  )
        39           C   tau(  39) = (   0.8749969   0.8749969   0.8749969  )
        40           C   tau(  40) = (   0.2500000   0.0000000   0.0000000  )
        41           C   tau(  41) = (   0.2500000   0.0000000   0.5000000  )
        42           C   tau(  42) = (   0.2500000   0.5000000   0.0000000  )
        43           C   tau(  43) = (   0.2500000   0.5000000   0.5000000  )
        44           C   tau(  44) = (   0.7500000   0.0000000   0.0000000  )
        45           C   tau(  45) = (   0.7500000   0.0000000   0.5000000  )
        46           C   tau(  46) = (   0.7500000   0.5000000   0.0000000  )
        47           C   tau(  47) = (   0.7500000   0.5000000   0.5000000  )
        48           C   tau(  48) = (   0.3749969   0.1250031   0.1250031  )
        49           C   tau(  49) = (   0.3749969   0.1250031   0.6250031  )
        50           C   tau(  50) = (   0.3749969   0.6250031   0.1250031  )
        51           C   tau(  51) = (   0.3749969   0.6250031   0.6250031  )
        52           C   tau(  52) = (   0.8749969   0.1250031   0.1250031  )
        53           C   tau(  53) = (   0.8749969   0.1250031   0.6250031  )
        54           C   tau(  54) = (   0.8749969   0.6250031   0.1250031  )
        55           C   tau(  55) = (   0.8749969   0.6250031   0.6250031  )
        56           C   tau(  56) = (   0.2500000   0.2500000   0.2500000  )
        57           C   tau(  57) = (   0.2500000   0.2500000   0.7500000  )
        58           C   tau(  58) = (   0.2500000   0.7500000   0.2500000  )
        59           C   tau(  59) = (   0.2500000   0.7500000   0.7500000  )
        60           C   tau(  60) = (   0.7500000   0.2500000   0.2500000  )
        61           C   tau(  61) = (   0.7500000   0.2500000   0.7500000  )
        62           C   tau(  62) = (   0.7500000   0.7500000   0.2500000  )
        63           C   tau(  63) = (   0.7500000   0.7500000   0.7500000  )

   Crystallographic axes

     site n.     atom                  positions (cryst. coord.)
         1           C   tau(   1) = (  0.1250031  0.3749969  0.6250031  )
         2           C   tau(   2) = (  0.1250031  0.8749969  0.1250031  )
         3           C   tau(   3) = (  0.1250031  0.8749969  0.6250031  )
         4           C   tau(   4) = (  0.6250031  0.3749969  0.1250031  )
         5           C   tau(   5) = (  0.6250031  0.3749969  0.6250031  )
         6           C   tau(   6) = (  0.6250031  0.8749969  0.1250031  )
         7           C   tau(   7) = (  0.6250031  0.8749969  0.6250031  )
         8           C   tau(   8) = (  0.0000000  0.0000000  0.2500000  )
         9           C   tau(   9) = (  0.0000000  0.0000000  0.7500000  )
        10           C   tau(  10) = (  0.0000000  0.5000000  0.2500000  )
        11           C   tau(  11) = (  0.0000000  0.5000000  0.7500000  )
        12           C   tau(  12) = (  0.5000000  0.0000000  0.2500000  )
        13           C   tau(  13) = (  0.5000000  0.0000000  0.7500000  )
        14           C   tau(  14) = (  0.5000000  0.5000000  0.2500000  )
        15           C   tau(  15) = (  0.5000000  0.5000000  0.7500000  )
        16           C   tau(  16) = (  0.1250031  0.1250031  0.3749969  )
        17           C   tau(  17) = (  0.1250031  0.1250031  0.8749969  )
        18           C   tau(  18) = (  0.1250031  0.6250031  0.3749969  )
        19           C   tau(  19) = (  0.1250031  0.6250031  0.8749969  )
        20           C   tau(  20) = (  0.6250031  0.1250031  0.3749969  )
        21           C   tau(  21) = (  0.6250031  0.1250031  0.8749969  )
        22           C   tau(  22) = (  0.6250031  0.6250031  0.3749969  )
        23           C   tau(  23) = (  0.6250031  0.6250031  0.8749969  )
        24           C   tau(  24) = (  0.0000000  0.2500000  0.0000000  )
        25           C   tau(  25) = (  0.0000000  0.2500000  0.5000000  )
        26           C   tau(  26) = (  0.0000000  0.7500000  0.0000000  )
        27           C   tau(  27) = (  0.0000000  0.7500000  0.5000000  )
        28           C   tau(  28) = (  0.5000000  0.2500000  0.0000000  )
        29           C   tau(  29) = (  0.5000000  0.2500000  0.5000000  )
        30           C   tau(  30) = (  0.5000000  0.7500000  0.0000000  )
        31           C   tau(  31) = (  0.5000000  0.7500000  0.5000000  )
        32           C   tau(  32) = (  0.3749969  0.3749969  0.3749969  )
        33           C   tau(  33) = (  0.3749969  0.3749969  0.8749969  )
        34           C   tau(  34) = (  0.3749969  0.8749969  0.3749969  )
        35           C   tau(  35) = (  0.3749969  0.8749969  0.8749969  )
        36           C   tau(  36) = (  0.8749969  0.3749969  0.3749969  )
        37           C   tau(  37) = (  0.8749969  0.3749969  0.8749969  )
        38           C   tau(  38) = (  0.8749969  0.8749969  0.3749969  )
        39           C   tau(  39) = (  0.8749969  0.8749969  0.8749969  )
        40           C   tau(  40) = (  0.2500000  0.0000000  0.0000000  )
        41           C   tau(  41) = (  0.2500000  0.0000000  0.5000000  )
        42           C   tau(  42) = (  0.2500000  0.5000000  0.0000000  )
        43           C   tau(  43) = (  0.2500000  0.5000000  0.5000000  )
        44           C   tau(  44) = (  0.7500000  0.0000000  0.0000000  )
        45           C   tau(  45) = (  0.7500000  0.0000000  0.5000000  )
        46           C   tau(  46) = (  0.7500000  0.5000000  0.0000000  )
        47           C   tau(  47) = (  0.7500000  0.5000000  0.5000000  )
        48           C   tau(  48) = (  0.3749969  0.1250031  0.1250031  )
        49           C   tau(  49) = (  0.3749969  0.1250031  0.6250031  )
        50           C   tau(  50) = (  0.3749969  0.6250031  0.1250031  )
        51           C   tau(  51) = (  0.3749969  0.6250031  0.6250031  )
        52           C   tau(  52) = (  0.8749969  0.1250031  0.1250031  )
        53           C   tau(  53) = (  0.8749969  0.1250031  0.6250031  )
        54           C   tau(  54) = (  0.8749969  0.6250031  0.1250031  )
        55           C   tau(  55) = (  0.8749969  0.6250031  0.6250031  )
        56           C   tau(  56) = (  0.2500000  0.2500000  0.2500000  )
        57           C   tau(  57) = (  0.2500000  0.2500000  0.7500000  )
        58           C   tau(  58) = (  0.2500000  0.7500000  0.2500000  )
        59           C   tau(  59) = (  0.2500000  0.7500000  0.7500000  )
        60           C   tau(  60) = (  0.7500000  0.2500000  0.2500000  )
        61           C   tau(  61) = (  0.7500000  0.2500000  0.7500000  )
        62           C   tau(  62) = (  0.7500000  0.7500000  0.2500000  )
        63           C   tau(  63) = (  0.7500000  0.7500000  0.7500000  )

     number of k points=     4  Gaussian smearing, width (Ry)=  0.0100
                       cart. coord. in units 2pi/alat
        k(    1) = (   0.0000000   0.0000000   0.0000000), wk =   0.2500000
        k(    2) = (   0.0000000   0.0000000  -0.5000000), wk =   0.7500000
        k(    3) = (   0.0000000  -0.5000000  -0.5000000), wk =   0.7500000
        k(    4) = (  -0.5000000  -0.5000000  -0.5000000), wk =   0.2500000

                       cryst. coord.
        k(    1) = (   0.0000000   0.0000000   0.0000000), wk =   0.2500000
        k(    2) = (   0.0000000   0.0000000  -0.5000000), wk =   0.7500000
        k(    3) = (   0.0000000  -0.5000000  -0.5000000), wk =   0.7500000
        k(    4) = (  -0.5000000  -0.5000000  -0.5000000), wk =   0.2500000

     Dense  grid:   272153 G-vectors     FFT dimensions: (  90,  90,  90)

     Smooth grid:   194543 G-vectors     FFT dimensions: (  72,  72,  72)

     Dynamical RAM for                 wfc:       1.75 MB

     Dynamical RAM for     wfc (w. buffer):       1.75 MB

     Dynamical RAM for           str. fact:       0.13 MB

     Dynamical RAM for           local pot:       0.00 MB

     Dynamical RAM for          nlocal pot:       5.84 MB

     Dynamical RAM for                qrad:       0.43 MB

     Dynamical RAM for          rho,v,vnew:       0.95 MB

     Dynamical RAM for               rhoin:       0.32 MB

     Dynamical RAM for            rho*nmix:       2.08 MB

     Dynamical RAM for           G-vectors:       0.53 MB

     Dynamical RAM for          h,s,v(r/c):      16.70 MB

     Dynamical RAM for          <psi|beta>:       1.16 MB

     Dynamical RAM for                 psi:       7.00 MB

     Dynamical RAM for                hpsi:       7.00 MB

     Dynamical RAM for                spsi:       7.00 MB

     Dynamical RAM for      wfcinit/wfcrot:       4.03 MB

     Dynamical RAM for           addusdens:       3.54 MB

     Dynamical RAM for          addusforce:       7.58 MB

     Dynamical RAM for         addusstress:       1.67 MB

     Estimated static dynamical RAM per process >      11.13 MB

     Estimated max dynamical RAM per process >      52.09 MB

     Estimated total dynamical RAM >       6.32 GB

     Atomic positions and unit cell read from directory:
     ./diamond.save/
     Atomic positions from file used, from input discarded
 

     Check: negative core charge=   -0.000014

     The initial density is read from file :
     ./diamond.save/charge-density



     %%%%%%%%%%%%%%%%%%%%%%%%%%%%%%%%%%%%%%%%%%%%%%%%%%%%%%%%%%%%%%%%%%%%%%%%
     %                                                                      %
     % You are using vdW-DF, which was implemented by the Thonhauser group. %
     % Please cite the following two papers that made this development      %
     % possible and the two reviews that describe the various versions:     %
     %                                                                      %
     %   T. Thonhauser et al., PRL 115, 136402 (2015).                      %
     %   T. Thonhauser et al., PRB 76, 125112 (2007).                       %
     %   K. Berland et al., Rep. Prog. Phys. 78, 066501 (2015).             %
     %   D.C. Langreth et al., J. Phys.: Condens. Matter 21, 084203 (2009). %
     %                                                                      %
     % If you are calculating stress with vdW-DF, please also cite:         %
     %                                                                      %
     %   R. Sabatini et al., J. Phys.: Condens. Matter 24, 424209 (2012).   %
     %                                                                      %
     %%%%%%%%%%%%%%%%%%%%%%%%%%%%%%%%%%%%%%%%%%%%%%%%%%%%%%%%%%%%%%%%%%%%%%%%

     %%%%%%%%%%%%%%%%%%%%%%%%%%%%%%%%%%%%%%%%%%%%%%%%%%%%%%%%%%%%%%%%%%%%%%%%
     %                                                                      %
     %  vdW-DF NEWS:                                                        %
     %                                                                      %
     %  * vdW-DF3 is now available. DOI: 10.1021/acs.jctc.0c00471           %
     %    use with input_dft = 'vdW-DF3-opt1' or 'vdW-DF3-opt2'             %
     %                                                                      %
     %  * Unscreened and range-separated hybrid vdW-DF-cx functionals       %
     %    DOI: 10.1063/1.4986522 and 10.1088/1361-648X/ac2ad2               %
     %    use with input_dft = 'vdW-DF-cx0'    and 'vdW-DF-ahcx'            %
     %  * Unscreened and range-separated hybrid vdW-DF2-b86r functionals    %
     %    DOI: 10.1063/1.4986522 and DOI: 10.1103/PhysRevX.12.041003        %
     %    use with input_dft = 'vdW-DF2-br0' and 'vdW-DF2-ahbr'             %
     %                                                                      %
     %%%%%%%%%%%%%%%%%%%%%%%%%%%%%%%%%%%%%%%%%%%%%%%%%%%%%%%%%%%%%%%%%%%%%%%%


     Carrying out vdW-DF run using the following parameters:
     Nqs    =  20  Npoints =  1024  r_max =  100.000
     q_mesh =  0.00001000  0.04494208  0.09755937  0.15916263
               0.23128650  0.31572767  0.41458969  0.53033537
               0.66584808  0.82450364  1.01025438  1.22772762
               1.48234092  1.78043706  2.12944203  2.53805004
               3.01644009  3.57652955  4.23227104  5.00000000


     -----------------------------------------------
     Non-local corr. energy    =       2.16608038 Ry
     -----------------------------------------------

     Starting wfcs from file
     Checking if some PAW data can be deallocated... 

     total cpu time spent up to now is        2.2 secs

     Self-consistent Calculation

     iteration #  1     ecut=    70.00 Ry     beta= 0.70
     Davidson diagonalization with overlap

---- Real-time Memory Report at c_bands before calling an iterative solver
           168 MiB given to the printing process from OS
             0 MiB allocation reported by mallinfo(arena+hblkhd)
        975027 MiB available memory on the node where the printing process lives
------------------
     ethr =  1.00E-05,  avg # of iterations =  1.0

     Threshold (ethr) on eigenvalues was too large:
     Diagonalizing with lowered threshold

     Davidson diagonalization with overlap

---- Real-time Memory Report at c_bands before calling an iterative solver
           205 MiB given to the printing process from OS
             0 MiB allocation reported by mallinfo(arena+hblkhd)
        970374 MiB available memory on the node where the printing process lives
------------------
     c_bands:  1 eigenvalues not converged
     ethr =  1.21E-11,  avg # of iterations = 15.5


     -----------------------------------------------
     Non-local corr. energy    =       2.16608072 Ry
     -----------------------------------------------


     total cpu time spent up to now is        7.4 secs

     End of self-consistent calculation

          k = 0.0000 0.0000 0.0000 ( 24303 PWs)   bands (ev):

    -8.7237  -6.5362  -6.5362  -6.5180  -6.5180  -6.5171  -6.1225  -4.4218
    -4.4218  -4.4212  -4.4101  -4.4101  -4.3483  -4.3483  -4.3483  -4.2543
    -4.2543  -4.2533  -3.6480  -3.1041  -3.1037  -3.1037  -2.2795  -0.5767
    -0.5250  -0.5250  -0.5249  -0.1471  -0.1471  -0.0509  -0.0505  -0.0505
     0.0195   0.5272   0.5272   0.5619   0.5626   0.5626   0.6012   0.6012
     0.6014   0.8096   0.8096   0.8098   2.8284   3.8404   3.8411   3.8411
     3.8543   3.8543   3.8547   3.9182   3.9182   4.0841   4.0845   4.0845
     4.3634   4.3634   4.3634   4.4427   4.4427   4.4439   4.4891   4.5766
     4.5766   4.7397   4.7397   4.7404   4.7948   5.0495   5.0495   5.1106
     5.1106   5.1107   5.1435   5.1435   5.1440   5.7953   5.7953   5.7960
     6.4177   6.4179   6.4179   6.7649   6.7649   6.7649   7.1763   8.0305
     8.0305   8.1111   8.1111   8.1113   8.4647   8.4658   8.4658   8.5207
     8.5208   8.5208   8.5775   8.5775   8.5782   8.9839   8.9845   8.9845
     9.4932   9.4940   9.4940   9.5749   9.6348   9.6348   9.6349   9.6424
     9.6424   9.6805   9.6809   9.6809   9.8426   9.8426   9.9322   9.9323
     9.9323  10.9214  12.0706  12.0706  12.0708  14.5058  14.5059  14.5059
    17.2409  17.2409  17.3073  17.3717  17.3717  17.3723  17.7828  17.7828
    17.8097  17.8097  17.8103  18.1675  18.7131  18.7131  18.7136  20.6613
    20.6622  20.6622  20.7305  20.7305  20.7307  20.8023  20.8023

     occupation numbers 
     1.0000   1.0000   1.0000   1.0000   1.0000   1.0000   1.0000   1.0000
     1.0000   1.0000   1.0000   1.0000   1.0000   1.0000   1.0000   1.0000
     1.0000   1.0000   1.0000   1.0000   1.0000   1.0000   1.0000   1.0000
     1.0000   1.0000   1.0000   1.0000   1.0000   1.0000   1.0000   1.0000
     1.0000   1.0000   1.0000   1.0000   1.0000   1.0000   1.0000   1.0000
     1.0000   1.0000   1.0000   1.0000   1.0000   1.0000   1.0000   1.0000
     1.0000   1.0000   1.0000   1.0000   1.0000   1.0000   1.0000   1.0000
     1.0000   1.0000   1.0000   1.0000   1.0000   1.0000   1.0000   1.0000
     1.0000   1.0000   1.0000   1.0000   1.0000   1.0000   1.0000   1.0000
     1.0000   1.0000   1.0000   1.0000   1.0000   1.0000   1.0000   1.0000
     1.0000   1.0000   1.0000   1.0000   1.0000   1.0000   1.0000   1.0000
     1.0000   1.0000   1.0000   1.0000   1.0000   1.0000   1.0000   1.0000
     1.0000   1.0000   1.0000   1.0000   1.0000   1.0000   1.0000   1.0000
     1.0000   1.0000   1.0000   1.0000   1.0000   1.0000   1.0000   1.0000
     1.0000   1.0000   1.0000   1.0000   1.0000   1.0000   1.0000   1.0000
     1.0000   1.0000   1.0000   1.0000   1.0000   0.0009   0.0009   0.0009
     0.0000   0.0000   0.0000   0.0000   0.0000   0.0000   0.0000   0.0000
     0.0000   0.0000   0.0000   0.0000   0.0000   0.0000   0.0000   0.0000
     0.0000   0.0000   0.0000   0.0000   0.0000   0.0000   0.0000

          k = 0.0000 0.0000-0.5000 ( 24268 PWs)   bands (ev):

    -8.2484  -8.0566  -6.0345  -6.0340  -6.0090  -5.9658  -5.9627  -5.8983
    -5.8975  -5.4130  -3.9628  -3.9529  -3.9172  -3.9171  -3.9130  -3.8155
    -3.7764  -3.7761  -3.7356  -3.0334  -1.9465  -1.9462  -1.9460  -1.9071
    -1.8646  -1.8639  -1.7242  -1.0110   0.1130   0.1482   0.1513   0.1516
     0.1771   0.3072   0.3077   0.7627   1.0509   1.1145   1.1346   1.1347
     1.3854   1.3856   1.4097   1.6823   2.1118   2.1568   2.1572   2.2209
     2.4059   2.4060   2.4092   3.6041   3.8473   3.8611   3.8614   3.8737
     3.9085   3.9358   4.2431   4.2436   4.2835   5.1164   5.3793   5.3796
     5.4261   5.5007   5.5089   5.5652   5.5653   5.5816   6.0346   6.0350
     6.0472   6.1247   6.2783   6.2786   6.4060   6.8818   6.8819   6.9328
     7.0259   7.0261   7.1210   7.1386   7.1389   7.1394   7.1863   7.2031
     7.2037   7.2082   7.2231   7.2581   7.2584   7.3345   7.6259   7.7690
     7.7977   7.7980   7.9448   8.0029   8.0927   8.0929   8.6515   8.6517
     9.1254   9.4811   9.5763   9.5942   9.6423   9.6424   9.6845   9.6845
     9.6866   9.7244   9.7669   9.7669   9.8189   9.9856  10.6135  10.6138
    10.6988  10.7654  10.8632  10.8633  11.9007  13.9207  14.2659  14.2660
    17.0920  17.1034  17.9251  18.3507  19.2938  19.3192  19.3197  19.3536
    19.3543  19.4382  19.4974  19.4976  19.6110  19.6571  19.7262  19.7269
    19.7974  19.9379  19.9967  19.9973  20.0073  20.1012  20.5750

     occupation numbers 
     1.0000   1.0000   1.0000   1.0000   1.0000   1.0000   1.0000   1.0000
     1.0000   1.0000   1.0000   1.0000   1.0000   1.0000   1.0000   1.0000
     1.0000   1.0000   1.0000   1.0000   1.0000   1.0000   1.0000   1.0000
     1.0000   1.0000   1.0000   1.0000   1.0000   1.0000   1.0000   1.0000
     1.0000   1.0000   1.0000   1.0000   1.0000   1.0000   1.0000   1.0000
     1.0000   1.0000   1.0000   1.0000   1.0000   1.0000   1.0000   1.0000
     1.0000   1.0000   1.0000   1.0000   1.0000   1.0000   1.0000   1.0000
     1.0000   1.0000   1.0000   1.0000   1.0000   1.0000   1.0000   1.0000
     1.0000   1.0000   1.0000   1.0000   1.0000   1.0000   1.0000   1.0000
     1.0000   1.0000   1.0000   1.0000   1.0000   1.0000   1.0000   1.0000
     1.0000   1.0000   1.0000   1.0000   1.0000   1.0000   1.0000   1.0000
     1.0000   1.0000   1.0000   1.0000   1.0000   1.0000   1.0000   1.0000
     1.0000   1.0000   1.0000   1.0000   1.0000   1.0000   1.0000   1.0000
     1.0000   1.0000   1.0000   1.0000   1.0000   1.0000   1.0000   1.0000
     1.0000   1.0000   1.0000   1.0000   1.0000   1.0000   1.0000   1.0000
     1.0000   1.0000   1.0000   1.0000   1.0000   0.9985   0.2683   0.2682
     0.0000   0.0000   0.0000   0.0000   0.0000   0.0000   0.0000   0.0000
     0.0000   0.0000   0.0000   0.0000   0.0000   0.0000   0.0000   0.0000
     0.0000   0.0000   0.0000   0.0000   0.0000   0.0000   0.0000

          k = 0.0000-0.5000-0.5000 ( 24324 PWs)   bands (ev):

    -7.7089  -7.6531  -7.6528  -7.3161  -5.5007  -5.4769  -5.4560  -5.4559
    -5.4205  -5.4200  -5.3021  -4.7871  -3.3477  -3.3105  -3.3105  -3.3088
    -3.2442  -3.1516  -3.1511  -2.8323  -2.1489  -2.1486  -2.1272  -2.1051
    -2.0974  -2.0626  -2.0622  -1.1584  -0.4185  -0.4184  -0.3978  -0.0845
     0.3077   0.3414   0.3419   0.3932   0.4893   0.6580   0.6586   0.6623
     0.9056   0.9059   1.1899   2.2560   3.4124   3.4326   3.4327   3.4394
     3.4951   3.5019   3.5020   3.5198   3.5199   3.5307   3.5425   3.5479
     3.5479   3.5502   3.5761   3.6175   4.0500   4.2212   4.2214   5.3639
     5.6640   5.6648   5.6809   5.7788   5.8444   5.8448   6.0004   6.1296
     6.2379   6.3309   6.3311   6.3402   6.3411   6.4783   6.4784   6.6426
     6.7652   6.7653   6.8069   6.8426   7.0629   7.0629   7.1320   7.2184
     7.3471   7.5732   7.5735   7.8358   7.9499   8.0057   8.0059   8.1486
     8.1762   8.2493   8.2494   8.3697   8.6551   8.7663   8.7663   9.0050
     9.0339   9.0608   9.1010   9.1015   9.1052   9.1983   9.3009   9.3389
     9.3392   9.3797   9.4199   9.4199   9.4421   9.4422   9.4529   9.4588
    11.1522  11.1524  11.5519  11.7835  11.8574  13.7706  14.3692  14.3693
    18.4992  18.4996  18.6119  18.8529  19.0738  19.0741  19.1771  19.1908
    19.2067  19.2067  19.2257  19.3733  19.4607  19.5138  19.6749  19.6751
    19.7179  19.7192  19.7520  19.7524  20.0642  20.0645  20.3172

     occupation numbers 
     1.0000   1.0000   1.0000   1.0000   1.0000   1.0000   1.0000   1.0000
     1.0000   1.0000   1.0000   1.0000   1.0000   1.0000   1.0000   1.0000
     1.0000   1.0000   1.0000   1.0000   1.0000   1.0000   1.0000   1.0000
     1.0000   1.0000   1.0000   1.0000   1.0000   1.0000   1.0000   1.0000
     1.0000   1.0000   1.0000   1.0000   1.0000   1.0000   1.0000   1.0000
     1.0000   1.0000   1.0000   1.0000   1.0000   1.0000   1.0000   1.0000
     1.0000   1.0000   1.0000   1.0000   1.0000   1.0000   1.0000   1.0000
     1.0000   1.0000   1.0000   1.0000   1.0000   1.0000   1.0000   1.0000
     1.0000   1.0000   1.0000   1.0000   1.0000   1.0000   1.0000   1.0000
     1.0000   1.0000   1.0000   1.0000   1.0000   1.0000   1.0000   1.0000
     1.0000   1.0000   1.0000   1.0000   1.0000   1.0000   1.0000   1.0000
     1.0000   1.0000   1.0000   1.0000   1.0000   1.0000   1.0000   1.0000
     1.0000   1.0000   1.0000   1.0000   1.0000   1.0000   1.0000   1.0000
     1.0000   1.0000   1.0000   1.0000   1.0000   1.0000   1.0000   1.0000
     1.0000   1.0000   1.0000   1.0000   1.0000   1.0000   1.0000   1.0000
     1.0000   1.0000   1.0000   1.0000   1.0000   1.0000   0.0454   0.0453
     0.0000   0.0000   0.0000   0.0000   0.0000   0.0000   0.0000   0.0000
     0.0000   0.0000   0.0000   0.0000   0.0000   0.0000   0.0000   0.0000
     0.0000   0.0000   0.0000   0.0000   0.0000   0.0000   0.0000

          k =-0.5000-0.5000-0.5000 ( 24464 PWs)   bands (ev):

    -7.1623  -7.1361  -7.1361  -7.1357  -7.0451  -7.0451  -7.0446  -6.3398
    -2.9411  -2.9411  -2.9408  -2.8950  -2.8949  -2.8949  -2.8947  -2.8947
    -2.8895  -2.8459  -2.8459  -2.8456  -2.8190  -2.8190  -2.8183  -2.7966
    -2.7966  -2.7910  -2.7905  -2.7905  -2.5613  -2.5613  -2.5602  -0.1983
     1.7081   1.8020   1.8020   1.8090   1.8090   1.8092   1.8200   1.8204
     1.8204   1.8360   1.8360   1.8364   1.8592   1.8598   1.8598   1.9202
     1.9202   1.9205   1.9451   1.9451   2.6150   2.6152   2.6152   4.4894
     5.7837   5.7839   5.7839   5.8275   5.8583   5.8583   5.8675   5.8675
     5.8676   5.8867   5.8867   5.8868   5.9624   5.9653   5.9653   5.9653
     5.9694   5.9694   5.9696   6.0259   6.0260   6.0260   6.0375   6.1116
     6.1116   6.1268   6.1269   6.1269   6.7573   6.7573   6.7577   7.6225
     7.6231   7.6231   7.6331   7.6331   7.7184   7.7523   7.7523   7.7530
     7.7743   7.7743   7.7748   7.7787   7.7793   7.7793   7.8647   7.8692
     7.8692   7.9824   7.9827   7.9827   9.5237   9.5237   9.5241  10.7225
    10.7225  10.7272  10.8267  10.8269  10.8269  10.8519  10.8519  10.8520
    10.9096  10.9099  10.9099  10.9220  10.9220  14.3748  14.3748  14.3748
    18.7821  18.7821  18.7828  18.7999  18.7999  18.8110  18.8119  18.8119
    18.8688  18.8688  18.8693  18.9744  18.9750  18.9750  18.9806  19.0061
    19.0061  19.0066  19.3455  19.3455  19.3461  19.5575  19.5575

     occupation numbers 
     1.0000   1.0000   1.0000   1.0000   1.0000   1.0000   1.0000   1.0000
     1.0000   1.0000   1.0000   1.0000   1.0000   1.0000   1.0000   1.0000
     1.0000   1.0000   1.0000   1.0000   1.0000   1.0000   1.0000   1.0000
     1.0000   1.0000   1.0000   1.0000   1.0000   1.0000   1.0000   1.0000
     1.0000   1.0000   1.0000   1.0000   1.0000   1.0000   1.0000   1.0000
     1.0000   1.0000   1.0000   1.0000   1.0000   1.0000   1.0000   1.0000
     1.0000   1.0000   1.0000   1.0000   1.0000   1.0000   1.0000   1.0000
     1.0000   1.0000   1.0000   1.0000   1.0000   1.0000   1.0000   1.0000
     1.0000   1.0000   1.0000   1.0000   1.0000   1.0000   1.0000   1.0000
     1.0000   1.0000   1.0000   1.0000   1.0000   1.0000   1.0000   1.0000
     1.0000   1.0000   1.0000   1.0000   1.0000   1.0000   1.0000   1.0000
     1.0000   1.0000   1.0000   1.0000   1.0000   1.0000   1.0000   1.0000
     1.0000   1.0000   1.0000   1.0000   1.0000   1.0000   1.0000   1.0000
     1.0000   1.0000   1.0000   1.0000   1.0000   1.0000   1.0000   1.0000
     1.0000   1.0000   1.0000   1.0000   1.0000   1.0000   1.0000   1.0000
     1.0000   1.0000   1.0000   1.0000   1.0000   0.0401   0.0401   0.0401
     0.0000   0.0000   0.0000   0.0000   0.0000   0.0000   0.0000   0.0000
     0.0000   0.0000   0.0000   0.0000   0.0000   0.0000   0.0000   0.0000
     0.0000   0.0000   0.0000   0.0000   0.0000   0.0000   0.0000

     the Fermi energy is    14.2065 ev

!    total energy              =   -1196.05970691 Ry
     total all-electron energy =     -4835.197825 Ry
     estimated scf accuracy    <       0.00000004 Ry
     smearing contrib. (-TS)   =      -0.00500687 Ry
     internal energy E=F+TS    =   -1196.05470004 Ry

     The total energy is F=E-TS. E is the sum of the following terms:
     one-electron contribution =     245.49364895 Ry
     hartree contribution      =      69.30896088 Ry
     xc contribution           =    -306.70645891 Ry
     ewald contribution        =    -792.02097686 Ry
     one-center paw contrib.   =    -412.12987410 Ry
      -> PAW hartree energy AE =       9.01169565 Ry
      -> PAW hartree energy PS =      -9.00337807 Ry
      -> PAW xc energy AE      =     -11.11884161 Ry
      -> PAW xc energy PS      =       4.56939022 Ry
      -> total E_H with PAW    =      69.31727846 Ry
      -> total E_XC with PAW   =    -313.25591030 Ry

     convergence has been achieved in   1 iterations


     -----------------------------------------------
     Non-local corr. energy    =       2.16608072 Ry
     -----------------------------------------------


     Forces acting on atoms (cartesian axes, Ry/au):

     atom    1 type  1   force =    -0.00000132    0.00000132    0.00001199
     atom    2 type  1   force =    -0.00000132   -0.00001199   -0.00000132
     atom    3 type  1   force =    -0.00001498    0.00000938   -0.00000938
     atom    4 type  1   force =     0.00001199    0.00000132   -0.00000132
     atom    5 type  1   force =    -0.00000938    0.00001498   -0.00000938
     atom    6 type  1   force =    -0.00000938    0.00000938   -0.00001498
     atom    7 type  1   force =     0.00000716   -0.00000716    0.00000716
     atom    8 type  1   force =    -0.00011786   -0.00010690    0.00014073
     atom    9 type  1   force =    -0.00024535   -0.00009706   -0.00008687
     atom   10 type  1   force =     0.00000130   -0.00000130    0.00001755
     atom   11 type  1   force =    -0.00010212    0.00010212   -0.00009511
     atom   12 type  1   force =     0.00009330   -0.00009330    0.00023672
     atom   13 type  1   force =     0.00015216   -0.00015216   -0.00013659
     atom   14 type  1   force =     0.00010690    0.00011786    0.00014073
     atom   15 type  1   force =     0.00009706    0.00024535   -0.00008687
     atom   16 type  1   force =    -0.00015984    0.00000381   -0.00000381
     atom   17 type  1   force =     0.00020336    0.00000348   -0.00001516
     atom   18 type  1   force =     0.00020336    0.00001516   -0.00000348
     atom   19 type  1   force =    -0.00020451    0.00002573   -0.00002573
     atom   20 type  1   force =    -0.00017849   -0.00037392    0.00037392
     atom   21 type  1   force =     0.00016859   -0.00037729   -0.00038846
     atom   22 type  1   force =     0.00016859    0.00038846    0.00037729
     atom   23 type  1   force =    -0.00014310    0.00035165   -0.00035165
     atom   24 type  1   force =     0.00000130   -0.00001755    0.00000130
     atom   25 type  1   force =    -0.00011786   -0.00014073    0.00010690
     atom   26 type  1   force =    -0.00010212    0.00009511   -0.00010212
     atom   27 type  1   force =    -0.00024535    0.00008687    0.00009706
     atom   28 type  1   force =     0.00010690   -0.00014073   -0.00011786
     atom   29 type  1   force =     0.00009330   -0.00023672    0.00009330
     atom   30 type  1   force =     0.00009706    0.00008687   -0.00024535
     atom   31 type  1   force =     0.00015216    0.00013659    0.00015216
     atom   32 type  1   force =    -0.00000381    0.00015984   -0.00000381
     atom   33 type  1   force =    -0.00000348   -0.00020336   -0.00001516
     atom   34 type  1   force =     0.00037392    0.00017849    0.00037392
     atom   35 type  1   force =     0.00037729   -0.00016859   -0.00038846
     atom   36 type  1   force =    -0.00001516   -0.00020336   -0.00000348
     atom   37 type  1   force =    -0.00002573    0.00020451   -0.00002573
     atom   38 type  1   force =    -0.00038846   -0.00016859    0.00037729
     atom   39 type  1   force =    -0.00035165    0.00014310   -0.00035165
     atom   40 type  1   force =     0.00014073   -0.00010690   -0.00011786
     atom   41 type  1   force =     0.00023672   -0.00009330    0.00009330
     atom   42 type  1   force =     0.00001755   -0.00000130    0.00000130
     atom   43 type  1   force =     0.00014073    0.00011786    0.00010690
     atom   44 type  1   force =    -0.00008687   -0.00009706   -0.00024535
     atom   45 type  1   force =    -0.00013659   -0.00015216    0.00015216
     atom   46 type  1   force =    -0.00009511    0.00010212   -0.00010212
     atom   47 type  1   force =    -0.00008687    0.00024535    0.00009706
     atom   48 type  1   force =    -0.00000381    0.00000381   -0.00015984
     atom   49 type  1   force =     0.00037392   -0.00037392   -0.00017849
     atom   50 type  1   force =    -0.00000348    0.00001516    0.00020336
     atom   51 type  1   force =     0.00037729    0.00038846    0.00016859
     atom   52 type  1   force =    -0.00001516    0.00000348    0.00020336
     atom   53 type  1   force =    -0.00038846   -0.00037729    0.00016859
     atom   54 type  1   force =    -0.00002573    0.00002573   -0.00020451
     atom   55 type  1   force =    -0.00035165    0.00035165   -0.00014310
     atom   56 type  1   force =    -0.00010567    0.00010567   -0.00010567
     atom   57 type  1   force =     0.00014118   -0.00014118   -0.00010711
     atom   58 type  1   force =     0.00014118    0.00010711    0.00014118
     atom   59 type  1   force =     0.00024982    0.00012034   -0.00012034
     atom   60 type  1   force =    -0.00010711   -0.00014118    0.00014118
     atom   61 type  1   force =    -0.00012034   -0.00024982   -0.00012034
     atom   62 type  1   force =    -0.00012034    0.00012034    0.00024982
     atom   63 type  1   force =    -0.00014638    0.00014638   -0.00014638
     The non-local contrib.  to forces
     atom    1 type  1   force =     0.00012803   -0.00012803    0.00004220
     atom    2 type  1   force =     0.00012803   -0.00004220    0.00012803
     atom    3 type  1   force =     0.00011887   -0.00007461    0.00007461
     atom    4 type  1   force =     0.00004220   -0.00012803    0.00012803
     atom    5 type  1   force =     0.00007461   -0.00011887    0.00007461
     atom    6 type  1   force =     0.00007461   -0.00007461    0.00011887
     atom    7 type  1   force =     0.00008919   -0.00008919    0.00008919
     atom    8 type  1   force =    -0.00559297   -0.01639924    0.00562703
     atom    9 type  1   force =    -0.01635946    0.00040561    0.00037747
     atom   10 type  1   force =    -0.13276668    0.13276668    0.13285732
     atom   11 type  1   force =    -0.00557214    0.00557214   -0.01641315
     atom   12 type  1   force =    -0.00035695    0.00035695    0.01640377
     atom   13 type  1   force =     0.00365532   -0.00365532   -0.00364965
     atom   14 type  1   force =     0.01639924    0.00559297    0.00562703
     atom   15 type  1   force =    -0.00040561    0.01635946    0.00037747
     atom   16 type  1   force =    -0.00662236   -0.03342699    0.03342699
     atom   17 type  1   force =     0.00695768   -0.03357364   -0.03370361
     atom   18 type  1   force =     0.00695768    0.03370361    0.03357364
     atom   19 type  1   force =    -0.00686924    0.03357053   -0.03357053
     atom   20 type  1   force =     0.00101367   -0.00667152    0.00667152
     atom   21 type  1   force =    -0.00088174   -0.00670011   -0.00676724
     atom   22 type  1   force =    -0.00088174    0.00676724    0.00670011
     atom   23 type  1   force =     0.00102433    0.00677739   -0.00677739
     atom   24 type  1   force =    -0.13276668   -0.13285732   -0.13276668
     atom   25 type  1   force =    -0.00559297   -0.00562703    0.01639924
     atom   26 type  1   force =    -0.00557214    0.01641315   -0.00557214
     atom   27 type  1   force =    -0.01635946   -0.00037747   -0.00040561
     atom   28 type  1   force =     0.01639924   -0.00562703   -0.00559297
     atom   29 type  1   force =    -0.00035695   -0.01640377   -0.00035695
     atom   30 type  1   force =    -0.00040561   -0.00037747   -0.01635946
     atom   31 type  1   force =     0.00365532    0.00364965    0.00365532
     atom   32 type  1   force =     0.03342699    0.00662236    0.03342699
     atom   33 type  1   force =     0.03357364   -0.00695768   -0.03370361
     atom   34 type  1   force =     0.00667152   -0.00101367    0.00667152
     atom   35 type  1   force =     0.00670011    0.00088174   -0.00676724
     atom   36 type  1   force =    -0.03370361   -0.00695768    0.03357364
     atom   37 type  1   force =    -0.03357053    0.00686924   -0.03357053
     atom   38 type  1   force =    -0.00676724    0.00088174    0.00670011
     atom   39 type  1   force =    -0.00677739   -0.00102433   -0.00677739
     atom   40 type  1   force =     0.00562703   -0.01639924   -0.00559297
     atom   41 type  1   force =     0.01640377    0.00035695   -0.00035695
     atom   42 type  1   force =     0.13285732    0.13276668   -0.13276668
     atom   43 type  1   force =     0.00562703    0.00559297    0.01639924
     atom   44 type  1   force =     0.00037747    0.00040561   -0.01635946
     atom   45 type  1   force =    -0.00364965   -0.00365532    0.00365532
     atom   46 type  1   force =    -0.01641315    0.00557214   -0.00557214
     atom   47 type  1   force =     0.00037747    0.01635946   -0.00040561
     atom   48 type  1   force =     0.03342699   -0.03342699   -0.00662236
     atom   49 type  1   force =     0.00667152   -0.00667152    0.00101367
     atom   50 type  1   force =     0.03357364    0.03370361    0.00695768
     atom   51 type  1   force =     0.00670011    0.00676724   -0.00088174
     atom   52 type  1   force =    -0.03370361   -0.03357364    0.00695768
     atom   53 type  1   force =    -0.00676724   -0.00670011   -0.00088174
     atom   54 type  1   force =    -0.03357053    0.03357053   -0.00686924
     atom   55 type  1   force =    -0.00677739    0.00677739    0.00102433
     atom   56 type  1   force =     0.13301592   -0.13301592    0.13301592
     atom   57 type  1   force =     0.00579785   -0.00579785   -0.01647820
     atom   58 type  1   force =     0.00579785    0.01647820    0.00579785
     atom   59 type  1   force =     0.01625458   -0.00055202    0.00055202
     atom   60 type  1   force =    -0.01647820   -0.00579785    0.00579785
     atom   61 type  1   force =     0.00055202   -0.01625458    0.00055202
     atom   62 type  1   force =     0.00055202   -0.00055202    0.01625458
     atom   63 type  1   force =    -0.00369487    0.00369487   -0.00369487
     The ionic contribution  to forces
     atom    1 type  1   force =    -0.00012487    0.00012464   -0.00078207
     atom    2 type  1   force =    -0.00012487    0.00078232   -0.00012487
     atom    3 type  1   force =    -0.00092473    0.00058064   -0.00058036
     atom    4 type  1   force =    -0.00078207    0.00012464   -0.00012487
     atom    5 type  1   force =    -0.00058036    0.00092450   -0.00058036
     atom    6 type  1   force =    -0.00058036    0.00058064   -0.00092473
     atom    7 type  1   force =    -0.00013538    0.00013566   -0.00013538
     atom    8 type  1   force =     0.24559645    0.61736845   -0.24544065
     atom    9 type  1   force =     0.19716026    0.20517354    0.20428326
     atom   10 type  1   force =     2.24771076   -2.24771086   -2.24988685
     atom   11 type  1   force =     0.24487151   -0.24487162    0.61989160
     atom   12 type  1   force =    -0.20528650    0.20528639   -0.19578780
     atom   13 type  1   force =    -0.11181778    0.11181766    0.11134029
     atom   14 type  1   force =    -0.61736857   -0.24559657   -0.24544064
     atom   15 type  1   force =    -0.20517365   -0.19716037    0.20428326
     atom   16 type  1   force =    -0.30628271    0.79075908   -0.79075931
     atom   17 type  1   force =     0.30852299    0.78977065    0.78977391
     atom   18 type  1   force =     0.30852301   -0.78977366   -0.78977091
     atom   19 type  1   force =    -0.30966549   -0.79076025    0.79076054
     atom   20 type  1   force =     0.06048125    0.21525808   -0.21525831
     atom   21 type  1   force =    -0.06151984    0.21422157    0.21589480
     atom   22 type  1   force =    -0.06151984   -0.21589452   -0.21422180
     atom   23 type  1   force =     0.06206131   -0.21540789    0.21540817
     atom   24 type  1   force =     2.24771078    2.24988661    2.24771078
     atom   25 type  1   force =     0.24559645    0.24544039   -0.61736857
     atom   26 type  1   force =     0.24487152   -0.61989126    0.24487152
     atom   27 type  1   force =     0.19716026   -0.20428290   -0.20517365
     atom   28 type  1   force =    -0.61736857    0.24544039    0.24559645
     atom   29 type  1   force =    -0.20528650    0.19578754   -0.20528650
     atom   30 type  1   force =    -0.20517365   -0.20428290    0.19716026
     atom   31 type  1   force =    -0.11181778   -0.11133992   -0.11181778
     atom   32 type  1   force =    -0.79075931    0.30628249   -0.79075931
     atom   33 type  1   force =    -0.78977088   -0.30852322    0.78977391
     atom   34 type  1   force =    -0.21525831   -0.06048097   -0.21525831
     atom   35 type  1   force =    -0.21422179    0.06152012    0.21589480
     atom   36 type  1   force =     0.78977391   -0.30852322   -0.78977088
     atom   37 type  1   force =     0.79076051    0.30966525    0.79076051
     atom   38 type  1   force =     0.21589480    0.06152012   -0.21422179
     atom   39 type  1   force =     0.21540817   -0.06206103    0.21540817
     atom   40 type  1   force =    -0.24544065    0.61736845    0.24559645
     atom   41 type  1   force =    -0.19578780    0.20528639   -0.20528650
     atom   42 type  1   force =    -2.24988685   -2.24771086    2.24771076
     atom   43 type  1   force =    -0.24544064   -0.24559657   -0.61736857
     atom   44 type  1   force =     0.20428326    0.20517354    0.19716026
     atom   45 type  1   force =     0.11134029    0.11181766   -0.11181778
     atom   46 type  1   force =     0.61989160   -0.24487162    0.24487151
     atom   47 type  1   force =     0.20428326   -0.19716037   -0.20517365
     atom   48 type  1   force =    -0.79075931    0.79075908   -0.30628271
     atom   49 type  1   force =    -0.21525831    0.21525808    0.06048125
     atom   50 type  1   force =    -0.78977091   -0.78977366    0.30852301
     atom   51 type  1   force =    -0.21422180   -0.21589452   -0.06151984
     atom   52 type  1   force =     0.78977391    0.78977065    0.30852299
     atom   53 type  1   force =     0.21589480    0.21422157   -0.06151984
     atom   54 type  1   force =     0.79076054   -0.79076025   -0.30966549
     atom   55 type  1   force =     0.21540817   -0.21540789    0.06206131
     atom   56 type  1   force =    -2.24766462    2.24766436   -2.24766462
     atom   57 type  1   force =    -0.24480524    0.24480499    0.61760853
     atom   58 type  1   force =    -0.24480525   -0.61760819   -0.24480525
     atom   59 type  1   force =    -0.19756801   -0.20505925    0.20505962
     atom   60 type  1   force =     0.61760853    0.24480499   -0.24480524
     atom   61 type  1   force =     0.20505962    0.19756775    0.20505962
     atom   62 type  1   force =     0.20505962   -0.20505925   -0.19756801
     atom   63 type  1   force =     0.11148563   -0.11148526    0.11148563
     The local contribution  to forces
     atom    1 type  1   force =    -0.00004548    0.00004542    0.00058408
     atom    2 type  1   force =    -0.00004550   -0.00058391   -0.00004556
     atom    3 type  1   force =     0.00074538   -0.00033672    0.00033693
     atom    4 type  1   force =     0.00058417    0.00004545   -0.00004557
     atom    5 type  1   force =     0.00033695   -0.00074545    0.00033692
     atom    6 type  1   force =     0.00033698   -0.00033674    0.00074530
     atom    7 type  1   force =    -0.00011289    0.00011313   -0.00011293
     atom    8 type  1   force =    -0.24011457   -0.60124524    0.23989414
     atom    9 type  1   force =    -0.18123377   -0.20564361   -0.20501829
     atom   10 type  1   force =    -2.11720593    2.11720587    2.11907798
     atom   11 type  1   force =    -0.23939867    0.23939860   -0.60366520
     atom   12 type  1   force =     0.20569325   -0.20569332    0.18005065
     atom   13 type  1   force =     0.10830120   -0.10830127   -0.10783837
     atom   14 type  1   force =     0.60124517    0.24011450    0.23989413
     atom   15 type  1   force =     0.20564353    0.18123371   -0.20501830
     atom   16 type  1   force =     0.31283005   -0.75776462    0.75776452
     atom   17 type  1   force =    -0.31511987   -0.75687250   -0.75664241
     atom   18 type  1   force =    -0.31511987    0.75664260    0.75687241
     atom   19 type  1   force =     0.31586959    0.75761780   -0.75761763
     atom   20 type  1   force =    -0.06174646   -0.20905845    0.20905834
     atom   21 type  1   force =     0.06238842   -0.20812978   -0.20944609
     atom   22 type  1   force =     0.06238842    0.20944628    0.20812966
     atom   23 type  1   force =    -0.06341405    0.20892903   -0.20892884
     atom   24 type  1   force =    -2.11720602   -2.11907812   -2.11720603
     atom   25 type  1   force =    -0.24011454   -0.23989426    0.60124512
     atom   26 type  1   force =    -0.23939867    0.60366542   -0.23939871
     atom   27 type  1   force =    -0.18123377    0.20501846    0.20564347
     atom   28 type  1   force =     0.60124517   -0.23989426   -0.24011458
     atom   29 type  1   force =     0.20569325   -0.18005073    0.20569323
     atom   30 type  1   force =     0.20564355    0.20501848   -0.18123383
     atom   31 type  1   force =     0.10830120    0.10783854    0.10830115
     atom   32 type  1   force =     0.75776456   -0.31283011    0.75776452
     atom   33 type  1   force =     0.75687243    0.31511980   -0.75664243
     atom   34 type  1   force =     0.20905839    0.06174670    0.20905834
     atom   35 type  1   force =     0.20812972   -0.06238818   -0.20944608
     atom   36 type  1   force =    -0.75664235    0.31511979    0.75687236
     atom   37 type  1   force =    -0.75761756   -0.31586964   -0.75761759
     atom   38 type  1   force =    -0.20944604   -0.06238818    0.20812967
     atom   39 type  1   force =    -0.20892879    0.06341429   -0.20892884
     atom   40 type  1   force =     0.23989419   -0.60124524   -0.24011458
     atom   41 type  1   force =     0.18005067   -0.20569332    0.20569322
     atom   42 type  1   force =     2.11907804    2.11720595   -2.11720603
     atom   43 type  1   force =     0.23989419    0.24011447    0.60124512
     atom   44 type  1   force =    -0.20501825   -0.20564362   -0.18123381
     atom   45 type  1   force =    -0.10783831   -0.10830127    0.10830115
     atom   46 type  1   force =    -0.60366517    0.23939859   -0.23939870
     atom   47 type  1   force =    -0.20501823    0.18123369    0.20564346
     atom   48 type  1   force =     0.75776455   -0.75776462    0.31282998
     atom   49 type  1   force =     0.20905838   -0.20905844   -0.06174650
     atom   50 type  1   force =     0.75687247    0.75664262   -0.31511990
     atom   51 type  1   force =     0.20812971    0.20944626    0.06238837
     atom   52 type  1   force =    -0.75664236   -0.75687249   -0.31511987
     atom   53 type  1   force =    -0.20944604   -0.20812978    0.06238838
     atom   54 type  1   force =    -0.75761758    0.75761779    0.31586952
     atom   55 type  1   force =    -0.20892880    0.20892903   -0.06341409
     atom   56 type  1   force =     2.11700224   -2.11700230    2.11700222
     atom   57 type  1   force =     0.23938453   -0.23938459   -0.60160650
     atom   58 type  1   force =     0.23938454    0.60160666    0.23938449
     atom   59 type  1   force =     0.18174174    0.20558340   -0.20558321
     atom   60 type  1   force =    -0.60160640   -0.23938460    0.23938449
     atom   61 type  1   force =    -0.20558317   -0.18174181   -0.20558320
     atom   62 type  1   force =    -0.20558317    0.20558339    0.18174170
     atom   63 type  1   force =    -0.10803742    0.10803765   -0.10803747
     The core correction contribution to forces
     atom    1 type  1   force =     0.00010631   -0.00010631    0.00011613
     atom    2 type  1   force =     0.00010631   -0.00011614    0.00010631
     atom    3 type  1   force =     0.00012013   -0.00010774    0.00010773
     atom    4 type  1   force =     0.00011612   -0.00010631    0.00010631
     atom    5 type  1   force =     0.00010772   -0.00012013    0.00010773
     atom    6 type  1   force =     0.00010772   -0.00010774    0.00012013
     atom    7 type  1   force =     0.00010995   -0.00010997    0.00010996
     atom    8 type  1   force =     0.00006659    0.00022898    0.00009315
     atom    9 type  1   force =     0.00026046    0.00002170    0.00025362
     atom   10 type  1   force =     0.00233150   -0.00233150   -0.00200662
     atom   11 type  1   force =     0.00006833   -0.00006833    0.00008091
     atom   12 type  1   force =    -0.00001722    0.00001722   -0.00040592
     atom   13 type  1   force =    -0.00004846    0.00004846    0.00000246
     atom   14 type  1   force =    -0.00022898   -0.00006659    0.00009315
     atom   15 type  1   force =    -0.00002170   -0.00026046    0.00025362
     atom   16 type  1   force =     0.00001267    0.00048504   -0.00048503
     atom   17 type  1   force =    -0.00007967    0.00069659    0.00059365
     atom   18 type  1   force =    -0.00007967   -0.00059366   -0.00069659
     atom   19 type  1   force =     0.00052076   -0.00043573    0.00043572
     atom   20 type  1   force =     0.00002270    0.00011905   -0.00011904
     atom   21 type  1   force =     0.00012550    0.00025721   -0.00003454
     atom   22 type  1   force =     0.00012550    0.00003452   -0.00025720
     atom   23 type  1   force =     0.00013657    0.00001018   -0.00001019
     atom   24 type  1   force =     0.00233149    0.00200663    0.00233150
     atom   25 type  1   force =     0.00006659   -0.00009315   -0.00022897
     atom   26 type  1   force =     0.00006833   -0.00008091    0.00006834
     atom   27 type  1   force =     0.00026046   -0.00025363   -0.00002169
     atom   28 type  1   force =    -0.00022898   -0.00009315    0.00006660
     atom   29 type  1   force =    -0.00001722    0.00040592   -0.00001721
     atom   30 type  1   force =    -0.00002169   -0.00025363    0.00026046
     atom   31 type  1   force =    -0.00004846   -0.00000247   -0.00004845
     atom   32 type  1   force =    -0.00048504   -0.00001267   -0.00048503
     atom   33 type  1   force =    -0.00069659    0.00007967    0.00059365
     atom   34 type  1   force =    -0.00011905   -0.00002272   -0.00011904
     atom   35 type  1   force =    -0.00025721   -0.00012551   -0.00003453
     atom   36 type  1   force =     0.00059364    0.00007967   -0.00069659
     atom   37 type  1   force =     0.00043571   -0.00052076    0.00043572
     atom   38 type  1   force =    -0.00003454   -0.00012551   -0.00025720
     atom   39 type  1   force =    -0.00001019   -0.00013658   -0.00001019
     atom   40 type  1   force =     0.00009315    0.00022898    0.00006660
     atom   41 type  1   force =    -0.00040592    0.00001722   -0.00001721
     atom   42 type  1   force =    -0.00200663   -0.00233149    0.00233150
     atom   43 type  1   force =     0.00009315   -0.00006659   -0.00022897
     atom   44 type  1   force =     0.00025361    0.00002170    0.00026046
     atom   45 type  1   force =     0.00000245    0.00004846   -0.00004845
     atom   46 type  1   force =     0.00008090   -0.00006833    0.00006834
     atom   47 type  1   force =     0.00025361   -0.00026046   -0.00002169
     atom   48 type  1   force =    -0.00048504    0.00048504    0.00001268
     atom   49 type  1   force =    -0.00011905    0.00011905    0.00002271
     atom   50 type  1   force =    -0.00069659   -0.00059366   -0.00007966
     atom   51 type  1   force =    -0.00025721    0.00003452    0.00012550
     atom   52 type  1   force =     0.00059364    0.00069659   -0.00007966
     atom   53 type  1   force =    -0.00003454    0.00025721    0.00012550
     atom   54 type  1   force =     0.00043571   -0.00043573    0.00052077
     atom   55 type  1   force =    -0.00001019    0.00001018    0.00013657
     atom   56 type  1   force =    -0.00244906    0.00244906   -0.00244905
     atom   57 type  1   force =    -0.00020497    0.00020497    0.00035687
     atom   58 type  1   force =    -0.00020497   -0.00035688   -0.00020496
     atom   59 type  1   force =    -0.00015094    0.00016494   -0.00016495
     atom   60 type  1   force =     0.00035686    0.00020497   -0.00020496
     atom   61 type  1   force =    -0.00016495    0.00015094   -0.00016495
     atom   62 type  1   force =    -0.00016496    0.00016494   -0.00015093
     atom   63 type  1   force =     0.00009157   -0.00009159    0.00009158
     The Hubbard contrib.    to forces
     atom    1 type  1   force =     0.00000000    0.00000000    0.00000000
     atom    2 type  1   force =     0.00000000    0.00000000    0.00000000
     atom    3 type  1   force =     0.00000000    0.00000000    0.00000000
     atom    4 type  1   force =     0.00000000    0.00000000    0.00000000
     atom    5 type  1   force =     0.00000000    0.00000000    0.00000000
     atom    6 type  1   force =     0.00000000    0.00000000    0.00000000
     atom    7 type  1   force =     0.00000000    0.00000000    0.00000000
     atom    8 type  1   force =     0.00000000    0.00000000    0.00000000
     atom    9 type  1   force =     0.00000000    0.00000000    0.00000000
     atom   10 type  1   force =     0.00000000    0.00000000    0.00000000
     atom   11 type  1   force =     0.00000000    0.00000000    0.00000000
     atom   12 type  1   force =     0.00000000    0.00000000    0.00000000
     atom   13 type  1   force =     0.00000000    0.00000000    0.00000000
     atom   14 type  1   force =     0.00000000    0.00000000    0.00000000
     atom   15 type  1   force =     0.00000000    0.00000000    0.00000000
     atom   16 type  1   force =     0.00000000    0.00000000    0.00000000
     atom   17 type  1   force =     0.00000000    0.00000000    0.00000000
     atom   18 type  1   force =     0.00000000    0.00000000    0.00000000
     atom   19 type  1   force =     0.00000000    0.00000000    0.00000000
     atom   20 type  1   force =     0.00000000    0.00000000    0.00000000
     atom   21 type  1   force =     0.00000000    0.00000000    0.00000000
     atom   22 type  1   force =     0.00000000    0.00000000    0.00000000
     atom   23 type  1   force =     0.00000000    0.00000000    0.00000000
     atom   24 type  1   force =     0.00000000    0.00000000    0.00000000
     atom   25 type  1   force =     0.00000000    0.00000000    0.00000000
     atom   26 type  1   force =     0.00000000    0.00000000    0.00000000
     atom   27 type  1   force =     0.00000000    0.00000000    0.00000000
     atom   28 type  1   force =     0.00000000    0.00000000    0.00000000
     atom   29 type  1   force =     0.00000000    0.00000000    0.00000000
     atom   30 type  1   force =     0.00000000    0.00000000    0.00000000
     atom   31 type  1   force =     0.00000000    0.00000000    0.00000000
     atom   32 type  1   force =     0.00000000    0.00000000    0.00000000
     atom   33 type  1   force =     0.00000000    0.00000000    0.00000000
     atom   34 type  1   force =     0.00000000    0.00000000    0.00000000
     atom   35 type  1   force =     0.00000000    0.00000000    0.00000000
     atom   36 type  1   force =     0.00000000    0.00000000    0.00000000
     atom   37 type  1   force =     0.00000000    0.00000000    0.00000000
     atom   38 type  1   force =     0.00000000    0.00000000    0.00000000
     atom   39 type  1   force =     0.00000000    0.00000000    0.00000000
     atom   40 type  1   force =     0.00000000    0.00000000    0.00000000
     atom   41 type  1   force =     0.00000000    0.00000000    0.00000000
     atom   42 type  1   force =     0.00000000    0.00000000    0.00000000
     atom   43 type  1   force =     0.00000000    0.00000000    0.00000000
     atom   44 type  1   force =     0.00000000    0.00000000    0.00000000
     atom   45 type  1   force =     0.00000000    0.00000000    0.00000000
     atom   46 type  1   force =     0.00000000    0.00000000    0.00000000
     atom   47 type  1   force =     0.00000000    0.00000000    0.00000000
     atom   48 type  1   force =     0.00000000    0.00000000    0.00000000
     atom   49 type  1   force =     0.00000000    0.00000000    0.00000000
     atom   50 type  1   force =     0.00000000    0.00000000    0.00000000
     atom   51 type  1   force =     0.00000000    0.00000000    0.00000000
     atom   52 type  1   force =     0.00000000    0.00000000    0.00000000
     atom   53 type  1   force =     0.00000000    0.00000000    0.00000000
     atom   54 type  1   force =     0.00000000    0.00000000    0.00000000
     atom   55 type  1   force =     0.00000000    0.00000000    0.00000000
     atom   56 type  1   force =     0.00000000    0.00000000    0.00000000
     atom   57 type  1   force =     0.00000000    0.00000000    0.00000000
     atom   58 type  1   force =     0.00000000    0.00000000    0.00000000
     atom   59 type  1   force =     0.00000000    0.00000000    0.00000000
     atom   60 type  1   force =     0.00000000    0.00000000    0.00000000
     atom   61 type  1   force =     0.00000000    0.00000000    0.00000000
     atom   62 type  1   force =     0.00000000    0.00000000    0.00000000
     atom   63 type  1   force =     0.00000000    0.00000000    0.00000000
     The SCF correction term to forces
     atom    1 type  1   force =    -0.00005756    0.00005756    0.00005958
     atom    2 type  1   force =    -0.00005756   -0.00005958   -0.00005756
     atom    3 type  1   force =    -0.00006689   -0.00005967    0.00005967
     atom    4 type  1   force =     0.00005958    0.00005756   -0.00005756
     atom    5 type  1   force =     0.00005967    0.00006689    0.00005967
     atom    6 type  1   force =     0.00005967   -0.00005967   -0.00006689
     atom    7 type  1   force =     0.00006427   -0.00006427    0.00006427
     atom    8 type  1   force =    -0.00006562   -0.00006780   -0.00002528
     atom    9 type  1   force =    -0.00006507   -0.00006224    0.00002503
     atom   10 type  1   force =    -0.00006053    0.00006053   -0.00001661
     atom   11 type  1   force =    -0.00006340    0.00006340    0.00001871
     atom   12 type  1   force =     0.00006848   -0.00006848   -0.00001629
     atom   13 type  1   force =     0.00006964   -0.00006964    0.00001665
     atom   14 type  1   force =     0.00006780    0.00006562   -0.00002528
     atom   15 type  1   force =     0.00006224    0.00006507    0.00002503
     atom   16 type  1   force =    -0.00008974   -0.00005671    0.00005671
     atom   17 type  1   force =    -0.00007006   -0.00002565   -0.00002876
     atom   18 type  1   force =    -0.00007006    0.00002876    0.00002565
     atom   19 type  1   force =    -0.00005239    0.00002589   -0.00002589
     atom   20 type  1   force =     0.00005834   -0.00002910    0.00002910
     atom   21 type  1   force =     0.00006425   -0.00003419   -0.00002745
     atom   22 type  1   force =     0.00006425    0.00002745    0.00003419
     atom   23 type  1   force =     0.00005673    0.00003545   -0.00003545
     atom   24 type  1   force =    -0.00006053    0.00001661   -0.00006053
     atom   25 type  1   force =    -0.00006562    0.00002528    0.00006780
     atom   26 type  1   force =    -0.00006340   -0.00001871   -0.00006340
     atom   27 type  1   force =    -0.00006507   -0.00002503    0.00006224
     atom   28 type  1   force =     0.00006780    0.00002528   -0.00006562
     atom   29 type  1   force =     0.00006848    0.00001629    0.00006848
     atom   30 type  1   force =     0.00006224   -0.00002503   -0.00006507
     atom   31 type  1   force =     0.00006964   -0.00001665    0.00006964
     atom   32 type  1   force =     0.00005671    0.00008974    0.00005671
     atom   33 type  1   force =     0.00002565    0.00007006   -0.00002876
     atom   34 type  1   force =     0.00002910   -0.00005834    0.00002910
     atom   35 type  1   force =     0.00003419   -0.00006425   -0.00002745
     atom   36 type  1   force =    -0.00002876    0.00007006    0.00002565
     atom   37 type  1   force =    -0.00002589    0.00005239   -0.00002589
     atom   38 type  1   force =    -0.00002745   -0.00006425    0.00003419
     atom   39 type  1   force =    -0.00003545   -0.00005673   -0.00003545
     atom   40 type  1   force =    -0.00002528   -0.00006780   -0.00006562
     atom   41 type  1   force =    -0.00001629   -0.00006848    0.00006848
     atom   42 type  1   force =    -0.00001661    0.00006053   -0.00006053
     atom   43 type  1   force =    -0.00002528    0.00006562    0.00006780
     atom   44 type  1   force =     0.00002503   -0.00006224   -0.00006507
     atom   45 type  1   force =     0.00001665   -0.00006964    0.00006964
     atom   46 type  1   force =     0.00001871    0.00006340   -0.00006340
     atom   47 type  1   force =     0.00002503    0.00006507    0.00006224
     atom   48 type  1   force =     0.00005671   -0.00005671   -0.00008974
     atom   49 type  1   force =     0.00002910   -0.00002910    0.00005834
     atom   50 type  1   force =     0.00002565    0.00002876   -0.00007006
     atom   51 type  1   force =     0.00003419    0.00002745    0.00006425
     atom   52 type  1   force =    -0.00002876   -0.00002565   -0.00007006
     atom   53 type  1   force =    -0.00002745   -0.00003419    0.00006425
     atom   54 type  1   force =    -0.00002589    0.00002589   -0.00005239
     atom   55 type  1   force =    -0.00003545    0.00003545    0.00005673
     atom   56 type  1   force =    -0.00000245    0.00000245   -0.00000245
     atom   57 type  1   force =    -0.00002328    0.00002328    0.00002013
     atom   58 type  1   force =    -0.00002328   -0.00002013   -0.00002328
     atom   59 type  1   force =    -0.00001984   -0.00002415    0.00002415
     atom   60 type  1   force =     0.00002013    0.00002328   -0.00002328
     atom   61 type  1   force =     0.00002415    0.00001984    0.00002415
     atom   62 type  1   force =     0.00002415   -0.00002415   -0.00001984
     atom   63 type  1   force =     0.00001673   -0.00001673    0.00001673

     Total force =     0.002427     Total SCF correction =     0.000683
     SCF correction compared to forces is large: reduce conv_thr to get better values


     Computing stress (Cartesian axis) and pressure



     -----------------------------------------------
     Non-local corr. energy    =       2.16608072 Ry
     -----------------------------------------------

          total   stress  (Ry/bohr**3)                   (kbar)     P=        6.20
   0.00004213   0.00000010  -0.00000010            6.20        0.01       -0.01
   0.00000010   0.00004213   0.00000010            0.01        6.20        0.01
  -0.00000010   0.00000010   0.00004213           -0.01        0.01        6.20

     kinetic stress (kbar)  18661.22      0.04     -0.04
                                0.04  18661.22      0.04
                               -0.04      0.04  18661.22

     local   stress (kbar)  -3795.67      0.42     -0.42
                                0.42  -3795.67      0.42
                               -0.42      0.42  -3795.67

     nonloc. stress (kbar)   4280.59     -0.00      0.00
                               -0.00   4280.59     -0.00
                                0.00     -0.00   4280.59

     hartree stress (kbar)   1380.91     -0.13      0.13
                               -0.13   1380.91     -0.13
                                0.13     -0.13   1380.91

     exc-cor stress (kbar)   -400.33      0.00     -0.00
                                0.00   -400.33      0.00
                               -0.00      0.00   -400.33

     corecor stress (kbar)  -4365.09     -0.00      0.00
                               -0.00  -4365.09     -0.00
                                0.00     -0.00  -4365.09

     ewald   stress (kbar) -15780.17     -0.31      0.31
                               -0.31 -15780.17     -0.31
                                0.31     -0.31 -15780.17

     hubbard stress (kbar)      0.00      0.00      0.00
                                0.00      0.00      0.00
                                0.00      0.00      0.00

     DFT-D   stress (kbar)      0.00      0.00      0.00
                                0.00      0.00      0.00
                                0.00      0.00      0.00

     XDM     stress (kbar)      0.00      0.00      0.00
                                0.00      0.00      0.00
                                0.00      0.00      0.00

     dft-nl  stress (kbar)     24.74      0.00     -0.00
                                0.00     24.74      0.00
                               -0.00      0.00     24.74

     TS-vdW  stress (kbar)      0.00      0.00      0.00
                                0.00      0.00      0.00
                                0.00      0.00      0.00

     MDB     stress (kbar)      0.00      0.00      0.00
                                0.00      0.00      0.00
                                0.00      0.00      0.00

     3D-RISM stress (kbar)      0.00      0.00      0.00
                                0.00      0.00      0.00
                                0.00      0.00      0.00



     -----------------------------------------------
     Non-local corr. energy    =       2.16608072 Ry
     -----------------------------------------------



     -----------------------------------------------
     Non-local corr. energy    =       2.16608072 Ry
     -----------------------------------------------



     -----------------------------------------------
     Non-local corr. energy    =       2.16608072 Ry
     -----------------------------------------------



     -----------------------------------------------
     Non-local corr. energy    =       2.16608072 Ry
     -----------------------------------------------



     -----------------------------------------------
     Non-local corr. energy    =       2.16608072 Ry
     -----------------------------------------------



     -----------------------------------------------
     Non-local corr. energy    =       2.16608072 Ry
     -----------------------------------------------



     -----------------------------------------------
     Non-local corr. energy    =       2.16608072 Ry
     -----------------------------------------------



     -----------------------------------------------
     Non-local corr. energy    =       2.16608072 Ry
     -----------------------------------------------



     -----------------------------------------------
     Non-local corr. energy    =       2.16608072 Ry
     -----------------------------------------------



     -----------------------------------------------
     Non-local corr. energy    =       2.16608072 Ry
     -----------------------------------------------



     -----------------------------------------------
     Non-local corr. energy    =       2.16608072 Ry
     -----------------------------------------------



     -----------------------------------------------
     Non-local corr. energy    =       2.16608072 Ry
     -----------------------------------------------



     -----------------------------------------------
     Non-local corr. energy    =       2.16608072 Ry
     -----------------------------------------------



     -----------------------------------------------
     Non-local corr. energy    =       2.16608072 Ry
     -----------------------------------------------



     -----------------------------------------------
     Non-local corr. energy    =       2.16608072 Ry
     -----------------------------------------------



     -----------------------------------------------
     Non-local corr. energy    =       2.16608072 Ry
     -----------------------------------------------



     -----------------------------------------------
     Non-local corr. energy    =       2.16608072 Ry
     -----------------------------------------------



     -----------------------------------------------
     Non-local corr. energy    =       2.16608072 Ry
     -----------------------------------------------



     -----------------------------------------------
     Non-local corr. energy    =       2.16608072 Ry
     -----------------------------------------------



     -----------------------------------------------
     Non-local corr. energy    =       2.16608072 Ry
     -----------------------------------------------



     -----------------------------------------------
     Non-local corr. energy    =       2.16608072 Ry
     -----------------------------------------------



     -----------------------------------------------
     Non-local corr. energy    =       2.16608072 Ry
     -----------------------------------------------



     -----------------------------------------------
     Non-local corr. energy    =       2.16608072 Ry
     -----------------------------------------------



     -----------------------------------------------
     Non-local corr. energy    =       2.16608072 Ry
     -----------------------------------------------



     -----------------------------------------------
     Non-local corr. energy    =       2.16608072 Ry
     -----------------------------------------------



     -----------------------------------------------
     Non-local corr. energy    =       2.16608072 Ry
     -----------------------------------------------



     -----------------------------------------------
     Non-local corr. energy    =       2.16608072 Ry
     -----------------------------------------------



     -----------------------------------------------
     Non-local corr. energy    =       2.16608072 Ry
     -----------------------------------------------



     -----------------------------------------------
     Non-local corr. energy    =       2.16608072 Ry
     -----------------------------------------------



     -----------------------------------------------
     Non-local corr. energy    =       2.16608072 Ry
     -----------------------------------------------



     -----------------------------------------------
     Non-local corr. energy    =       2.16608072 Ry
     -----------------------------------------------



     -----------------------------------------------
     Non-local corr. energy    =       2.16608072 Ry
     -----------------------------------------------



     -----------------------------------------------
     Non-local corr. energy    =       2.16608072 Ry
     -----------------------------------------------



     -----------------------------------------------
[...]
             -0.829068733399622E+01
              0.182636811626136E+02
              0.474957737790699E+01
             -0.284729575129107E+02
              0.110660842435070E+02
              0.209765854013096E+01
              0.320150184786581E+01
             -0.167920334646832E+02
              0.265260726907138E+01
              0.121304063523327E+02
              0.161013551404866E+02
              0.226280943055172E+02
              0.112831066585585E+02
              0.320112214365081E+01
             -0.188155821868202E+02
             -0.148149004304721E+02
             -0.232307816403397E+02
             -0.431382512692389E+01
              0.111339970888399E+02
              0.704504447149574E+00
              0.182004291376700E+02
             -0.111104756814221E+02
              0.679350363131755E+01
             -0.676763239143631E+01
             -0.915359525708732E+01
              0.202527448998647E+02
              0.191074731639478E+01
              0.216249506955721E+02
              0.161337050709713E+01
              0.696211405262578E+01
             -0.629019818164514E+01
              0.213936555947973E+02
             -0.491443122949801E+01
             -0.551615697608487E+00
             -0.272755612783669E+02
             -0.251133104224279E+01
              0.243577716073745E+02
              0.224159717950717E+02
              0.918785384349713E+01
             -0.645741659428283E+01
              0.156501977215000E+01
             -0.795790546402263E+01
             -0.627647385215917E+01
              0.314705858251011E+02
              0.238976362590040E+01
             -0.100529387797958E+02
             -0.375322111157854E+02
             -0.156973198824034E+02
             -0.129728975745173E+02
             -0.222503085247823E+02
             -0.199304330354127E+02
             -0.244163597363885E+02
             -0.153879138127036E+02
             -0.101890229989580E+02
             -0.172444069708963E+02
              0.152400051065020E+02
             -0.659791892502724E+01
             -0.303898412123100E+02
              0.138379964296411E+02
             -0.107612593188834E+02
             -0.282669422494735E+02
              0.348145403199104E+02
             -0.866098458084116E+01
              0.568889333829803E+01
              0.131447081522428E+02
              0.324465795636054E+01
              0.921966033076842E+01
              0.636387597806170E+00
              0.590599066765921E+00
             -0.382498294937097E+01
             -0.248790962003357E+02
              0.368584903844449E+01
             -0.420707875839964E+02
              0.243389384674183E+02
             -0.140975306660997E+02
             -0.708786950189405E+01
             -0.789432877341011E+01
              0.651947422293999E+01
             -0.551539460640001E+01
              0.102942931058042E+02
             -0.207668604963216E+02
              0.121180091459822E+02
              0.138233460494237E+02
              0.369470570411248E+01
              0.242177647040609E+01
              0.744070736070537E+01
              0.363425190794172E+01
              0.103403886157542E+02
             -0.120196465935469E+01
             -0.252180827144706E+02
              0.307995348597262E+01
             -0.108628095932154E+02
             -0.101222299658068E+01
              0.187667773614868E+02
             -0.273037311920157E+02
             -0.316635235267739E+00
              0.125240942431049E+01
              0.324844110788953E+01
              0.109345736507105E+02
             -0.397386098752973E+01
              0.297668478530913E+02
              0.135627004601099E+02
             -0.569185812275044E+01
             -0.354718512732971E+01
              0.203788083276680E+01
              0.274888777045647E+02
             -0.181240784216178E+02
             -0.353545570692702E+02
              0.955090408194278E+01
             -0.310182449105760E+01
             -0.438864363734972E+01
              0.682577183174369E+01
              0.266247550707326E+02
              0.147707688548398E+02
             -0.574557129222974E+01
             -0.185793712617667E+02
             -0.410936371122179E+01
              0.975426906271001E+01
             -0.590592245274146E+01
             -0.265973858312552E+02
             -0.275073019000632E+01
             -0.338774502175194E+02
             -0.185665710565069E+02
              0.296651790071564E+02
             -0.178670145210715E+02
             -0.245784540117707E+02
             -0.176331451983596E+02
             -0.136361854080400E+02
              0.109787029661804E+02
              0.296916427342035E+02
             -0.265625711309590E+01
              0.937632105271906E+01
             -0.709325574582904E+01
             -0.242230884415021E+02
              0.167985203034844E+02
             -0.165875572221478E+02
              0.882680490222373E+01
              0.108906914551185E+02
             -0.519774482883513E+01
              0.132654972899101E+02
              0.139336308341347E+02
              0.411167225206727E+02
             -0.359320075477876E+01
             -0.192132670774322E+02
             -0.231385536940232E+02
             -0.719641873277971E+01
             -0.134096904430210E+02
              0.322860325493301E+02
             -0.145565646530139E+02
              0.422508649251322E+01
              0.131245447434776E+01
             -0.708698496958487E+01
             -0.294824487008768E+02
             -0.191641680674257E+01
              0.347488536741062E+02
              0.736944003341318E+01
              0.277105961063663E+01
             -0.205848442468039E+02
             -0.201278964042947E+02
             -0.617362379508076E+01
              0.161336935212460E+02
             -0.876648547565306E+01
              0.356458134221812E+02
             -0.155454275970064E+02
              0.704515144378334E+01
             -0.527964088797913E+01
             -0.220158782591728E+02
              0.232761527565273E+01
             -0.193713573386524E+02
             -0.262018549717781E+02
              0.384806144252931E+01
              0.100667550618453E+01
              0.174164337511804E+02
              0.931940361824226E+01
             -0.116206245341483E+02
              0.757834064487855E+01
             -0.304290915000536E+02
             -0.171196278898124E+02
              0.320920595290251E+02
              0.267004049211013E+01
             -0.216975658811413E+01
             -0.935197603376928E+01
             -0.252461498629373E+00
             -0.425404671111880E+01
              0.305153902125309E+02
              0.137115285415431E+02
             -0.361714612234019E+01
             -0.330471650101259E+00
             -0.134974794184432E+02
             -0.518937340764637E+01
             -0.222967472863013E+02
              0.169439193974241E+02
              0.184175753473355E+01
              0.277027742044132E+01
              0.664572094270828E+01
             -0.415892769397709E+01
             -0.760809216761149E+01
              0.270032055068414E+01
             -0.389105523825599E+02
             -0.373088615542854E+01
             -0.281199572649085E+01
             -0.227964150447747E+01
              0.179951339335873E+02
              0.222460484412012E+02
              0.639801624335800E+01
             -0.328446884047149E+02
              0.227159907547068E+02
             -0.820907818872936E+01
             -0.132804025735306E+02
             -0.308194871276011E+02
             -0.947788339187962E+01
              0.217502705690876E+02
              0.102687560577527E+02
              0.426748471114314E+01
              0.121832073536690E+02
             -0.196284683389568E+02
             -0.173222631956191E+02
              0.207773764448844E+02
              0.146379588157429E+02
              0.169561824320283E+02
              0.204533406270973E+01
              0.295364871238090E+01
              0.187922327289752E+02
              0.345392387454321E+02
             -0.666676705423608E+01
              0.136327741527014E+02
             -0.932733288907215E+01
             -0.150601632414005E+02
             -0.116660303091594E+02
             -0.113910731897719E+02
             -0.506791757123906E+01
             -0.175991102694911E+02
             -0.684160124897397E+01
             -0.456495594078918E+02
              0.101864133401037E+02
              0.988671184909267E+01
             -0.126394834666069E+01
             -0.133526313715882E+02
             -0.700078187258691E+01
             -0.197243690986891E+02
              0.160539280200558E+01
              0.277347644218652E+02
             -0.685511560360624E+01
             -0.628261983135675E+01
              0.735864230759287E+01
             -0.168853154429352E+02
              0.298170970458851E+02
              0.531583298351802E+01
              0.318975433074371E+01
              0.185091173463974E+02
             -0.115185921230733E+01
              0.207768017928113E+02
              0.683634919589166E+01
             -0.693624761735926E+00
              0.484301957678089E+01
             -0.197516106834601E+01
              0.236286307737954E+02
              0.200605592662569E+01
              0.679639703536103E+01
             -0.275641734588379E+01
              0.357792445721404E+01
             -0.330102146142927E+02
             -0.121919630076912E+02
             -0.174161492873874E+02
              0.177687779302102E+02
             -0.120559254890348E+02
             -0.199333174141215E+02
              0.210692492008727E+02
             -0.478286998047856E+01
              0.142801890046996E+02
             -0.315484727750979E+02
              0.595571052344681E+01
              0.217285969209269E+01
              0.250137396391318E+01
             -0.468945957091228E+01
             -0.247943984089125E+01
              0.171376847625747E+02
              0.987178528391226E+00
             -0.187649745337894E+02
             -0.678492906532706E+01
              0.738424821891423E+01
             -0.395820939711486E+02
             -0.304896307708587E+02
              0.352848241285983E+00
              0.578323410815031E+01
             -0.166860883102440E+02
              0.441988723236776E+00
              0.362988333119380E+02
              0.109933916531438E+02
             -0.186471366243523E+02
              0.318560195765879E+01
             -0.431269901013012E+01
              0.364682756559383E+01
             -0.121697896157135E+02
              0.769244181718877E+01
              0.854556778746996E+01
             -0.360597843231366E+01
              0.396639491438418E+02
             -0.115736386351129E+01
             -0.110455603219131E+02
              0.107739974646388E+02
              0.148691032782476E+02
             -0.108589897750911E+02
             -0.772818439302561E+00
              0.336719702138356E+02
             -0.709346308042768E+00
              0.190401814415770E+02
              0.545042723953010E+01
             -0.296609014866940E+01
             -0.624216630885775E+01
              0.176947463965694E+02
             -0.211285581927547E+02
             -0.367534415819776E+00
             -0.700784430589481E+01
             -0.138221820626557E+02
              0.402379253451870E+01
              0.808282846181895E+01
             -0.868793607856730E-01
             -0.275264673419173E+00
             -0.149297158547844E+02
              0.639657364885606E+01
             -0.354053599916540E+00
             -0.840097002973608E+01
             -0.717952535077227E+01
              0.631592434246318E+01
              0.639175334774507E+00
             -0.133562456128254E+02
             -0.371928196533552E+02
              0.278932796899138E+01
              0.521044495035667E+01
             -0.170194163927723E+02
             -0.844246650696726E+01
              0.285106645469643E+02
              0.426008442983247E+01
              0.154202517950731E+02
              0.389083466781841E+01
              0.143251001578617E+02
              0.654524762343101E+00
             -0.140247435960634E+02
             -0.356312231411977E+01
              0.199350845475701E+01
              0.111485307774914E+02
              0.267477827268229E+02
              0.176013655340031E+02
              0.112103194377961E+01
              0.348179879637094E+01
              0.209711791833143E+02
              0.100311929580073E+02
             -0.243833867738876E+02
             -0.963723140837382E+01
              0.327162912674274E+01
              0.362826551250438E+01
              0.938755103447592E+01
             -0.180471044600458E+02
              0.246795001045250E+01
              0.141036653612081E+02
              0.175282667234494E+02
             -0.154686257851741E+02
              0.927356607383103E+00
             -0.113892846903016E+01
             -0.741997131734658E+01
             -0.100874745543620E+02
             -0.458766017725848E+01
             -0.383761009607607E+01
              0.374389523126095E+01
              0.146796961730425E+02
             -0.123368604042930E+02
              0.280365599256353E+02
              0.124271706366903E+02
              0.875068723558570E+01
              0.119596737446594E+02
              0.895962386208451E+01
              0.118445901679200E+02
              0.195451616852434E+02
             -0.163176719096668E+02
              0.216771511762719E+02
             -0.393640902690193E+02
              0.112132891240124E+02
             -0.371782643604519E+02
              0.290395913661786E+02
              0.270096407768834E+02
             -0.327359347354985E+01
             -0.166587279130033E+02
             -0.146223783829825E+02
             -0.190906333212071E+02
             -0.227730673331880E+02
              0.190517428037501E+02
              0.150744308549303E+02
              0.898997140868832E+01
              0.928316407243338E+01
              0.161222484378056E+02
             -0.143226508122422E+02
             -0.556634087168391E+01
              0.179795897100731E+02
             -0.354456752529094E+01
              0.170509902865907E+02
              0.269968379683299E+02
             -0.101952930000966E+01
             -0.261879964201669E+02
              0.762996293946912E+00
              0.339321680863456E+00
             -0.391694715381655E+01
              0.171283212699453E+01
             -0.224635486513419E+02
             -0.375016111075814E+01
              0.399585431012802E+01
              0.430441857631571E+01
              0.175577808903080E+02
             -0.152295991643250E+02
              0.182917097428164E+02
             -0.136010988116868E+02
              0.911609785988749E+01
              0.150730231081679E+02
 
 BEEF-vdW xc energy contributions
            1 :    -257.5274044946541     
            2 :     227.1040210673568     
            3 :    -174.6630628461529     
            4 :     113.8378712738121     
            5 :    -58.53482590209603     
            6 :     18.33091861857378     
            7 :     3.928789244102404     
            8 :    -11.59744024175575     
            9 :     11.38453818965047     
           10 :    -9.781156465178015     
           11 :     10.43772833700797     
           12 :    -13.48252167613225     
           13 :     16.69285362133763     
           14 :    -17.55335595582960     
           15 :     14.97042506197926     
           16 :    -9.811984340547497     
           17 :     4.207861260161792     
           18 :   -0.2242054321656042     
           19 :    -1.233922503922827     
           20 :    0.7024898693014734     
           21 :    0.4151081310191103     
           22 :   -0.8182632457766772     
           23 :    5.6459280083458907E-002
           24 :     1.349192198713638     
           25 :    -2.391208211326330     
           26 :     2.293025005784273     
           27 :   -0.9941846485882024     
           28 :   -0.8630182113203091     
           29 :     2.378303883335207     
           30 :    -2.948150313608949     
           31 :    -33.71585413856303     
           32 :    -24.43759775275214     

     Writing all to output data dir ./diamond.save/
 
     init_run     :      0.83s CPU      1.11s WALL (       1 calls)
     electrons    :      4.28s CPU      5.21s WALL (       1 calls)
     forces       :      0.31s CPU      0.33s WALL (       1 calls)
     stress       :      2.12s CPU      2.15s WALL (       1 calls)

     Called by init_run:
     wfcinit      :      0.13s CPU      0.33s WALL (       1 calls)
     potinit      :      0.45s CPU      0.50s WALL (       1 calls)
     hinit0       :      0.11s CPU      0.13s WALL (       1 calls)

     Called by electrons:
     c_bands      :      3.74s CPU      4.60s WALL (       2 calls)
     sum_band     :      0.19s CPU      0.19s WALL (       2 calls)
     v_of_rho     :      0.52s CPU      0.55s WALL (       2 calls)
     v_h          :      0.00s CPU      0.00s WALL (       2 calls)
     v_xc         :      4.60s CPU      4.72s WALL (      38 calls)
     newd         :      0.01s CPU      0.02s WALL (       2 calls)
     PAW_pot      :      0.09s CPU      0.09s WALL (       2 calls)
     mix_rho      :      0.00s CPU      0.00s WALL (       2 calls)
     vdW_kernel   :      0.26s CPU      0.26s WALL (       1 calls)

     Called by c_bands:
     init_us_2    :      0.01s CPU      0.02s WALL (       4 calls)
     init_us_2:cp :      0.01s CPU      0.02s WALL (       4 calls)
     cegterg      :      3.49s CPU      3.56s WALL (       2 calls)

     Called by sum_band:
     sum_band:wei :      0.00s CPU      0.00s WALL (       2 calls)
     sum_band:loo :      0.15s CPU      0.15s WALL (       2 calls)
     sum_band:buf :      0.00s CPU      0.00s WALL (       2 calls)
     sum_band:ini :      0.01s CPU      0.01s WALL (       2 calls)
     sum_band:cal :      0.05s CPU      0.05s WALL (       2 calls)
     sum_band:bec :      0.00s CPU      0.00s WALL (       2 calls)
     addusdens    :      0.01s CPU      0.01s WALL (       2 calls)
                                        0.00s GPU  (       2 calls)
     addusd:skk   :      0.00s CPU      0.00s WALL (       2 calls)
                                        0.00s GPU  (       2 calls)

     Called by *egterg:
     cdiaghg      :      2.02s CPU      2.04s WALL (      21 calls)
     cegterg:over :      0.19s CPU      0.19s WALL (      21 calls)
     cegterg:upda :      0.18s CPU      0.19s WALL (      21 calls)
     cegterg:last :      0.03s CPU      0.03s WALL (       2 calls)
     h_psi        :      0.83s CPU      0.86s WALL (      23 calls)
     s_psi        :      0.14s CPU      0.14s WALL (      23 calls)
     g_psi        :      0.00s CPU      0.00s WALL (      21 calls)

     Called by h_psi:
     h_psi:calbec :      0.21s CPU      0.22s WALL (      23 calls)
     vloc_psi     :      0.42s CPU      0.43s WALL (      23 calls)
     add_vuspsi   :      0.19s CPU      0.20s WALL (      23 calls)

     General routines
     calbec       :      0.39s CPU      0.39s WALL (      30 calls)
     fft          :      1.86s CPU      1.91s WALL (    2232 calls)
     ffts         :      0.00s CPU      0.00s WALL (       4 calls)
     fftw         :      0.46s CPU      0.47s WALL (    1810 calls)
     interpolate  :      0.00s CPU      0.00s WALL (       2 calls)
 
     Parallel routines

     PAW routines
     PAW_pot      :      0.09s CPU      0.09s WALL (       2 calls)
     PAW_symme    :      0.00s CPU      0.00s WALL (       3 calls)
 
     PWSCF        :     11.67s CPU     14.65s WALL

 
   This run was terminated on:  16:22:42  19Feb2024            

=------------------------------------------------------------------------------=
   JOB DONE.
=------------------------------------------------------------------------------=
