
     Program PWSCF v.7.1 starts on 18Feb2024 at 11:57:15 

     This program is part of the open-source Quantum ESPRESSO suite
     for quantum simulation of materials; please cite
         "P. Giannozzi et al., J. Phys.:Condens. Matter 21 395502 (2009);
         "P. Giannozzi et al., J. Phys.:Condens. Matter 29 465901 (2017);
         "P. Giannozzi et al., J. Chem. Phys. 152 154105 (2020);
          URL http://www.quantum-espresso.org", 
     in publications or presentations arising from this work. More details at
     http://www.quantum-espresso.org/quote

     Parallel version (MPI & OpenMP), running on     128 processor cores
     Number of MPI processes:               128
     Threads/MPI process:                     1

     MPI processes distributed on     1 nodes
     1908828 MiB available memory on the printing compute node when the environment starts
 
     Reading input from espresso.pwi
Warning: card &CELL ignored
Warning: card    CELL_DYNAMICS    = 'BFGS' ignored
Warning: card / ignored

     Current dimensions of program PWSCF are:
     Max number of different atomic species (ntypx) = 10
     Max number of k-points (npk) =  40000
     Max angular momentum in pseudopotentials (lmaxx) =  4
     file Pb.pbe-dn-kjpaw_psl.1.0.0.UPF: wavefunction(s)  6S 6P 5D renormalized
     file I.pbe-dn-kjpaw_psl.1.0.0.UPF: wavefunction(s)  5S 5P renormalized

     **************************************************************************
     Initializing libbeef V0.1.2 with the BEEF-vdW functional.
     Citation: Wellendorff et al., PRB 85, 235149 (2012).
     **************************************************************************


     IMPORTANT: XC functional enforced from input :
     Exchange-correlation= BEEF-VDW
                           (   1   4  43  14   2   0   0)
     Any further DFT definition will be discarded
     Please, verify this is what you really want

 
     R & G space division:  proc/nbgrp/npool/nimage =     128
     Subspace diagonalization in iterative solution of the eigenvalue problem:
     a serial algorithm will be used

 
     Parallelization info
     --------------------
     sticks:   dense  smooth     PW     G-vecs:    dense   smooth      PW
     Min         238     190     47                26444    18918    2361
     Max         239     191     48                26451    18927    2368
     Sum       30577   24439   6121              3385235  2422379  302703
 
     Using Slab Decomposition
 


     bravais-lattice index     =            4
     lattice parameter (alat)  =      35.6073  a.u.
     unit-cell volume          =   30614.2220 (a.u.)^3
     number of atoms/cell      =           96
     number of atomic types    =            2
     number of electrons       =      1538.00
     number of Kohn-Sham states=          923
     kinetic-energy cutoff     =      70.0000  Ry
     charge density cutoff     =     350.0000  Ry
     scf convergence threshold =      1.0E-07
     mixing beta               =       0.7000
     number of iterations used =            8  plain     mixing
     Exchange-correlation= BEEF-VDW
                           (   1   4  43  14   2   0   0)

     celldm(1)=  35.607290  celldm(2)=   0.000000  celldm(3)=   0.783025
     celldm(4)=   0.000000  celldm(5)=   0.000000  celldm(6)=   0.000000

     crystal axes: (cart. coord. in units of alat)
               a(1) = (   1.000000   0.000000   0.000000 )  
               a(2) = (  -0.500000   0.866025   0.000000 )  
               a(3) = (   0.000000   0.000000   0.783025 )  

     reciprocal axes: (cart. coord. in units 2 pi/alat)
               b(1) = (  1.000000  0.577350 -0.000000 )  
               b(2) = (  0.000000  1.154701  0.000000 )  
               b(3) = (  0.000000 -0.000000  1.277098 )  


     PseudoPot. # 1 for Pb read from file:
     /trace/group/acmegroup/atimmins/packages/espresso/pseudo/psl_1.0.0/pslibrary.1.0.0/pbe/PSEUDOPOTENTIALS/Pb.pbe-dn-kjpaw_psl.1.0.0.UPF
     MD5 check sum: 39ab5b8a6bbd56b7735ad9f188aac93a
     Pseudo is Projector augmented-wave + core cor, Zval = 14.0
     Generated using 'atomic' code by A. Dal Corso  v.7.1
     Shape of augmentation charge: PSQ
     Using radial grid of 1281 points,  6 beta functions with: 
                l(1) =   0
                l(2) =   0
                l(3) =   1
                l(4) =   1
                l(5) =   2
                l(6) =   2
     Q(r) pseudized with 0 coefficients 


     PseudoPot. # 2 for I  read from file:
     /trace/group/acmegroup/atimmins/packages/espresso/pseudo/psl_1.0.0/pslibrary.1.0.0/pbe/PSEUDOPOTENTIALS/I.pbe-dn-kjpaw_psl.1.0.0.UPF
     MD5 check sum: bfa8781bc1224d19af3f3980e3fab11e
     Pseudo is Projector augmented-wave + core cor, Zval = 17.0
     Generated using 'atomic' code by A. Dal Corso  v.7.1
     Shape of augmentation charge: PSQ
     Using radial grid of 1247 points,  6 beta functions with: 
                l(1) =   0
                l(2) =   0
                l(3) =   1
                l(4) =   1
                l(5) =   2
                l(6) =   2
     Q(r) pseudized with 0 coefficients 


     atomic species   valence    mass     pseudopotential
        Pb            14.00   207.20000     Pb( 1.00)
        I             17.00   126.90447     I ( 1.00)

     No symmetry found


                                    s                        frac. trans.

      isym =  1     identity                                     

 cryst.   s( 1) = (     1          0          0      )
                  (     0          1          0      )
                  (     0          0          1      )

 cart.    s( 1) = (  1.0000000  0.0000000  0.0000000 )
                  (  0.0000000  1.0000000  0.0000000 )
                  (  0.0000000  0.0000000  1.0000000 )


     point group C_1 (1)    
     there are  1 classes
     the character table:

       E    
A      1.00

     the symmetry operations in each class and the name of the first element:

     E        1
          identity                                               

   Cartesian axes

     site n.     atom                  positions (alat units)
         1           Pb  tau(   1) = (   0.1250034   0.2164916   0.3915076  )
         2           Pb  tau(   2) = (   0.0000077   0.4329922   0.7830161  )
         3           Pb  tau(   3) = (   0.0000025   0.4329968   0.3915034  )
         4           Pb  tau(   4) = (  -0.1249932   0.6494975   0.7830119  )
         5           Pb  tau(   5) = (  -0.1249984   0.6495021   0.3914992  )
         6           Pb  tau(   6) = (  -0.2499941   0.8660028   0.7830077  )
         7           Pb  tau(   7) = (  -0.2499993   0.8660074   0.3914950  )
         8           Pb  tau(   8) = (   0.3750086   0.2164859   0.7830237  )
         9           Pb  tau(   9) = (   0.3750034   0.2164905   0.3915110  )
        10           Pb  tau(  10) = (   0.2500077   0.4329912   0.7830194  )
        11           Pb  tau(  11) = (   0.2500025   0.4329958   0.3915068  )
        12           Pb  tau(  12) = (   0.1250068   0.6494965   0.7830152  )
        13           Pb  tau(  13) = (   0.1250016   0.6495011   0.3915026  )
        14           Pb  tau(  14) = (   0.0000059   0.8660017   0.7830110  )
        15           Pb  tau(  15) = (   0.0000007   0.8660063   0.3914983  )
        16           Pb  tau(  16) = (   0.6250086   0.2164849   0.7830270  )
        17           Pb  tau(  17) = (   0.6250034   0.2164895   0.3915143  )
        18           Pb  tau(  18) = (   0.5000077   0.4329901   0.7830228  )
        19           Pb  tau(  19) = (   0.5000025   0.4329947   0.3915101  )
        20           Pb  tau(  20) = (   0.3750068   0.6494954   0.7830186  )
        21           Pb  tau(  21) = (   0.3750016   0.6495000   0.3915059  )
        22           Pb  tau(  22) = (   0.2500059   0.8660007   0.7830144  )
        23           Pb  tau(  23) = (   0.2500007   0.8660053   0.3915017  )
        24           Pb  tau(  24) = (   0.8750086   0.2164838   0.7830303  )
        25           Pb  tau(  25) = (   0.8750034   0.2164884   0.3915177  )
        26           Pb  tau(  26) = (   0.7500077   0.4329891   0.7830261  )
        27           Pb  tau(  27) = (   0.7500025   0.4329937   0.3915135  )
        28           Pb  tau(  28) = (   0.6250068   0.6494944   0.7830219  )
        29           Pb  tau(  29) = (   0.6250016   0.6494990   0.3915092  )
        30           Pb  tau(  30) = (   0.5000059   0.8659996   0.7830177  )
        31           Pb  tau(  31) = (   0.5000007   0.8660042   0.3915050  )
        32           I   tau(  32) = (   0.1250056   0.0721546   0.2909163  )
        33           I   tau(  33) = (   0.1250108   0.0721500   0.6824290  )
        34           I   tau(  34) = (   0.0000047   0.2886599   0.2909121  )
        35           I   tau(  35) = (   0.0000099   0.2886553   0.6824248  )
        36           I   tau(  36) = (  -0.1249962   0.5051652   0.2909079  )
        37           I   tau(  37) = (  -0.1249910   0.5051606   0.6824206  )
        38           I   tau(  38) = (  -0.2499972   0.7216704   0.2909037  )
        39           I   tau(  39) = (  -0.2499919   0.7216658   0.6824164  )
        40           I   tau(  40) = (   0.3750056   0.0721536   0.2909197  )
        41           I   tau(  41) = (   0.3750108   0.0721490   0.6824324  )
        42           I   tau(  42) = (   0.2500047   0.2886589   0.2909155  )
        43           I   tau(  43) = (   0.2500099   0.2886543   0.6824282  )
        44           I   tau(  44) = (   0.1250038   0.5051641   0.2909113  )
        45           I   tau(  45) = (   0.1250090   0.5051595   0.6824240  )
        46           I   tau(  46) = (   0.0000028   0.7216694   0.2909071  )
        47           I   tau(  47) = (   0.0000081   0.7216648   0.6824197  )
        48           I   tau(  48) = (   0.6250056   0.0721525   0.2909230  )
        49           I   tau(  49) = (   0.6250108   0.0721479   0.6824357  )
        50           I   tau(  50) = (   0.5000047   0.2886578   0.2909188  )
        51           I   tau(  51) = (   0.5000099   0.2886532   0.6824315  )
        52           I   tau(  52) = (   0.3750038   0.5051631   0.2909146  )
        53           I   tau(  53) = (   0.3750090   0.5051585   0.6824273  )
        54           I   tau(  54) = (   0.2500028   0.7216683   0.2909104  )
        55           I   tau(  55) = (   0.2500081   0.7216637   0.6824231  )
        56           I   tau(  56) = (   0.8750056   0.0721515   0.2909264  )
        57           I   tau(  57) = (   0.8750108   0.0721469   0.6824391  )
        58           I   tau(  58) = (   0.7500047   0.2886567   0.2909222  )
        59           I   tau(  59) = (   0.7500099   0.2886521   0.6824348  )
        60           I   tau(  60) = (   0.6250038   0.5051620   0.2909180  )
        61           I   tau(  61) = (   0.6250090   0.5051574   0.6824306  )
        62           I   tau(  62) = (   0.5000028   0.7216673   0.2909137  )
        63           I   tau(  63) = (   0.5000081   0.7216627   0.6824264  )
        64           I   tau(  64) = (  -0.0000018   0.1443297   0.1005933  )
        65           I   tau(  65) = (   0.0000034   0.1443251   0.4921060  )
        66           I   tau(  66) = (  -0.1250027   0.3608350   0.1005891  )
        67           I   tau(  67) = (  -0.1249975   0.3608304   0.4921018  )
        68           I   tau(  68) = (  -0.2500036   0.5773403   0.1005849  )
        69           I   tau(  69) = (  -0.2499984   0.5773357   0.4920975  )
        70           I   tau(  70) = (  -0.3750045   0.7938455   0.1005807  )
        71           I   tau(  71) = (  -0.3749993   0.7938409   0.4920933  )
        72           I   tau(  72) = (   0.2499982   0.1443287   0.1005966  )
        73           I   tau(  73) = (   0.2500034   0.1443241   0.4921093  )
        74           I   tau(  74) = (   0.1249973   0.3608340   0.1005924  )
        75           I   tau(  75) = (   0.1250025   0.3608294   0.4921051  )
        76           I   tau(  76) = (  -0.0000036   0.5773392   0.1005882  )
        77           I   tau(  77) = (   0.0000016   0.5773346   0.4921009  )
        78           I   tau(  78) = (  -0.1250045   0.7938445   0.1005840  )
        79           I   tau(  79) = (  -0.1249993   0.7938399   0.4920967  )
        80           I   tau(  80) = (   0.4999982   0.1443276   0.1006000  )
        81           I   tau(  81) = (   0.5000034   0.1443230   0.4921126  )
        82           I   tau(  82) = (   0.3749973   0.3608329   0.1005958  )
        83           I   tau(  83) = (   0.3750025   0.3608283   0.4921084  )
        84           I   tau(  84) = (   0.2499964   0.5773382   0.1005915  )
        85           I   tau(  85) = (   0.2500016   0.5773336   0.4921042  )
        86           I   tau(  86) = (   0.1249955   0.7938434   0.1005873  )
        87           I   tau(  87) = (   0.1250007   0.7938388   0.4921000  )
        88           I   tau(  88) = (   0.7499982   0.1443266   0.1006033  )
        89           I   tau(  89) = (   0.7500034   0.1443220   0.4921160  )
        90           I   tau(  90) = (   0.6249973   0.3608319   0.1005991  )
        91           I   tau(  91) = (   0.6250025   0.3608273   0.4921118  )
        92           I   tau(  92) = (   0.4999964   0.5773371   0.1005949  )
        93           I   tau(  93) = (   0.5000016   0.5773325   0.4921076  )
        94           I   tau(  94) = (   0.3749955   0.7938424   0.1005907  )
        95           I   tau(  95) = (   0.3750007   0.7938378   0.4921034  )
        96           I   tau(  96) = (   0.1250086   0.2164870   0.7830203  )

   Crystallographic axes

     site n.     atom                  positions (cryst. coord.)
         1           Pb  tau(   1) = (  0.2499949  0.2499829  0.4999935  )
         2           Pb  tau(   2) = (  0.2499959  0.4999764  0.9999882  )
         3           Pb  tau(   3) = (  0.2499933  0.4999817  0.4999882  )
         4           Pb  tau(   4) = (  0.2499944  0.7499751  0.9999828  )
         5           Pb  tau(   5) = (  0.2499918  0.7499804  0.4999828  )
         6           Pb  tau(   6) = (  0.2499928  0.9999739  0.9999774  )
         7           Pb  tau(   7) = (  0.2499903  0.9999792  0.4999774  )
         8           Pb  tau(   8) = (  0.4999968  0.2499764  0.9999978  )
         9           Pb  tau(   9) = (  0.4999943  0.2499817  0.4999978  )
        10           Pb  tau(  10) = (  0.4999953  0.4999752  0.9999924  )
        11           Pb  tau(  11) = (  0.4999927  0.4999805  0.4999924  )
        12           Pb  tau(  12) = (  0.4999938  0.7499739  0.9999871  )
        13           Pb  tau(  13) = (  0.4999912  0.7499792  0.4999871  )
        14           Pb  tau(  14) = (  0.4999922  0.9999727  0.9999817  )
        15           Pb  tau(  15) = (  0.4999896  0.9999780  0.4999817  )
        16           Pb  tau(  16) = (  0.7499962  0.2499752  1.0000021  )
        17           Pb  tau(  17) = (  0.7499936  0.2499805  0.5000021  )
        18           Pb  tau(  18) = (  0.7499947  0.4999739  0.9999967  )
        19           Pb  tau(  19) = (  0.7499921  0.4999793  0.4999967  )
        20           Pb  tau(  20) = (  0.7499932  0.7499727  0.9999913  )
        21           Pb  tau(  21) = (  0.7499906  0.7499780  0.4999913  )
        22           Pb  tau(  22) = (  0.7499916  0.9999714  0.9999860  )
        23           Pb  tau(  23) = (  0.7499890  0.9999767  0.4999860  )
        24           Pb  tau(  24) = (  0.9999956  0.2499740  1.0000064  )
        25           Pb  tau(  25) = (  0.9999930  0.2499793  0.5000064  )
        26           Pb  tau(  26) = (  0.9999941  0.4999727  1.0000010  )
        27           Pb  tau(  27) = (  0.9999915  0.4999780  0.5000010  )
        28           Pb  tau(  28) = (  0.9999926  0.7499715  0.9999956  )
        29           Pb  tau(  29) = (  0.9999900  0.7499768  0.4999956  )
        30           Pb  tau(  30) = (  0.9999910  0.9999702  0.9999902  )
        31           Pb  tau(  31) = (  0.9999884  0.9999755  0.4999902  )
        32           I   tau(  32) = (  0.1666641  0.0833170  0.3715286  )
        33           I   tau(  33) = (  0.1666667  0.0833117  0.8715286  )
        34           I   tau(  34) = (  0.1666625  0.3333157  0.3715233  )
        35           I   tau(  35) = (  0.1666651  0.3333104  0.8715233  )
        36           I   tau(  36) = (  0.1666610  0.5833145  0.3715179  )
        37           I   tau(  37) = (  0.1666636  0.5833092  0.8715179  )
        38           I   tau(  38) = (  0.1666595  0.8333132  0.3715125  )
        39           I   tau(  39) = (  0.1666621  0.8333079  0.8715125  )
        40           I   tau(  40) = (  0.4166635  0.0833158  0.3715329  )
        41           I   tau(  41) = (  0.4166661  0.0833105  0.8715329  )
        42           I   tau(  42) = (  0.4166619  0.3333145  0.3715275  )
        43           I   tau(  43) = (  0.4166645  0.3333092  0.8715275  )
        44           I   tau(  44) = (  0.4166604  0.5833133  0.3715222  )
        45           I   tau(  45) = (  0.4166630  0.5833080  0.8715221  )
        46           I   tau(  46) = (  0.4166589  0.8333120  0.3715168  )
        47           I   tau(  47) = (  0.4166614  0.8333067  0.8715168  )
        48           I   tau(  48) = (  0.6666629  0.0833146  0.3715372  )
        49           I   tau(  49) = (  0.6666655  0.0833093  0.8715372  )
        50           I   tau(  50) = (  0.6666613  0.3333133  0.3715318  )
        51           I   tau(  51) = (  0.6666639  0.3333080  0.8715318  )
        52           I   tau(  52) = (  0.6666598  0.5833121  0.3715264  )
        53           I   tau(  53) = (  0.6666624  0.5833068  0.8715264  )
        54           I   tau(  54) = (  0.6666582  0.8333108  0.3715210  )
        55           I   tau(  55) = (  0.6666608  0.8333055  0.8715210  )
        56           I   tau(  56) = (  0.9166623  0.0833134  0.3715414  )
        57           I   tau(  57) = (  0.9166648  0.0833080  0.8715414  )
        58           I   tau(  58) = (  0.9166607  0.3333121  0.3715361  )
        59           I   tau(  59) = (  0.9166633  0.3333068  0.8715361  )
        60           I   tau(  60) = (  0.9166592  0.5833108  0.3715307  )
        61           I   tau(  61) = (  0.9166618  0.5833055  0.8715307  )
        62           I   tau(  62) = (  0.9166576  0.8333096  0.3715253  )
        63           I   tau(  63) = (  0.9166602  0.8333043  0.8715253  )
        64           I   tau(  64) = (  0.0833270  0.1666576  0.1284675  )
        65           I   tau(  65) = (  0.0833296  0.1666523  0.6284675  )
        66           I   tau(  66) = (  0.0833255  0.4166564  0.1284621  )
        67           I   tau(  67) = (  0.0833281  0.4166511  0.6284621  )
        68           I   tau(  68) = (  0.0833239  0.6666551  0.1284567  )
        69           I   tau(  69) = (  0.0833265  0.6666498  0.6284567  )
        70           I   tau(  70) = (  0.0833224  0.9166539  0.1284513  )
        71           I   tau(  71) = (  0.0833250  0.9166486  0.6284513  )
        72           I   tau(  72) = (  0.3333264  0.1666564  0.1284717  )
        73           I   tau(  73) = (  0.3333290  0.1666511  0.6284717  )
        74           I   tau(  74) = (  0.3333249  0.4166552  0.1284664  )
        75           I   tau(  75) = (  0.3333275  0.4166499  0.6284663  )
        76           I   tau(  76) = (  0.3333233  0.6666539  0.1284610  )
        77           I   tau(  77) = (  0.3333259  0.6666486  0.6284610  )
        78           I   tau(  78) = (  0.3333218  0.9166527  0.1284556  )
        79           I   tau(  79) = (  0.3333244  0.9166473  0.6284556  )
        80           I   tau(  80) = (  0.5833258  0.1666552  0.1284760  )
        81           I   tau(  81) = (  0.5833284  0.1666499  0.6284760  )
        82           I   tau(  82) = (  0.5833243  0.4166539  0.1284706  )
        83           I   tau(  83) = (  0.5833269  0.4166486  0.6284706  )
        84           I   tau(  84) = (  0.5833227  0.6666527  0.1284652  )
        85           I   tau(  85) = (  0.5833253  0.6666474  0.6284652  )
        86           I   tau(  86) = (  0.5833212  0.9166514  0.1284599  )
        87           I   tau(  87) = (  0.5833238  0.9166461  0.6284599  )
        88           I   tau(  88) = (  0.8333252  0.1666540  0.1284803  )
        89           I   tau(  89) = (  0.8333278  0.1666487  0.6284803  )
        90           I   tau(  90) = (  0.8333237  0.4166527  0.1284749  )
        91           I   tau(  91) = (  0.8333262  0.4166474  0.6284749  )
        92           I   tau(  92) = (  0.8333221  0.6666515  0.1284695  )
        93           I   tau(  93) = (  0.8333247  0.6666462  0.6284695  )
        94           I   tau(  94) = (  0.8333206  0.9166502  0.1284641  )
        95           I   tau(  95) = (  0.8333232  0.9166449  0.6284641  )
        96           I   tau(  96) = (  0.2499975  0.2499776  0.9999935  )

     number of k points=     1  Gaussian smearing, width (Ry)=  0.0100
                       cart. coord. in units 2pi/alat
        k(    1) = (   0.0000000   0.0000000   0.0000000), wk =   2.0000000

                       cryst. coord.
        k(    1) = (   0.0000000   0.0000000   0.0000000), wk =   2.0000000

     Dense  grid:  3385235 G-vectors     FFT dimensions: ( 216, 216, 180)

     Smooth grid:  2422379 G-vectors     FFT dimensions: ( 192, 192, 150)

     Dynamical RAM for                 wfc:      33.31 MB

     Dynamical RAM for     wfc (w. buffer):      33.31 MB

     Dynamical RAM for           str. fact:       0.81 MB

     Dynamical RAM for           local pot:       0.00 MB

     Dynamical RAM for          nlocal pot:      62.36 MB

     Dynamical RAM for                qrad:       3.00 MB

     Dynamical RAM for          rho,v,vnew:       3.35 MB

     Dynamical RAM for               rhoin:       1.12 MB

     Dynamical RAM for            rho*nmix:       6.46 MB

     Dynamical RAM for           G-vectors:       1.66 MB

     Dynamical RAM for          h,s,v(r/c):     623.97 MB

     Dynamical RAM for          <psi|beta>:      24.34 MB

     Dynamical RAM for                 psi:     133.23 MB

     Dynamical RAM for                hpsi:     133.23 MB

     Dynamical RAM for                spsi:     133.23 MB

     Dynamical RAM for      wfcinit/wfcrot:      86.12 MB

     Dynamical RAM for           addusdens:     101.31 MB

     Dynamical RAM for          addusforce:     153.42 MB

     Dynamical RAM for         addusstress:      81.13 MB

     Estimated static dynamical RAM per process >     110.37 MB

     Estimated max dynamical RAM per process >       1.14 GB

     Estimated total dynamical RAM >     145.60 GB

     Atomic positions and unit cell read from directory:
     ./PbI2.save/
     Atomic positions from file used, from input discarded
 

     Check: negative core charge=   -0.000001

     The initial density is read from file :
     ./PbI2.save/charge-density



     %%%%%%%%%%%%%%%%%%%%%%%%%%%%%%%%%%%%%%%%%%%%%%%%%%%%%%%%%%%%%%%%%%%%%%%%
     %                                                                      %
     % You are using vdW-DF, which was implemented by the Thonhauser group. %
     % Please cite the following two papers that made this development      %
     % possible and the two reviews that describe the various versions:     %
     %                                                                      %
     %   T. Thonhauser et al., PRL 115, 136402 (2015).                      %
     %   T. Thonhauser et al., PRB 76, 125112 (2007).                       %
     %   K. Berland et al., Rep. Prog. Phys. 78, 066501 (2015).             %
     %   D.C. Langreth et al., J. Phys.: Condens. Matter 21, 084203 (2009). %
     %                                                                      %
     % If you are calculating stress with vdW-DF, please also cite:         %
     %                                                                      %
     %   R. Sabatini et al., J. Phys.: Condens. Matter 24, 424209 (2012).   %
     %                                                                      %
     %%%%%%%%%%%%%%%%%%%%%%%%%%%%%%%%%%%%%%%%%%%%%%%%%%%%%%%%%%%%%%%%%%%%%%%%

     %%%%%%%%%%%%%%%%%%%%%%%%%%%%%%%%%%%%%%%%%%%%%%%%%%%%%%%%%%%%%%%%%%%%%%%%
     %                                                                      %
     %  vdW-DF NEWS:                                                        %
     %                                                                      %
     %  * vdW-DF3 is now available. DOI: 10.1021/acs.jctc.0c00471           %
     %    use with input_dft = 'vdW-DF3-opt1' or 'vdW-DF3-opt2'             %
     %                                                                      %
     %  * Unscreened and range-separated vdW-DF hybrid functionals          %
     %    DOI: 10.1063/1.4986522 and 10.1088/1361-648X/ac2ad2               %
     %    use with input_dft = 'vdW-DF-cx0' (etc) and 'vdW-DF-ahcx'         %
     %                                                                      %
     %%%%%%%%%%%%%%%%%%%%%%%%%%%%%%%%%%%%%%%%%%%%%%%%%%%%%%%%%%%%%%%%%%%%%%%%


     Carrying out vdW-DF run using the following parameters:
     Nqs    =  20  Npoints =  1024  r_max =  100.000
     q_mesh =  0.00001000  0.04494208  0.09755937  0.15916263
               0.23128650  0.31572767  0.41458969  0.53033537
               0.66584808  0.82450364  1.01025438  1.22772762
               1.48234092  1.78043706  2.12944203  2.53805004
               3.01644009  3.57652955  4.23227104  5.00000000


     -----------------------------------------------
     Non-local corr. energy    =      46.32853931 Ry
     -----------------------------------------------

     Starting wfcs from file
     Checking if some PAW data can be deallocated... 
       PAW data deallocated on   66 nodes for type:  1
       PAW data deallocated on   62 nodes for type:  2

     total cpu time spent up to now is       20.1 secs

     Self-consistent Calculation

     iteration #  1     ecut=    70.00 Ry     beta= 0.70
     Davidson diagonalization with overlap

---- Real-time Memory Report at c_bands before calling an iterative solver
           348 MiB given to the printing process from OS
             0 MiB allocation reported by mallinfo(arena+hblkhd)
       1879509 MiB available memory on the node where the printing process lives
------------------
     ethr =  1.00E-05,  avg # of iterations =  1.0

     Threshold (ethr) on eigenvalues was too large:
     Diagonalizing with lowered threshold

     Davidson diagonalization with overlap

---- Real-time Memory Report at c_bands before calling an iterative solver
           933 MiB given to the printing process from OS
             0 MiB allocation reported by mallinfo(arena+hblkhd)
       1867623 MiB available memory on the node where the printing process lives
------------------
     ethr =  1.13E-12,  avg # of iterations = 18.0


     -----------------------------------------------
     Non-local corr. energy    =      46.32853963 Ry
     -----------------------------------------------


     total cpu time spent up to now is      216.7 secs

     End of self-consistent calculation

          k = 0.0000 0.0000 0.0000 (302703 PWs)   bands (ev):

   -42.7779 -42.7778 -42.7515 -42.7510 -42.7473 -41.2090 -41.2089 -41.2071
   -41.2071 -41.2070 -41.2069 -41.1793 -41.1793 -41.1785 -41.1784 -41.1776
   -41.1775 -41.1775 -41.1774 -41.1767 -41.1767 -41.1767 -41.1765 -41.0868
   -41.0867 -41.0863 -41.0862 -41.0853 -41.0853 -41.0853 -41.0851 -41.0848
   -41.0848 -41.0848 -41.0847 -40.8681 -40.8680 -40.8680 -40.8679 -40.8679
   -40.8678 -40.8678 -40.8678 -40.8678 -40.8677 -40.8677 -40.8676 -40.8652
   -40.8652 -40.8651 -40.8651 -40.8650 -40.8650 -40.8650 -40.8649 -40.8649
   -40.8648 -40.8648 -40.8648 -40.8618 -40.8617 -40.8617 -40.8617 -40.8616
   -40.8616 -40.8615 -40.8615 -40.8615 -40.8614 -40.8614 -40.8614 -40.8526
   -40.8526 -40.8525 -40.8525 -40.8524 -40.8524 -40.8524 -40.8524 -40.8524
   -40.8523 -40.8523 -40.8523 -40.8523 -40.8522 -40.8522 -40.8522 -40.8522
   -40.8521 -40.8521 -40.8521 -40.8521 -40.8520 -40.8520 -40.8519 -40.8266
   -40.8266 -40.8265 -40.8265 -40.8265 -40.8265 -40.8260 -40.8260 -40.8260
   -40.8260 -40.8260 -40.8259 -40.8242 -40.8242 -40.8242 -40.8242 -40.8241
   -40.8241 -40.8241 -40.8241 -40.8241 -40.8241 -40.8241 -40.8241 -40.8237
   -40.8236 -40.8236 -40.8236 -40.8236 -40.8236 -40.8071 -40.8070 -40.8070
   -40.8070 -40.8070 -40.8069 -40.8063 -40.8062 -40.8062 -40.8061 -40.8061
   -40.8061 -40.8053 -40.8053 -40.8053 -40.8052 -40.8052 -40.8052 -40.8026
   -40.8025 -40.8025 -40.8025 -40.8024 -40.8024 -40.8022 -40.8021 -40.8021
   -40.8021 -40.8020 -40.8020 -40.7881 -40.7881 -40.7880 -40.7880 -40.7877
   -40.7877 -40.7874 -40.7874 -40.7874 -40.7874 -40.7348 -40.7347 -40.7347
   -40.7346 -40.7346 -40.7345 -40.7335 -40.7335 -40.7335 -40.7335 -40.7334
   -40.7334 -40.7327 -40.7327 -40.7327 -40.7327 -40.7326 -40.7326 -40.7326
   -40.7325 -40.7325 -40.7324 -40.7323 -40.7322 -40.7322 -40.7321 -40.7321
   -40.7320 -40.7261 -40.7260 -40.7260 -40.7259 -40.7259 -40.7259 -40.7256
   -40.7256 -40.7256 -40.7254 -40.7254 -40.7254 -40.7083 -40.7082 -40.7082
   -40.7082 -40.7081 -40.7081 -40.7077 -40.7077 -40.7077 -40.7076 -40.7076
   -40.7075 -40.7075 -40.7075 -40.7074 -40.7074 -40.7074 -40.7073 -40.7071
   -40.7071 -40.7071 -40.7071 -40.7071 -40.7070 -40.7070 -40.7070 -40.7070
   -40.7070 -40.7069 -40.7069 -40.6941 -40.6941 -40.6940 -40.6940 -40.6940
   -40.6940 -40.6940 -40.6940 -40.6940 -40.6940 -40.6939 -40.6939 -40.6935
   -40.6935 -40.6935 -40.6935 -40.6935 -40.6935 -40.6934 -40.6934 -40.6934
   -40.6934 -40.6934 -40.6934 -40.6934 -40.6934 -40.6934 -40.6933 -40.6933
   -40.6933 -40.6932 -40.6931 -40.6931 -40.6931 -40.6931 -40.6931 -40.6930
   -40.6930 -40.6930 -40.6930 -40.6930 -40.6930 -40.6929 -40.6929 -40.6929
   -40.6929 -40.6929 -40.6928 -40.6928 -40.6927 -40.6927 -40.6927 -40.6927
   -40.6927 -40.6927 -40.6927 -40.6927 -40.6926 -40.6926 -40.6926 -40.6926
   -40.6926 -40.6926 -40.6926 -40.6926 -40.6926 -40.6926 -40.6926 -40.6926
   -40.6926 -40.6926 -40.6925 -40.6925 -40.6925 -40.6925 -40.6925 -40.6925
   -40.6925 -40.6920 -40.6920 -40.6919 -40.6919 -40.6919 -40.6919 -40.6915
   -40.6915 -40.6915 -40.6914 -40.6914 -40.6914 -13.0097 -13.0097 -13.0095
   -13.0063 -13.0047 -13.0046 -13.0041 -13.0013 -13.0012 -12.9959 -12.9957
   -12.9914 -12.9914 -12.9904 -12.9902 -12.9900 -12.9899 -12.9885 -12.9868
   -12.9860 -12.9859 -12.9852 -12.9851 -12.9850 -12.9824 -12.9822 -12.9822
   -12.9812 -12.9810 -12.9802 -12.9799 -12.9799 -12.9766 -12.9765 -12.9765
   -12.9759 -12.9647 -12.9633 -12.9633 -12.9632 -12.9629 -12.9622 -12.9621
   -12.9615 -12.9615 -12.9607 -12.9607 -12.9600 -12.9588 -12.9566 -12.9566
   -12.9535 -12.9521 -12.9506 -12.9505 -12.9502 -12.9502 -12.9454 -12.9449
   -12.9444 -12.9444 -12.9441 -12.9433 -12.9433 -12.9431 -12.9421 -12.9421
   -12.9417 -12.9417 -12.9389 -12.9389 -12.9386 -12.9386 -12.9373 -12.9370
   -12.8746 -12.8693 -12.8685 -12.8685 -12.8664 -12.8664 -12.8616 -12.8616
   -12.8616 -12.8616 -12.8604 -12.8603 -12.8603 -12.8601 -12.8595 -12.8543
   -12.8543 -12.8539 -12.8517 -12.8517 -12.8501 -12.8493 -12.8493 -12.8487
   -12.8484 -12.8479 -12.8479 -12.8478 -12.8478 -12.8472 -12.8471 -12.8471
   -12.8448 -12.8448 -12.8448 -12.8447 -12.8447 -12.8441 -12.8433 -12.8433
   -12.8432 -12.8431 -12.8431 -12.8431 -12.8431 -12.8431 -12.8428 -12.8428
   -12.8425 -12.8415 -12.8415 -12.8408 -12.8408 -12.8394 -12.8394 -12.8391
   -12.8391 -12.8389 -12.8378 -12.8376 -12.8374 -12.8374 -12.8356 -12.8356
   -12.8353 -12.8350 -12.8345 -12.8343 -12.8343 -12.8321 -12.8321 -12.8241
   -12.8241 -12.8235 -12.8222 -12.8217 -12.8217 -12.8213 -12.8208 -12.8208
    -9.3393  -8.1160  -7.9972  -7.9967  -7.9783  -7.9561  -7.9561  -7.9279
    -7.8409  -7.8255  -7.8052  -7.8044  -7.7997  -7.7995  -7.7909  -7.7826
    -7.7826  -7.7813  -7.7810  -7.7527  -7.7157  -7.6860  -7.6784  -7.6784
    -7.6485  -7.6484  -7.6409  -7.6374  -7.6276  -7.6275  -7.6075  -7.6074
    -7.5881  -7.5705  -7.5639  -7.5639  -7.5580  -7.5566  -7.5540  -7.5540
    -7.5535  -7.5535  -7.5452  -7.5452  -7.5394  -7.5349  -7.5337  -7.5250
    -7.5249  -7.5149  -7.4744  -7.4744  -7.4732  -7.4651  -7.4640  -7.4640
    -7.4446  -7.4294  -7.4294  -7.4232  -7.4207  -7.4207  -7.4102  -7.4102
    -7.4058  -3.7017  -3.7016  -3.6877  -3.6755  -3.6754  -3.6739  -3.6664
    -3.6664  -3.5609  -3.5608  -3.5581  -3.5500  -3.5495  -3.5494  -3.5477
    -3.5455  -3.5450  -3.5450  -3.4296  -3.4295  -3.4126  -3.4126  -3.3932
    -3.2961  -3.2961  -3.2916  -3.2870  -3.2837  -3.2837  -3.2218  -3.0663
     0.2585   0.2595   0.3259   0.9040   0.9040   0.9283   1.1500   1.1500
     1.1529   1.1673   1.1825   1.1826   1.2172   1.2172   1.2907   1.3450
     1.3469   1.3509   1.3510   1.3943   1.3944   1.4012   1.4038   1.4038
     1.4369   1.4369   1.4424   1.4665   1.4917   1.4917   1.5159   1.5159
     1.5172   1.5189   1.5189   1.5232   1.5767   1.6415   1.6415   1.6443
     1.6443   1.6526   1.6673   1.6974   1.6975   1.7592   1.7613   1.7665
     1.7665   1.7882   1.7883   1.8437   1.8438   1.8767   1.9289   2.0049
     2.0049   2.0225   2.0226   2.0262   2.0378   2.0379   2.0478   2.0615
     2.0621   2.0622   2.0661   2.0686   2.0686   2.1098   2.1098   2.1572
     2.1744   2.1745   2.1831   2.1851   2.1985   2.1986   2.2025   2.2067
     2.2466   2.2468   2.2858   2.2975   2.2976   2.3149   2.3149   2.3232
     2.3232   2.3286   2.3315   2.3552   2.3552   2.3610   2.3610   2.3618
     2.3665   2.3673   2.4246   2.4248   2.4993   2.5037   2.5044   2.5045
     2.5149   2.5150   2.5442   2.5873   2.5874   2.6298   2.6299   2.6529
     2.6616   2.6618   2.6840   2.7193   2.7194   2.7207   2.7208   2.7360
     2.7392   2.7594   2.8000   2.8001   2.8067   2.8067   2.8142   2.8142
     2.8283   2.8283   2.8357   2.8371   2.8430   2.8525   2.8525   2.8593
     2.8615   2.8616   2.8974   2.9118   2.9118   2.9238   2.9238   2.9305
     2.9556   2.9731   2.9731   2.9810   2.9856   2.9856   2.9900   2.9901
     3.0049   3.0120   3.0210   3.0211   3.0254   3.0254   3.0355   3.0355
     3.0362   3.0379   3.0416   3.0416   3.0447   3.1326   3.1705   3.1706
     3.1810   3.1810   3.2082   3.2087   3.2088   3.2120   3.2120   3.2241
     3.2271   3.2271   3.2314   3.3671   3.3675   3.3803   3.3803   3.3845
     3.3845   3.4097   3.4105   3.4212   3.4212   3.4258   3.4258   3.4685
     3.8553   3.8759   3.8762   5.9807   6.1785   6.4768   6.4910   6.4911
     6.5335   6.5335   6.5478   6.5974   6.5975   6.6519   6.7142   6.7203
     6.7203   6.7281   6.7281   6.8017   6.8017   6.8250   6.8925   6.8940
     6.8940   6.9417   6.9417   6.9632   6.9632   6.9894   7.0096   7.0424
     7.0424   7.1188   7.1486   7.1487   7.1673   7.1860   7.1860   7.2375
     7.2376   7.2380   7.2541   7.2627   7.2627   7.2692   7.2693   7.2801
     7.2923   7.2923   7.2943   7.2943   7.2959   7.2997   7.3105   7.3106
     7.3109   7.3261   7.3902   7.3902   7.4142   7.4142   7.4154   7.4174
     7.4265   7.4265   7.4615   7.4616   7.4695   7.4702   7.4702   7.4758
     7.4806   7.4823   7.4829   7.4829   7.4855   7.4855   7.5127   7.5686
     7.5686   7.5785   7.5907   7.5908   7.5911   7.6009   7.6009   7.7442
     7.7453   7.7460   7.7461   7.7565   7.7565   8.0435   8.0496   8.0497
     9.1603   9.1603   9.1636   9.7126   9.7126   9.7372   9.8122   9.8122
     9.8207   9.8503   9.8712   9.8740   9.8741  10.0199  10.0352  10.0352
    10.0502  10.0502  10.0620  10.0620  10.0632  10.0682  10.0682  10.0705
    10.0802  10.3154  10.3154  10.3546  10.3548  10.3750  10.3782  10.4216
    10.4743  10.4760  10.4760  10.4779  10.4779  10.4850  10.7675  10.7739
    10.7741  10.7823  10.8061  10.8061  10.8762  10.9389  10.9390  10.9414
    10.9415  10.9540  11.1273  11.1578  11.1578  11.1726  11.1728  11.1914
    11.2055  11.2087  11.2087

     occupation numbers 
     1.0000   1.0000   1.0000   1.0000   1.0000   1.0000   1.0000   1.0000
     1.0000   1.0000   1.0000   1.0000   1.0000   1.0000   1.0000   1.0000
     1.0000   1.0000   1.0000   1.0000   1.0000   1.0000   1.0000   1.0000
     1.0000   1.0000   1.0000   1.0000   1.0000   1.0000   1.0000   1.0000
     1.0000   1.0000   1.0000   1.0000   1.0000   1.0000   1.0000   1.0000
     1.0000   1.0000   1.0000   1.0000   1.0000   1.0000   1.0000   1.0000
     1.0000   1.0000   1.0000   1.0000   1.0000   1.0000   1.0000   1.0000
     1.0000   1.0000   1.0000   1.0000   1.0000   1.0000   1.0000   1.0000
     1.0000   1.0000   1.0000   1.0000   1.0000   1.0000   1.0000   1.0000
     1.0000   1.0000   1.0000   1.0000   1.0000   1.0000   1.0000   1.0000
     1.0000   1.0000   1.0000   1.0000   1.0000   1.0000   1.0000   1.0000
     1.0000   1.0000   1.0000   1.0000   1.0000   1.0000   1.0000   1.0000
     1.0000   1.0000   1.0000   1.0000   1.0000   1.0000   1.0000   1.0000
     1.0000   1.0000   1.0000   1.0000   1.0000   1.0000   1.0000   1.0000
     1.0000   1.0000   1.0000   1.0000   1.0000   1.0000   1.0000   1.0000
     1.0000   1.0000   1.0000   1.0000   1.0000   1.0000   1.0000   1.0000
     1.0000   1.0000   1.0000   1.0000   1.0000   1.0000   1.0000   1.0000
     1.0000   1.0000   1.0000   1.0000   1.0000   1.0000   1.0000   1.0000
     1.0000   1.0000   1.0000   1.0000   1.0000   1.0000   1.0000   1.0000
     1.0000   1.0000   1.0000   1.0000   1.0000   1.0000   1.0000   1.0000
     1.0000   1.0000   1.0000   1.0000   1.0000   1.0000   1.0000   1.0000
     1.0000   1.0000   1.0000   1.0000   1.0000   1.0000   1.0000   1.0000
     1.0000   1.0000   1.0000   1.0000   1.0000   1.0000   1.0000   1.0000
     1.0000   1.0000   1.0000   1.0000   1.0000   1.0000   1.0000   1.0000
     1.0000   1.0000   1.0000   1.0000   1.0000   1.0000   1.0000   1.0000
     1.0000   1.0000   1.0000   1.0000   1.0000   1.0000   1.0000   1.0000
     1.0000   1.0000   1.0000   1.0000   1.0000   1.0000   1.0000   1.0000
     1.0000   1.0000   1.0000   1.0000   1.0000   1.0000   1.0000   1.0000
     1.0000   1.0000   1.0000   1.0000   1.0000   1.0000   1.0000   1.0000
     1.0000   1.0000   1.0000   1.0000   1.0000   1.0000   1.0000   1.0000
     1.0000   1.0000   1.0000   1.0000   1.0000   1.0000   1.0000   1.0000
     1.0000   1.0000   1.0000   1.0000   1.0000   1.0000   1.0000   1.0000
     1.0000   1.0000   1.0000   1.0000   1.0000   1.0000   1.0000   1.0000
     1.0000   1.0000   1.0000   1.0000   1.0000   1.0000   1.0000   1.0000
     1.0000   1.0000   1.0000   1.0000   1.0000   1.0000   1.0000   1.0000
     1.0000   1.0000   1.0000   1.0000   1.0000   1.0000   1.0000   1.0000
     1.0000   1.0000   1.0000   1.0000   1.0000   1.0000   1.0000   1.0000
     1.0000   1.0000   1.0000   1.0000   1.0000   1.0000   1.0000   1.0000
     1.0000   1.0000   1.0000   1.0000   1.0000   1.0000   1.0000   1.0000
     1.0000   1.0000   1.0000   1.0000   1.0000   1.0000   1.0000   1.0000
     1.0000   1.0000   1.0000   1.0000   1.0000   1.0000   1.0000   1.0000
     1.0000   1.0000   1.0000   1.0000   1.0000   1.0000   1.0000   1.0000
     1.0000   1.0000   1.0000   1.0000   1.0000   1.0000   1.0000   1.0000
     1.0000   1.0000   1.0000   1.0000   1.0000   1.0000   1.0000   1.0000
     1.0000   1.0000   1.0000   1.0000   1.0000   1.0000   1.0000   1.0000
     1.0000   1.0000   1.0000   1.0000   1.0000   1.0000   1.0000   1.0000
     1.0000   1.0000   1.0000   1.0000   1.0000   1.0000   1.0000   1.0000
     1.0000   1.0000   1.0000   1.0000   1.0000   1.0000   1.0000   1.0000
     1.0000   1.0000   1.0000   1.0000   1.0000   1.0000   1.0000   1.0000
     1.0000   1.0000   1.0000   1.0000   1.0000   1.0000   1.0000   1.0000
     1.0000   1.0000   1.0000   1.0000   1.0000   1.0000   1.0000   1.0000
     1.0000   1.0000   1.0000   1.0000   1.0000   1.0000   1.0000   1.0000
     1.0000   1.0000   1.0000   1.0000   1.0000   1.0000   1.0000   1.0000
     1.0000   1.0000   1.0000   1.0000   1.0000   1.0000   1.0000   1.0000
     1.0000   1.0000   1.0000   1.0000   1.0000   1.0000   1.0000   1.0000
     1.0000   1.0000   1.0000   1.0000   1.0000   1.0000   1.0000   1.0000
     1.0000   1.0000   1.0000   1.0000   1.0000   1.0000   1.0000   1.0000
     1.0000   1.0000   1.0000   1.0000   1.0000   1.0000   1.0000   1.0000
     1.0000   1.0000   1.0000   1.0000   1.0000   1.0000   1.0000   1.0000
     1.0000   1.0000   1.0000   1.0000   1.0000   1.0000   1.0000   1.0000
     1.0000   1.0000   1.0000   1.0000   1.0000   1.0000   1.0000   1.0000
     1.0000   1.0000   1.0000   1.0000   1.0000   1.0000   1.0000   1.0000
     1.0000   1.0000   1.0000   1.0000   1.0000   1.0000   1.0000   1.0000
     1.0000   1.0000   1.0000   1.0000   1.0000   1.0000   1.0000   1.0000
     1.0000   1.0000   1.0000   1.0000   1.0000   1.0000   1.0000   1.0000
     1.0000   1.0000   1.0000   1.0000   1.0000   1.0000   1.0000   1.0000
     1.0000   1.0000   1.0000   1.0000   1.0000   1.0000   1.0000   1.0000
     1.0000   1.0000   1.0000   1.0000   1.0000   1.0000   1.0000   1.0000
     1.0000   1.0000   1.0000   1.0000   1.0000   1.0000   1.0000   1.0000
     1.0000   1.0000   1.0000   1.0000   1.0000   1.0000   1.0000   1.0000
     1.0000   1.0000   1.0000   1.0000   1.0000   1.0000   1.0000   1.0000
     1.0000   1.0000   1.0000   1.0000   1.0000   1.0000   1.0000   1.0000
     1.0000   1.0000   1.0000   1.0000   1.0000   1.0000   1.0000   1.0000
     1.0000   1.0000   1.0000   1.0000   1.0000   1.0000   1.0000   1.0000
     1.0000   1.0000   1.0000   1.0000   1.0000   1.0000   1.0000   1.0000
     1.0000   1.0000   1.0000   1.0000   1.0000   1.0000   1.0000   1.0000
     1.0000   1.0000   1.0000   1.0000   1.0000   1.0000   1.0000   1.0000
     1.0000   1.0000   1.0000   1.0000   1.0000   1.0000   1.0000   1.0000
     1.0000   1.0000   1.0000   1.0000   1.0000   1.0000   1.0000   1.0000
     1.0000   1.0000   1.0000   1.0000   1.0000   1.0000   1.0000   1.0000
     1.0000   1.0000   1.0000   1.0000   1.0000   1.0000   1.0000   1.0000
     1.0000   1.0000   1.0000   1.0000   1.0000   1.0000   1.0000   1.0000
     1.0000   1.0000   1.0000   1.0000   1.0000   1.0000   1.0000   1.0000
     1.0000   1.0000   1.0000   1.0000   1.0000   1.0000   1.0000   1.0000
     1.0000   1.0000   1.0000   1.0000   1.0000   1.0000   1.0000   1.0000
     1.0000   1.0000   1.0000   1.0000   1.0000   1.0000   1.0000   1.0000
     1.0000   1.0000   1.0000   1.0000   1.0000   1.0000   1.0000   1.0000
     1.0000   1.0000   1.0000   1.0000   1.0000   1.0000   1.0000   1.0000
     1.0000   1.0000   1.0000   1.0000   1.0000   1.0000   1.0000   1.0000
     1.0000   1.0000   1.0000   1.0000   1.0000   1.0000   1.0000   1.0000
     1.0000   1.0000   1.0000   1.0000   1.0000   1.0000   1.0000   1.0000
     1.0000   1.0000   1.0000   1.0000   1.0000   1.0000   1.0000   1.0000
     1.0000   1.0000   1.0000   1.0000   1.0000   1.0000   1.0000   1.0000
     1.0000   1.0000   1.0000   1.0000   1.0000   1.0000   1.0000   1.0000
     1.0000   1.0000   1.0000   1.0000   1.0000   1.0000   1.0000   1.0000
     1.0000   1.0000   1.0000   1.0000   1.0000   1.0000   1.0000   0.9999
     0.3862   0.3074   0.3066   0.0000   0.0000   0.0000   0.0000   0.0000
     0.0000   0.0000   0.0000   0.0000   0.0000   0.0000   0.0000   0.0000
     0.0000   0.0000   0.0000   0.0000   0.0000   0.0000   0.0000   0.0000
     0.0000   0.0000   0.0000   0.0000   0.0000   0.0000   0.0000   0.0000
     0.0000   0.0000   0.0000   0.0000   0.0000   0.0000   0.0000   0.0000
     0.0000   0.0000   0.0000   0.0000   0.0000   0.0000   0.0000   0.0000
     0.0000   0.0000   0.0000   0.0000   0.0000   0.0000   0.0000   0.0000
     0.0000   0.0000   0.0000   0.0000   0.0000   0.0000   0.0000   0.0000
     0.0000   0.0000   0.0000   0.0000   0.0000   0.0000   0.0000   0.0000
     0.0000   0.0000   0.0000   0.0000   0.0000   0.0000   0.0000   0.0000
     0.0000   0.0000   0.0000   0.0000   0.0000   0.0000   0.0000   0.0000
     0.0000   0.0000   0.0000   0.0000   0.0000   0.0000   0.0000   0.0000
     0.0000   0.0000   0.0000   0.0000   0.0000   0.0000   0.0000   0.0000
     0.0000   0.0000   0.0000   0.0000   0.0000   0.0000   0.0000   0.0000
     0.0000   0.0000   0.0000   0.0000   0.0000   0.0000   0.0000   0.0000
     0.0000   0.0000   0.0000   0.0000   0.0000   0.0000   0.0000   0.0000
     0.0000   0.0000   0.0000   0.0000   0.0000   0.0000   0.0000   0.0000
     0.0000   0.0000   0.0000   0.0000   0.0000   0.0000   0.0000   0.0000
     0.0000   0.0000   0.0000   0.0000   0.0000   0.0000   0.0000   0.0000
     0.0000   0.0000   0.0000

     the Fermi energy is     3.8275 ev

!    total energy              =  -64423.53529987 Ry
     total all-electron energy =  -2221425.681941 Ry
     estimated scf accuracy    <       0.00000002 Ry
     smearing contrib. (-TS)   =      -0.01535680 Ry
     internal energy E=F+TS    =  -64423.51994307 Ry

     The total energy is F=E-TS. E is the sum of the following terms:
     one-electron contribution =  -12022.29219754 Ry
     hartree contribution      =    6706.09619738 Ry
     xc contribution           =   -4555.90220606 Ry
     ewald contribution        =   -9924.69543483 Ry
     one-center paw contrib.   =  -44626.72630203 Ry
      -> PAW hartree energy AE =      95.88075569 Ry
      -> PAW hartree energy PS =     -96.11729898 Ry
      -> PAW xc energy AE      =    -798.42786176 Ry
      -> PAW xc energy PS      =      33.30806050 Ry
      -> total E_H with PAW    =    6705.85965409 Ry
      -> total E_XC with PAW   =   -5321.02200732 Ry

     convergence has been achieved in   1 iterations


     -----------------------------------------------
     Non-local corr. energy    =      46.32853963 Ry
     -----------------------------------------------


     Forces acting on atoms (cartesian axes, Ry/au):

     atom    1 type  1   force =     0.00000041   -0.00000543    0.00000192
     atom    2 type  1   force =     0.00018436   -0.00030802    0.00001088
     atom    3 type  1   force =    -0.00025855    0.00044522    0.00000304
     atom    4 type  1   force =    -0.00000306    0.00000326   -0.00000068
     atom    5 type  1   force =    -0.00000204    0.00000306    0.00000122
     atom    6 type  1   force =    -0.00018228    0.00030096   -0.00000993
     atom    7 type  1   force =     0.00025601   -0.00044566    0.00000343
     atom    8 type  1   force =    -0.00035338    0.00000444   -0.00001025
     atom    9 type  1   force =     0.00051349   -0.00000346   -0.00000033
     atom   10 type  1   force =    -0.00018594   -0.00031371    0.00000489
     atom   11 type  1   force =     0.00025793    0.00044499    0.00000071
     atom   12 type  1   force =    -0.00000042    0.00027131    0.00049290
     atom   13 type  1   force =    -0.00000097    0.00007571   -0.00020837
     atom   14 type  1   force =     0.00023071   -0.00013347    0.00049421
     atom   15 type  1   force =     0.00006282   -0.00003650   -0.00020746
     atom   16 type  1   force =    -0.00000151    0.00000039   -0.00000161
     atom   17 type  1   force =    -0.00000058   -0.00000107    0.00000143
     atom   18 type  1   force =     0.00023359    0.00013702   -0.00049377
     atom   19 type  1   force =     0.00006570    0.00003800    0.00021058
     atom   20 type  1   force =     0.00000149    0.00000332   -0.00000056
     atom   21 type  1   force =     0.00000282    0.00000329    0.00000090
     atom   22 type  1   force =    -0.00023360   -0.00013455    0.00049358
     atom   23 type  1   force =    -0.00006314   -0.00003573   -0.00020596
     atom   24 type  1   force =     0.00035288   -0.00000116    0.00000018
     atom   25 type  1   force =    -0.00051372   -0.00000093    0.00000258
     atom   26 type  1   force =    -0.00023328    0.00013634   -0.00049533
     atom   27 type  1   force =    -0.00006437    0.00003920    0.00021130
     atom   28 type  1   force =    -0.00000023   -0.00026573   -0.00049681
     atom   29 type  1   force =     0.00000158   -0.00006988    0.00020915
     atom   30 type  1   force =     0.00018179    0.00030843   -0.00000515
     atom   31 type  1   force =    -0.00025308   -0.00044486    0.00000395
     atom   32 type  2   force =    -0.00001094    0.00006053   -0.00007921
     atom   33 type  2   force =    -0.00000099   -0.00056432    0.00014623
     atom   34 type  2   force =     0.00004736   -0.00005969   -0.00007063
     atom   35 type  2   force =    -0.00041872    0.00022067    0.00016604
     atom   36 type  2   force =     0.00001267   -0.00013275    0.00007300
     atom   37 type  2   force =    -0.00015292    0.00020235   -0.00007833
     atom   38 type  2   force =    -0.00011474    0.00009515    0.00007230
     atom   39 type  2   force =     0.00009093   -0.00021502   -0.00007138
     atom   40 type  2   force =    -0.00024518    0.00014104   -0.00033931
     atom   41 type  2   force =     0.00011669   -0.00006202   -0.00013116
     atom   42 type  2   force =    -0.00004739   -0.00004686   -0.00005982
     atom   43 type  2   force =     0.00047182    0.00025265    0.00015731
     atom   44 type  2   force =     0.00000576   -0.00026372   -0.00031779
     atom   45 type  2   force =     0.00001315    0.00015052   -0.00015032
     atom   46 type  2   force =    -0.00006090   -0.00002380   -0.00018192
     atom   47 type  2   force =    -0.00001471   -0.00000078   -0.00037880
     atom   48 type  2   force =     0.00000571    0.00007181   -0.00018488
     atom   49 type  2   force =     0.00000317    0.00001927   -0.00037591
     atom   50 type  2   force =    -0.00012787    0.00004646    0.00007371
     atom   51 type  2   force =     0.00022882    0.00002563   -0.00007415
     atom   52 type  2   force =    -0.00001292   -0.00012833    0.00007826
     atom   53 type  2   force =     0.00014828    0.00019397   -0.00007622
     atom   54 type  2   force =     0.00007196   -0.00002314   -0.00018019
     atom   55 type  2   force =     0.00002507   -0.00000278   -0.00037630
     atom   56 type  2   force =     0.00025015    0.00013737   -0.00035157
     atom   57 type  2   force =    -0.00011854   -0.00007800   -0.00012156
     atom   58 type  2   force =     0.00012725    0.00003848    0.00006768
     atom   59 type  2   force =    -0.00024750    0.00001941   -0.00007176
     atom   60 type  2   force =    -0.00000523    0.00000437    0.00053032
     atom   61 type  2   force =    -0.00000789    0.00000462    0.00038944
     atom   62 type  2   force =     0.00010461    0.00009718    0.00007156
     atom   63 type  2   force =    -0.00009958   -0.00021908   -0.00006721
     atom   64 type  2   force =    -0.00046545   -0.00029315   -0.00014164
     atom   65 type  2   force =     0.00005373    0.00001880    0.00004130
     atom   66 type  2   force =    -0.00013154    0.00005136    0.00015593
     atom   67 type  2   force =     0.00023341   -0.00014138    0.00031621
     atom   68 type  2   force =     0.00000852    0.00001833    0.00038931
     atom   69 type  2   force =     0.00005381    0.00004265    0.00016709
     atom   70 type  2   force =    -0.00001112   -0.00012338    0.00015171
     atom   71 type  2   force =    -0.00000569    0.00027497    0.00031352
     atom   72 type  2   force =     0.00041837   -0.00026051   -0.00015317
     atom   73 type  2   force =    -0.00005315    0.00003262    0.00005127
     atom   74 type  2   force =     0.00000510    0.00053175   -0.00012159
     atom   75 type  2   force =     0.00001262   -0.00006690    0.00005459
     atom   76 type  2   force =    -0.00010257    0.00024033    0.00008765
     atom   77 type  2   force =     0.00010843   -0.00007707   -0.00008636
     atom   78 type  2   force =     0.00013676   -0.00018126    0.00008365
     atom   79 type  2   force =    -0.00002335    0.00014048   -0.00008914
     atom   80 type  2   force =     0.00023517   -0.00003079    0.00008440
     atom   81 type  2   force =    -0.00013004   -0.00004872   -0.00008681
     atom   82 type  2   force =     0.00013094    0.00006373    0.00014235
     atom   83 type  2   force =    -0.00024047   -0.00013865    0.00032964
     atom   84 type  2   force =     0.00011261    0.00024315    0.00008367
     atom   85 type  2   force =    -0.00009723   -0.00008014   -0.00008340
     atom   86 type  2   force =     0.00000735    0.00000968   -0.00037904
     atom   87 type  2   force =     0.00000524    0.00000456   -0.00054310
     atom   88 type  2   force =    -0.00022224   -0.00003709    0.00008965
     atom   89 type  2   force =     0.00012770   -0.00005726   -0.00009171
     atom   90 type  2   force =    -0.00000371   -0.00002158    0.00038891
     atom   91 type  2   force =    -0.00000676   -0.00006988    0.00016844
     atom   92 type  2   force =    -0.00001790    0.00002007    0.00038761
     atom   93 type  2   force =    -0.00006504    0.00004170    0.00016694
     atom   94 type  2   force =    -0.00013307   -0.00017528    0.00008525
     atom   95 type  2   force =     0.00002318    0.00013578   -0.00009098
     atom   96 type  2   force =     0.00000350   -0.00004288    0.00002982
     The non-local contrib.  to forces
     atom    1 type  1   force =     0.00000377   -0.00001163   -0.00000001
     atom    2 type  1   force =    -0.01976532    0.03434657    0.00006221
     atom    3 type  1   force =     0.00044754   -0.00078177   -0.00001299
     atom    4 type  1   force =     0.00000912   -0.00001877    0.00000085
     atom    5 type  1   force =     0.00000593   -0.00002565    0.00000064
     atom    6 type  1   force =     0.01976475   -0.03438190   -0.00009278
     atom    7 type  1   force =    -0.00043559    0.00073055   -0.00000479
     atom    8 type  1   force =     0.03965979    0.00002677   -0.00005554
     atom    9 type  1   force =    -0.00087621   -0.00001806    0.00002178
     atom   10 type  1   force =     0.01981147    0.03426339   -0.00000295
     atom   11 type  1   force =    -0.00043705   -0.00078179   -0.00000501
     atom   12 type  1   force =     0.00002899    0.00693815   -0.01017470
     atom   13 type  1   force =    -0.00000093    0.00463223    0.00447455
     atom   14 type  1   force =     0.00604400   -0.00352238   -0.01017740
     atom   15 type  1   force =     0.00404149   -0.00236273    0.00448254
     atom   16 type  1   force =     0.00001025   -0.00003273    0.00000194
     atom   17 type  1   force =     0.00000599   -0.00002157    0.00000775
     atom   18 type  1   force =     0.00604048    0.00346520    0.01017175
     atom   19 type  1   force =     0.00403928    0.00230020   -0.00447483
     atom   20 type  1   force =     0.00001684   -0.00002502   -0.00000143
     atom   21 type  1   force =    -0.00000076   -0.00002778   -0.00000217
     atom   22 type  1   force =    -0.00601329   -0.00353838   -0.01018437
     atom   23 type  1   force =    -0.00403296   -0.00235603    0.00446125
     atom   24 type  1   force =    -0.03964366   -0.00008741    0.00008216
     atom   25 type  1   force =     0.00088508   -0.00002550    0.00001033
     atom   26 type  1   force =    -0.00602533    0.00344932    0.01017986
     atom   27 type  1   force =    -0.00404113    0.00230410   -0.00448085
     atom   28 type  1   force =    -0.00000722   -0.00700957    0.01018612
     atom   29 type  1   force =     0.00000292   -0.00467953   -0.00445087
     atom   30 type  1   force =    -0.01976532   -0.03431435   -0.00001720
     atom   31 type  1   force =     0.00043108    0.00072144   -0.00000809
     atom   32 type  2   force =     0.00000633    0.00037342    0.24326355
     atom   33 type  2   force =     0.00001348   -0.04086807    0.20907068
     atom   34 type  2   force =     0.00032956   -0.00018494    0.24329449
     atom   35 type  2   force =    -0.03508945    0.02027506    0.20920984
     atom   36 type  2   force =    -0.00001871   -0.00030048    0.24404994
     atom   37 type  2   force =     0.01282027   -0.00258765    0.25686923
     atom   38 type  2   force =    -0.00028877    0.00016435    0.24404465
     atom   39 type  2   force =     0.00415639    0.01245898    0.25689135
     atom   40 type  2   force =    -0.00670880    0.00385565    0.23411321
     atom   41 type  2   force =     0.00327124   -0.00189682    0.25130994
     atom   42 type  2   force =    -0.00033149   -0.00018620    0.24329202
     atom   43 type  2   force =     0.03532153    0.02040039    0.20910948
     atom   44 type  2   force =    -0.00000735   -0.00768904    0.23417611
     atom   45 type  2   force =    -0.00000657    0.00382094    0.25131170
     atom   46 type  2   force =    -0.00072253   -0.00040569    0.24218230
     atom   47 type  2   force =     0.00375886    0.00219383    0.25427206
     atom   48 type  2   force =     0.00000535    0.00082073    0.24217547
     atom   49 type  2   force =    -0.00000982   -0.00435616    0.25426775
     atom   50 type  2   force =    -0.00027825    0.00020298    0.24404687
     atom   51 type  2   force =    -0.00871775   -0.00979205    0.25689038
     atom   52 type  2   force =     0.00001988   -0.00030176    0.24405546
     atom   53 type  2   force =    -0.01281881   -0.00259954    0.25687076
     atom   54 type  2   force =     0.00071933   -0.00039888    0.24218874
     atom   55 type  2   force =    -0.00378105    0.00219476    0.25428310
     atom   56 type  2   force =     0.00669182    0.00385084    0.23414065
     atom   57 type  2   force =    -0.00328779   -0.00190030    0.25133080
     atom   58 type  2   force =     0.00026950    0.00019771    0.24404367
     atom   59 type  2   force =     0.00866294   -0.00977342    0.25687323
     atom   60 type  2   force =    -0.00000110    0.00001866    0.24751799
     atom   61 type  2   force =    -0.00001191    0.00002361    0.25266062
     atom   62 type  2   force =     0.00028849    0.00016617    0.24404682
     atom   63 type  2   force =    -0.00415023    0.01240929    0.25687563
     atom   64 type  2   force =    -0.03534410   -0.02037482   -0.20910877
     atom   65 type  2   force =     0.00030430    0.00021114   -0.24330016
     atom   66 type  2   force =    -0.00331598    0.00187756   -0.25129764
     atom   67 type  2   force =     0.00667349   -0.00387412   -0.23414162
     atom   68 type  2   force =    -0.00379095   -0.00217427   -0.25426231
     atom   69 type  2   force =     0.00069954    0.00041938   -0.24218950
     atom   70 type  2   force =    -0.00002231   -0.00376465   -0.25130742
     atom   71 type  2   force =    -0.00001226    0.00770937   -0.23417817
     atom   72 type  2   force =     0.03510884   -0.02024822   -0.20920222
     atom   73 type  2   force =    -0.00031349    0.00022244   -0.24329933
     atom   74 type  2   force =    -0.00000458    0.04081205   -0.20905069
     atom   75 type  2   force =     0.00001188   -0.00037986   -0.24329656
     atom   76 type  2   force =    -0.00415374   -0.01241995   -0.25688640
     atom   77 type  2   force =     0.00030037   -0.00012659   -0.24405783
     atom   78 type  2   force =    -0.01280746    0.00263908   -0.25685880
     atom   79 type  2   force =     0.00003261    0.00034530   -0.24405596
     atom   80 type  2   force =    -0.00868092    0.00982328   -0.25686587
     atom   81 type  2   force =    -0.00026702   -0.00015193   -0.24405760
     atom   82 type  2   force =     0.00329836    0.00188949   -0.25132052
     atom   83 type  2   force =    -0.00667353   -0.00386205   -0.23416289
     atom   84 type  2   force =     0.00415656   -0.01237137   -0.25686744
     atom   85 type  2   force =    -0.00028022   -0.00013345   -0.24405785
     atom   86 type  2   force =     0.00000762    0.00002538   -0.25265513
     atom   87 type  2   force =     0.00000193    0.00002283   -0.24752814
     atom   88 type  2   force =     0.00871299    0.00984119   -0.25688789
     atom   89 type  2   force =     0.00026046   -0.00016039   -0.24406394
     atom   90 type  2   force =    -0.00000263    0.00435224   -0.25426759
     atom   91 type  2   force =    -0.00000912   -0.00083314   -0.24219365
     atom   92 type  2   force =     0.00377221   -0.00216606   -0.25427458
     atom   93 type  2   force =    -0.00072034    0.00041947   -0.24219623
     atom   94 type  2   force =     0.01280033    0.00264025   -0.25686207
     atom   95 type  2   force =    -0.00002464    0.00033956   -0.24406210
     atom   96 type  2   force =     0.00000114   -0.00004126    0.00004676
     The ionic contribution  to forces
     atom    1 type  1   force =     0.00047775   -0.00101889    0.00164121
     atom    2 type  1   force =     0.33028570   -0.57750116   -0.00385775
     atom    3 type  1   force =    -0.15739467    0.27172613    0.00163878
     atom    4 type  1   force =    -0.00092217    0.00149322   -0.00197890
     atom    5 type  1   force =    -0.00068805    0.00135139    0.00010763
     atom    6 type  1   force =    -0.33033683    0.57831735    0.00053090
     atom    7 type  1   force =     0.15667558   -0.27050472   -0.00005322
     atom    8 type  1   force =    -0.66621180   -0.00289278    0.00146395
     atom    9 type  1   force =     0.31320216   -0.00071699    0.00055386
     atom   10 type  1   force =    -0.33227060   -0.57599215   -0.00117265
     atom   11 type  1   force =     0.15712686    0.27146686    0.00138589
     atom   12 type  1   force =    -0.00090766    0.04193407    0.19463901
     atom   13 type  1   force =    -0.00024351   -0.01151839   -0.09182757
     atom   14 type  1   force =     0.03318393   -0.01878206    0.19581563
     atom   15 type  1   force =    -0.01193305    0.00730211   -0.09229416
     atom   16 type  1   force =    -0.00078387    0.00048805   -0.00016261
     atom   17 type  1   force =    -0.00054496    0.00015280    0.00185992
     atom   18 type  1   force =     0.03524869    0.02039377   -0.19690496
     atom   19 type  1   force =    -0.01089038   -0.00575575    0.09382213
     atom   20 type  1   force =     0.00025626    0.00096909   -0.00103092
     atom   21 type  1   force =     0.00057037    0.00085271    0.00107649
     atom   22 type  1   force =    -0.03561003   -0.01913206    0.19538894
     atom   23 type  1   force =     0.01085262    0.00691878   -0.09106264
     atom   24 type  1   force =     0.66562404    0.00264613   -0.00296333
     atom   25 type  1   force =    -0.31345819    0.00035176    0.00242793
     atom   26 type  1   force =    -0.03499879    0.02089235   -0.19791633
     atom   27 type  1   force =     0.01095753   -0.00556150    0.09425938
     atom   28 type  1   force =     0.00057453   -0.03882954   -0.19782273
     atom   29 type  1   force =     0.00017336    0.01367697    0.09282175
     atom   30 type  1   force =     0.33261624    0.57607144   -0.00121783
     atom   31 type  1   force =    -0.15564759   -0.27070347    0.00152760
     atom   32 type  2   force =     0.00143946   -0.34886061  -14.06074419
     atom   33 type  2   force =     0.00064136   -1.11042594  -14.01733508
     atom   34 type  2   force =    -0.30158296    0.17232139  -14.06011321
     atom   35 type  2   force =    -0.96811946    0.55691705  -14.01921801
     atom   36 type  2   force =    -0.11750270    0.11983688  -14.21726354
     atom   37 type  2   force =    -0.60650478    0.24638116  -14.62330963
     atom   38 type  2   force =     0.04512430   -0.15957715  -14.21804346
     atom   39 type  2   force =    -0.08854968   -0.64888006  -14.62270921
     atom   40 type  2   force =     0.41406719   -0.23941620  -13.90281092
     atom   41 type  2   force =     0.06500537   -0.03836716  -14.45339497
     atom   42 type  2   force =     0.30288377    0.17126287  -14.06114820
     atom   43 type  2   force =     0.96224870    0.55260012  -14.01692677
     atom   44 type  2   force =     0.00027588    0.47989824  -13.89922006
     atom   45 type  2   force =    -0.00025029    0.07588101  -14.45628976
     atom   46 type  2   force =     0.02159317    0.01427107  -14.33655431
     atom   47 type  2   force =    -0.06288418   -0.03532492  -14.56531178
     atom   48 type  2   force =    -0.00109926   -0.02586814  -14.33687165
     atom   49 type  2   force =    -0.00025889    0.07186791  -14.56551664
     atom   50 type  2   force =     0.16130617    0.03944463  -14.21882832
     atom   51 type  2   force =     0.51879288    0.40006566  -14.62326955
     atom   52 type  2   force =     0.11749717    0.11916314  -14.21787318
     atom   53 type  2   force =     0.60682714    0.24802116  -14.62312834
     atom   54 type  2   force =    -0.02227629    0.01344796  -14.33621238
     atom   55 type  2   force =     0.06285026   -0.03556572  -14.56591874
     atom   56 type  2   force =    -0.41481897   -0.24008265  -13.90018727
     atom   57 type  2   force =    -0.06503389   -0.03807900  -14.45644180
     atom   58 type  2   force =    -0.16223725    0.04038759  -14.21805917
     atom   59 type  2   force =    -0.51606185    0.40064340  -14.62382046
     atom   60 type  2   force =    -0.00002017    0.00034757  -14.29298855
     atom   61 type  2   force =     0.00074703   -0.00017653  -14.61095879
     atom   62 type  2   force =    -0.04424116   -0.16061307  -14.21789329
     atom   63 type  2   force =     0.08911685   -0.64783011  -14.62313066
     atom   64 type  2   force =    -0.96102059   -0.55791373   14.01413875
     atom   65 type  2   force =    -0.30034182   -0.17514203   14.06401857
     atom   66 type  2   force =    -0.06650326    0.03799937   14.45129642
     atom   67 type  2   force =    -0.41449732    0.23910953   13.90448862
     atom   68 type  2   force =     0.06223569    0.03709176   14.56308707
     atom   69 type  2   force =    -0.02234457   -0.01247909   14.33904390
     atom   70 type  2   force =     0.00166535   -0.07567678   14.45353681
     atom   71 type  2   force =     0.00047837   -0.47850185   13.90328225
     atom   72 type  2   force =     0.96910049   -0.56159875   14.01593015
     atom   73 type  2   force =     0.30061449   -0.17586464   14.06362016
     atom   74 type  2   force =     0.00076707    1.10902365   14.01340984
     atom   75 type  2   force =    -0.00061184    0.34685900   14.06400761
     atom   76 type  2   force =     0.08709724    0.65156440   14.62119807
     atom   77 type  2   force =    -0.04609220    0.16065812   14.22089124
     atom   78 type  2   force =     0.60401976   -0.24493730   14.62122119
     atom   79 type  2   force =     0.11548498   -0.11925095   14.22053734
     atom   80 type  2   force =     0.51469046   -0.40248237   14.62089678
     atom   81 type  2   force =     0.16115035   -0.04221808   14.21978568
     atom   82 type  2   force =     0.06668505    0.03623257   14.45353775
     atom   83 type  2   force =     0.41523829    0.23903658   13.90246398
     atom   84 type  2   force =    -0.08728311    0.64961023   14.62079038
     atom   85 type  2   force =     0.04547284    0.16092066   14.22050104
     atom   86 type  2   force =    -0.00107379    0.00058057   14.60878431
     atom   87 type  2   force =    -0.00025396    0.00014776   14.29553449
     atom   88 type  2   force =    -0.51939829   -0.40230692   14.62066955
     atom   89 type  2   force =    -0.16130952   -0.04164463   14.22038486
     atom   90 type  2   force =    -0.00039292   -0.07221788   14.56290669
     atom   91 type  2   force =     0.00033029    0.02593511   14.33888364
     atom   92 type  2   force =    -0.06172908    0.03637505   14.56355567
     atom   93 type  2   force =     0.02304858   -0.01244641   14.33867297
     atom   94 type  2   force =    -0.60461312   -0.24801563   14.62058935
     atom   95 type  2   force =    -0.11565288   -0.11937668   14.22077594
     atom   96 type  2   force =     0.00108061   -0.00085774   -0.00164461
     The local contribution  to forces
     atom    1 type  1   force =    -0.00048282    0.00105918   -0.00160267
     atom    2 type  1   force =    -0.31062646    0.54339154    0.00379826
     atom    3 type  1   force =     0.15669569   -0.27050102   -0.00160400
     atom    4 type  1   force =     0.00092348   -0.00149412    0.00195372
     atom    5 type  1   force =     0.00069105   -0.00134005   -0.00008490
     atom    6 type  1   force =     0.31071408   -0.54420737   -0.00050742
     atom    7 type  1   force =    -0.15597933    0.26933456    0.00009853
     atom    8 type  1   force =     0.62686722    0.00287522   -0.00142705
     atom    9 type  1   force =    -0.31182373    0.00073998   -0.00055980
     atom   10 type  1   force =     0.31253257    0.54198943    0.00121740
     atom   11 type  1   force =    -0.15646298   -0.27024609   -0.00138079
     atom   12 type  1   force =     0.00085976   -0.04852535   -0.18414844
     atom   13 type  1   force =     0.00022618    0.00702440    0.08726645
     atom   14 type  1   force =    -0.03890241    0.02210494   -0.18533650
     atom   15 type  1   force =     0.00802492   -0.00502549    0.08773578
     atom   16 type  1   force =     0.00077283   -0.00043844    0.00012584
     atom   17 type  1   force =     0.00053897   -0.00011871   -0.00183928
     atom   18 type  1   force =    -0.04095288   -0.02366692    0.18638714
     atom   19 type  1   force =     0.00699444    0.00353203   -0.08922777
     atom   20 type  1   force =    -0.00028585   -0.00096228    0.00100838
     atom   21 type  1   force =    -0.00057862   -0.00083776   -0.00105177
     atom   22 type  1   force =     0.04126615    0.02247463   -0.18491738
     atom   23 type  1   force =    -0.00697510   -0.00464067    0.08653851
     atom   24 type  1   force =    -0.62629505   -0.00247761    0.00278344
     atom   25 type  1   force =     0.31206988   -0.00028552   -0.00238145
     atom   26 type  1   force =     0.04071798   -0.02414738    0.18737455
     atom   27 type  1   force =    -0.00703652    0.00334115   -0.08964622
     atom   28 type  1   force =    -0.00055010    0.04544914    0.18727254
     atom   29 type  1   force =    -0.00015843   -0.00916389   -0.08824009
     atom   30 type  1   force =    -0.31296681   -0.54204721    0.00112616
     atom   31 type  1   force =     0.15497872    0.26954870   -0.00145975
     atom   32 type  2   force =    -0.00142015    0.34858560   13.82267283
     atom   33 type  2   force =    -0.00064993    1.15000567   13.81295475
     atom   34 type  2   force =     0.30134636   -0.17212610   13.82199188
     atom   35 type  2   force =     1.00215578   -0.57655221   13.81474990
     atom   36 type  2   force =     0.11754243   -0.11972714   13.97854670
     atom   37 type  2   force =     0.59398132   -0.24371417   14.37192230
     atom   38 type  2   force =    -0.04497802    0.15949449   13.97934008
     atom   39 type  2   force =     0.08462405    0.63661481   14.37129434
     atom   40 type  2   force =    -0.40784925    0.23584852   13.67364316
     atom   41 type  2   force =    -0.06812747    0.04016435   14.20720779
     atom   42 type  2   force =    -0.30264299   -0.17109412   13.82300535
     atom   43 type  2   force =    -0.99650377   -0.57235838   13.81256079
     atom   44 type  2   force =    -0.00027885   -0.47279963   13.66996296
     atom   45 type  2   force =     0.00023038   -0.07954087   14.21012711
     atom   46 type  2   force =    -0.02096779   -0.01394097   14.09947737
     atom   47 type  2   force =     0.05919908    0.03315666   14.31602001
     atom   48 type  2   force =     0.00108155    0.02516146   14.09980575
     atom   49 type  2   force =     0.00026538   -0.06759611   14.31621920
     atom   50 type  2   force =    -0.16119208   -0.03955278   13.98011491
     atom   51 type  2   force =    -0.51011364   -0.39056378   14.37186049
     atom   52 type  2   force =    -0.11753834   -0.11905965   13.97914501
     atom   53 type  2   force =    -0.59429207   -0.24531897   14.37174574
     atom   54 type  2   force =     0.02163421   -0.01312709   14.09913120
     atom   55 type  2   force =    -0.05916069    0.03340317   14.31661188
     atom   56 type  2   force =     0.40860005    0.23652146   13.67102908
     atom   57 type  2   force =     0.06817056    0.03990903   14.21020135
     atom   58 type  2   force =     0.16212939   -0.04047356   13.97935833
     atom   59 type  2   force =     0.50747209   -0.39114368   14.37241639
     atom   60 type  2   force =     0.00003232   -0.00037556   14.05131656
     atom   61 type  2   force =    -0.00071918    0.00014637   14.36413666
     atom   62 type  2   force =     0.04411560    0.16052259   13.97919109
     atom   63 type  2   force =    -0.08517849    0.63561446   14.37172551
     atom   64 type  2   force =     0.99528650    0.57769926  -13.80980879
     atom   65 type  2   force =     0.30012229    0.17500014  -13.82582875
     atom   66 type  2   force =     0.06968728   -0.03974813  -14.20516610
     atom   67 type  2   force =     0.40833546   -0.23551510  -13.67524954
     atom   68 type  2   force =    -0.05850243   -0.03497388  -14.31382954
     atom   69 type  2   force =     0.02175676    0.01210609  -14.10193451
     atom   70 type  2   force =    -0.00161680    0.07924077  -14.20739396
     atom   71 type  2   force =    -0.00045714    0.47137054  -13.67400528
     atom   72 type  2   force =    -1.00314609    0.58125898  -13.81150572
     atom   73 type  2   force =    -0.30039156    0.17568285  -13.82545625
     atom   74 type  2   force =    -0.00076820   -1.14850054  -13.80911111
     atom   75 type  2   force =     0.00057289   -0.34656055  -13.82585005
     atom   76 type  2   force =    -0.08315550   -0.63937001  -14.36981455
     atom   77 type  2   force =     0.04594689   -0.16064484  -13.98214555
     atom   78 type  2   force =    -0.59148334    0.24218456  -14.36986865
     atom   79 type  2   force =    -0.11552099    0.11908156  -13.98178943
     atom   80 type  2   force =    -0.50606572    0.39295416  -14.36953544
     atom   81 type  2   force =    -0.16104421    0.04228103  -13.98104235
     atom   82 type  2   force =    -0.06985030   -0.03802259  -14.20735561
     atom   83 type  2   force =    -0.40905953   -0.23545474  -13.67324139
     atom   84 type  2   force =     0.08331967   -0.63746250  -14.36942146
     atom   85 type  2   force =    -0.04536897   -0.16089280  -13.98175974
     atom   86 type  2   force =     0.00105102   -0.00062556  -14.36199297
     atom   87 type  2   force =     0.00024182   -0.00017882  -14.05382759
     atom   88 type  2   force =     0.51070723    0.39277752  -14.36929660
     atom   89 type  2   force =     0.16121373    0.04173369  -13.98162543
     atom   90 type  2   force =     0.00040122    0.06796143  -14.31364546
     atom   91 type  2   force =    -0.00030720   -0.02521125  -14.10177301
     atom   92 type  2   force =     0.05803422   -0.03426973  -14.31428261
     atom   93 type  2   force =    -0.02241907    0.01207764  -14.10156014
     atom   94 type  2   force =     0.59207070    0.24524017  -14.36923980
     atom   95 type  2   force =     0.11568071    0.11922291  -13.98201651
     atom   96 type  2   force =    -0.00108302    0.00096517    0.00154865
     The core correction contribution to forces
     atom    1 type  1   force =    -0.00000008    0.00000101    0.00000026
     atom    2 type  1   force =     0.00035579   -0.00061906   -0.00000233
     atom    3 type  1   force =     0.00001532   -0.00002620    0.00000008
     atom    4 type  1   force =     0.00000042   -0.00000057   -0.00000036
     atom    5 type  1   force =     0.00000032   -0.00000034   -0.00000003
     atom    6 type  1   force =    -0.00035526    0.00061936    0.00000185
     atom    7 type  1   force =    -0.00001504    0.00002685    0.00000007
     atom    8 type  1   force =    -0.00071403   -0.00000104    0.00000201
     atom    9 type  1   force =    -0.00003046    0.00000065    0.00000004
     atom   10 type  1   force =    -0.00035679   -0.00061677    0.00000005
     atom   11 type  1   force =    -0.00001565   -0.00002626    0.00000011
     atom   12 type  1   force =    -0.00000068   -0.00014232    0.00012538
     atom   13 type  1   force =    -0.00000008   -0.00011609   -0.00007968
     atom   14 type  1   force =    -0.00012272    0.00007117    0.00012508
     atom   15 type  1   force =    -0.00010024    0.00005817   -0.00007979
     atom   16 type  1   force =     0.00000007    0.00000056   -0.00000009
     atom   17 type  1   force =     0.00000003    0.00000046    0.00000026
     atom   18 type  1   force =    -0.00012293   -0.00007119   -0.00012553
     atom   19 type  1   force =    -0.00010047   -0.00005783    0.00007998
     atom   20 type  1   force =    -0.00000062   -0.00000043   -0.00000013
     atom   21 type  1   force =    -0.00000040   -0.00000030    0.00000022
     atom   22 type  1   force =     0.00012224    0.00007165    0.00012520
     atom   23 type  1   force =     0.00009995    0.00005807   -0.00007941
     atom   24 type  1   force =     0.00071403    0.00000254   -0.00000254
     atom   25 type  1   force =     0.00003044    0.00000093    0.00000035
     atom   26 type  1   force =     0.00012310   -0.00007076   -0.00012568
     atom   27 type  1   force =     0.00010077   -0.00005794    0.00008010
     atom   28 type  1   force =     0.00000045    0.00014177   -0.00012565
     atom   29 type  1   force =     0.00000005    0.00011527    0.00007967
     atom   30 type  1   force =     0.00035583    0.00061719   -0.00000031
     atom   31 type  1   force =     0.00001517    0.00002700    0.00000039
     atom   32 type  2   force =    -0.00000034    0.00001240   -0.00521438
     atom   33 type  2   force =    -0.00000051    0.00080492   -0.00456187
     atom   34 type  2   force =     0.00000837   -0.00000272   -0.00521451
     atom   35 type  2   force =     0.00068959   -0.00039707   -0.00456721
     atom   36 type  2   force =     0.00002624    0.00002370   -0.00525791
     atom   37 type  2   force =    -0.00037475    0.00007556   -0.00556288
     atom   38 type  2   force =     0.00003125    0.00001496   -0.00525848
     atom   39 type  2   force =    -0.00012483   -0.00036000   -0.00556380
     atom   40 type  2   force =     0.00020547   -0.00011643   -0.00524991
     atom   41 type  2   force =    -0.00007653    0.00004630   -0.00528470
     atom   42 type  2   force =    -0.00000920   -0.00000278   -0.00521390
     atom   43 type  2   force =    -0.00069534   -0.00039989   -0.00456395
     atom   44 type  2   force =    -0.00000041    0.00023948   -0.00525119
     atom   45 type  2   force =    -0.00000043   -0.00008517   -0.00528565
     atom   46 type  2   force =     0.00000914    0.00000810   -0.00525529
     atom   47 type  2   force =    -0.00009123   -0.00004985   -0.00539888
     atom   48 type  2   force =    -0.00000077   -0.00000878   -0.00525241
     atom   49 type  2   force =    -0.00000062    0.00010716   -0.00539598
     atom   50 type  2   force =     0.00000419   -0.00003154   -0.00525490
     atom   51 type  2   force =     0.00025029    0.00029004   -0.00556043
     atom   52 type  2   force =    -0.00002707    0.00002357   -0.00525671
     atom   53 type  2   force =     0.00037374    0.00007548   -0.00556161
     atom   54 type  2   force =    -0.00001010    0.00000798   -0.00525430
     atom   55 type  2   force =     0.00009037   -0.00004987   -0.00539796
     atom   56 type  2   force =    -0.00020582   -0.00011602   -0.00525047
     atom   57 type  2   force =     0.00007564    0.00004637   -0.00528368
     atom   58 type  2   force =    -0.00000535   -0.00003137   -0.00525482
     atom   59 type  2   force =    -0.00025061    0.00028929   -0.00555991
     atom   60 type  2   force =    -0.00000050    0.00000298   -0.00533691
     atom   61 type  2   force =    -0.00000045    0.00000289   -0.00544732
     atom   62 type  2   force =    -0.00003167    0.00001494   -0.00525720
     atom   63 type  2   force =     0.00012391   -0.00035867   -0.00556193
[...]
              0.222529776781912E+03
              0.101045998918400E+03
              0.164473896514960E+03
             -0.920872244024744E+01
              0.505456145122394E+03
              0.847013089270804E+02
             -0.780113448130353E+02
              0.923668286783686E+01
             -0.511478904484152E+02
              0.415007262700282E+03
             -0.237733383733425E+02
              0.892684141478192E+02
              0.299286524834894E+03
              0.656854399032850E+02
             -0.236207717955867E+03
             -0.344233592239359E+03
              0.363206922258360E+01
             -0.387172933142835E+03
              0.131353758358145E+03
             -0.784088661720721E+02
             -0.181784321563758E+03
              0.163536049613747E+03
              0.627958356152481E+02
              0.147529174673073E+03
              0.130905492474392E+02
              0.234907416545637E+03
             -0.383905836765500E+03
             -0.351414920054558E+02
             -0.334816759430953E+03
              0.603941456069201E+02
              0.181324471442889E+03
             -0.334206966629297E+02
             -0.126085499896894E+03
              0.269784858939797E+03
             -0.125089473605948E+03
              0.878695325012980E+02
             -0.784629417979709E+02
              0.192622634270198E+03
              0.232580729581870E+03
             -0.100314648179035E+03
              0.200114298712138E+03
              0.767794059335874E+02
             -0.206305058949070E+03
             -0.123444895457446E+03
              0.332765973528349E+03
              0.157689148851373E+03
             -0.152283639136861E+02
             -0.447680134736693E+02
              0.489118007435119E+03
              0.293309623050232E+03
              0.107482655499872E+03
             -0.313362154885675E+03
              0.490931734600934E+03
             -0.222041611964019E+03
             -0.275221854972517E+03
             -0.426290849088582E+03
              0.205478409358159E+03
             -0.390062157630777E+03
              0.169163946787139E+03
              0.277751320095630E+03
              0.205841891205375E+03
              0.436596821029984E+02
              0.122700392967415E+03
             -0.307378787041297E+03
             -0.109302380768989E+03
             -0.990966077881828E+02
              0.148534751724374E+03
              0.331510092485255E+03
              0.326847731398432E+03
              0.250182660469673E+03
             -0.617282484036377E+02
              0.888630819695563E+02
              0.124768659938354E+02
             -0.982401330048901E+02
              0.146608864165591E+03
              0.140317645344236E+03
             -0.200220304123133E+03
             -0.202792898118398E+03
             -0.929326809456554E+02
              0.215346587711309E+03
              0.109636177774903E+03
             -0.146676853407905E+03
             -0.255507923502340E+03
             -0.350978191125148E+03
              0.732859864856658E+01
              0.999150161889470E+02
             -0.135776141757447E+03
              0.498591935538823E+03
              0.466227992951508E+01
             -0.579125978104297E+03
              0.145223232761384E+03
              0.239038961532296E+03
             -0.868010528256746E+02
              0.915604512287234E+01
             -0.130981970539898E+03
              0.222377834328940E+03
              0.109753166689621E+03
             -0.292660333064729E+03
              0.347525212056182E+03
              0.236369786698638E+02
             -0.138808868012103E+03
             -0.171080098459924E+03
              0.696705707649900E+03
              0.311457217917765E+03
             -0.781516044294353E+02
              0.171852742962316E+03
             -0.339509646061922E+03
             -0.736720544905625E+02
             -0.301764001229917E+03
              0.116602645686944E+03
              0.216644447510228E+03
              0.238227871239444E+03
             -0.104399812805268E+03
              0.180207024022775E+02
              0.296809088112114E+03
              0.949525276134632E+02
              0.176895499306585E+03
              0.719766969930693E+02
             -0.398466859275220E+02
              0.773346084048285E+00
             -0.552278207063144E+02
              0.615075851310680E+02
              0.206660660688663E+02
             -0.269655732368282E+03
              0.413051531439026E+03
              0.158978691601254E+03
             -0.292744983710890E+03
             -0.215118865135513E+03
             -0.303647025217566E+03
             -0.131611633371704E+03
             -0.954743473392755E+02
             -0.240197075475964E+03
             -0.237094242054152E+03
              0.285494509795638E+03
              0.227246918919617E+03
             -0.313788100003449E+02
              0.341148855720713E+03
              0.491685649964174E+02
             -0.548189843093273E+03
              0.294327417340563E+03
              0.502603771488571E+02
              0.231145390380993E+03
              0.312373844409346E+02
              0.260320151369503E+02
              0.470699855882497E+02
              0.124921559609677E+03
             -0.228777644048771E+03
             -0.107940884634573E+03
             -0.216267973893660E+03
             -0.179058652026819E+03
              0.745249997504750E+02
             -0.198611986423656E+03
              0.957391126838720E+02
              0.131488579127043E+03
             -0.121713701504223E+03
             -0.777063952705017E+02
              0.508185508599399E+01
              0.340735714130409E+03
              0.515708176935559E+02
              0.327106989328081E+03
              0.117251809075836E+03
             -0.432491388328079E+03
             -0.143406555323409E+03
              0.147494106324732E+03
              0.340309662919477E+03
              0.562134682357074E+02
              0.139860433821196E+03
              0.313147154668334E+03
             -0.181325314091064E+03
             -0.278382899063322E+03
              0.385969593894828E+03
              0.224344258919982E+02
             -0.407979197480643E+03
              0.149052119934631E+03
              0.258172218877975E+03
             -0.661100462725503E+02
             -0.268895591398662E+03
              0.560096820946201E+02
              0.115543609420383E+02
             -0.130682974875456E+03
              0.500158165208031E+02
             -0.435459425396248E+02
              0.606950061762108E+03
              0.176673843269380E+03
             -0.257024591193922E+03
              0.759383390430608E+02
              0.369582523572899E+03
             -0.249780360357281E+03
             -0.650438345913005E+02
             -0.236274467583662E+03
              0.189299497679765E+03
              0.598634444509678E+02
              0.125205789728027E+03
              0.226764378464254E+02
              0.429347979192446E+03
             -0.244170450616900E+03
             -0.192842946628125E+03
             -0.186156935905383E+03
              0.163529713635576E+03
              0.426620878406192E+03
             -0.713501279937517E+02
              0.174539516742492E+03
             -0.247904314495144E+03
              0.475531784122427E+02
             -0.793807482480690E+02
              0.173253959848278E+02
             -0.960880054416241E+02
             -0.783563646199119E+02
             -0.769718917622546E+02
              0.634356482362491E+02
              0.123989581348941E+03
             -0.270364667932929E+03
              0.200159604668985E+03
             -0.322241739578232E+03
              0.243166666826657E+03
             -0.256983192981983E+03
              0.416462973382635E+03
              0.228793195657951E+03
              0.263394872909035E+03
              0.653942019091678E+02
              0.768894655524423E+02
             -0.575392062353355E+03
              0.933915601102045E+02
              0.211173080816043E+02
              0.548575838160468E+02
             -0.938863692591469E+02
              0.444855224565597E+03
             -0.103340871665113E+03
             -0.183896422005089E+03
             -0.430491251006849E+03
             -0.149375872123593E+03
             -0.206552956075590E+03
             -0.179601069992150E+03
             -0.405093411777939E+02
             -0.983688575265105E+02
             -0.124942801730779E+03
             -0.191589288988748E+03
              0.146648663957017E+03
              0.462228304299655E+03
              0.390485196782312E+03
             -0.692681726803794E+02
             -0.469507301880049E+03
             -0.200127465620831E+03
              0.960007603133443E+02
              0.960346563563613E+02
              0.153448915415561E+03
              0.107852955486963E+03
              0.190439482856450E+02
              0.458654510100543E+03
             -0.111506182106954E+03
              0.225384107551699E+03
              0.115870609921747E+03
             -0.156215942056247E+03
             -0.748723718477413E+02
              0.207771505603816E+03
             -0.110975001338757E+03
             -0.682051061010091E+02
             -0.505682201467275E+02
              0.267583094256111E+03
             -0.351951032114582E+03
             -0.282481110755111E+02
             -0.271619007263314E+03
             -0.577104167039538E+03
             -0.151066203808068E+01
             -0.851142564275569E+02
              0.224309794470936E+03
              0.249388833634551E+03
              0.341148282512502E+03
             -0.221871588058101E+03
              0.344832705909467E+03
              0.862050889605825E+02
             -0.128056641856213E+03
              0.460803863237294E+02
             -0.108929456487828E+03
             -0.644484879122119E+02
              0.199220631427177E+03
             -0.164962071085260E+03
              0.442444786514968E+03
             -0.118025266628793E+03
             -0.244522658634705E+03
              0.462668326339957E+03
             -0.250474947020575E+03
             -0.201794792757291E+02
              0.243493504415346E+02
              0.133596684752209E+03
             -0.195539418819183E+03
             -0.148976335044454E+03
              0.237629438575464E+03
             -0.357488160991514E+03
              0.294855856930624E+03
              0.435998873117153E+02
              0.211310516727662E+03
              0.306139759498404E+03
              0.784107234153051E+02
             -0.425406862076812E+03
             -0.184087358011103E+03
             -0.307083372562390E+03
             -0.182749734973438E+03
             -0.486483095114422E+02
              0.658903922579609E+02
             -0.143329412885441E+03
             -0.250526626228202E+01
             -0.427221942615024E+03
              0.238433151147437E+02
             -0.275469797702412E+03
              0.267027300325126E+03
             -0.156591643475041E+03
             -0.376736111462963E+02
              0.201544439053012E+03
              0.398096015690467E+02
              0.187360058307497E+03
             -0.357059137791953E+03
              0.594000992639558E+02
              0.243978286551805E+02
              0.153719995772134E+03
              0.246475027569760E+03
             -0.455747844658747E+02
             -0.280569767962387E+03
             -0.162179560743049E+03
             -0.114497238452269E+03
             -0.337672710862880E+02
              0.261586332819150E+03
              0.169805477344441E+03
             -0.172061596776169E+03
             -0.161456215493748E+03
              0.118496571647300E+03
              0.129085840451616E+03
             -0.348752382771079E+03
              0.813466054652358E+02
              0.250157857358852E+03
             -0.111313564563636E+02
              0.314962224599573E+03
              0.145539489228627E+03
              0.247899511325177E+03
              0.376890688846741E+03
              0.568129612981440E+02
             -0.513537218968343E+03
              0.708633755302814E+02
              0.555266021227652E+03
              0.403569592453129E+03
             -0.278268889917116E+03
              0.251066654088786E+02
              0.361244739567060E+03
              0.313038054023090E+03
              0.137658766065873E+03
             -0.832702219696597E+02
              0.138261671101728E+03
              0.286139730903310E+03
             -0.132248544173660E+03
             -0.851468774453467E+02
              0.193814251514657E+03
             -0.117141122057451E+02
              0.173944660064296E+03
             -0.538148885434015E+02
              0.362857166784789E+03
             -0.138427459582374E+03
              0.832926364401451E+02
             -0.153790784272858E+03
              0.179595025076228E+03
             -0.243728253657018E+02
              0.267612154258019E+03
              0.191586082658080E+02
              0.119740097831544E+03
             -0.170139751209269E+03
             -0.118957499518186E+03
             -0.606508350835450E+02
             -0.552346934881284E+02
              0.291311264358535E+03
              0.143345133269840E+03
              0.353537921652936E+03
              0.326260743757838E+03
              0.915226645507419E+02
              0.164485851187383E+02
              0.347738051284309E+03
              0.195464497672645E+03
              0.281867724223048E+00
              0.338699578432100E+03
             -0.277968363567394E+03
              0.974270367721920E+02
             -0.181034782315123E+03
             -0.491419654068209E+02
              0.468308665181557E+03
             -0.655782988098058E+02
             -0.195060775250054E+02
             -0.509859669043417E+02
              0.384724188935013E+03
             -0.826207015280152E+02
             -0.708762219834944E+01
              0.776196785921343E+03
             -0.229778742466654E+03
             -0.286787492773147E+03
             -0.286982053167543E+03
             -0.183344980699912E+03
              0.167118381529578E+03
             -0.750102717523432E+02
              0.424938570594875E+02
             -0.194659091459835E+02
              0.983505945719805E+02
              0.157961104626542E+03
              0.184123481716468E+03
              0.264901606349107E+03
              0.169742662977849E+03
              0.173058034856052E+03
             -0.320228649260406E+03
             -0.330772926277746E+03
             -0.745610347792875E+02
             -0.295636596389987E+03
              0.469371268710152E+03
              0.395374111870684E+03
              0.186438193130394E+03
              0.514066960238166E+03
             -0.256958097928435E+03
             -0.110611569373982E+03
             -0.159442978287911E+03
              0.444698469928333E+03
 
 BEEF-vdW xc energy contributions
            1 :    -4019.670153466333     
            2 :     3683.397143357784     
            3 :    -3109.974370268358     
            4 :     2452.179490682316     
            5 :    -1853.907826260021     
            6 :     1403.811380891918     
            7 :    -1120.825940014897     
            8 :     967.4290824644013     
            9 :    -878.1002028866942     
           10 :     790.7494065383462     
           11 :    -670.3919713491350     
           12 :     516.8861219380583     
           13 :    -355.3860589894639     
           14 :     217.0280789949220     
           15 :    -121.4922364503818     
           16 :     69.52365012582140     
           17 :    -46.26034173009157     
           18 :     30.99887558646969     
           19 :    -7.720966470136773     
           20 :    -28.22489590782880     
           21 :     69.84384933279398     
           22 :    -104.2874372576380     
           23 :     121.2811029914074     
           24 :    -119.3110274832934     
           25 :     106.2564231550268     
           26 :    -94.66762106352053     
           27 :     94.82195622678773     
           28 :    -109.4070484119475     
           29 :     132.3994391194747     
           30 :    -152.4925381606545     
           31 :    -345.3926579346480     
           32 :    -248.4123086481186     

     Writing all to output data dir ./PbI2.save/
 
     init_run     :     10.66s CPU     18.32s WALL (       1 calls)
     electrons    :    193.62s CPU    199.14s WALL (       1 calls)
     forces       :      7.26s CPU      7.59s WALL (       1 calls)
     stress       :    111.32s CPU    112.36s WALL (       1 calls)

     Called by init_run:
     wfcinit      :      6.04s CPU     13.23s WALL (       1 calls)
     potinit      :      1.36s CPU      1.57s WALL (       1 calls)
     hinit0       :      0.83s CPU      0.90s WALL (       1 calls)

     Called by electrons:
     c_bands      :    183.55s CPU    188.23s WALL (       2 calls)
     sum_band     :      6.33s CPU      6.64s WALL (       2 calls)
     v_of_rho     :      1.68s CPU      1.81s WALL (       2 calls)
     v_h          :      0.02s CPU      0.02s WALL (       2 calls)
     v_xc         :     26.31s CPU     28.36s WALL (      38 calls)
     newd         :      0.59s CPU      0.82s WALL (       2 calls)
     PAW_pot      :      0.55s CPU      0.56s WALL (       2 calls)
     mix_rho      :      0.00s CPU      0.00s WALL (       2 calls)
     vdW_kernel   :      0.28s CPU      0.29s WALL (       1 calls)

     Called by c_bands:
     init_us_2    :      0.15s CPU      0.17s WALL (       4 calls)
     init_us_2:cp :      0.15s CPU      0.17s WALL (       4 calls)
     cegterg      :    182.17s CPU    185.75s WALL (       2 calls)

     Called by sum_band:
     sum_band:wei :      0.00s CPU      0.00s WALL (       2 calls)
     sum_band:loo :      5.58s CPU      5.63s WALL (       2 calls)
     sum_band:buf :      0.00s CPU      0.00s WALL (       2 calls)
     sum_band:ini :      0.13s CPU      0.13s WALL (       2 calls)
     sum_band:cal :      2.39s CPU      2.41s WALL (       2 calls)
     sum_band:bec :      0.04s CPU      0.04s WALL (       2 calls)
     addusdens    :      0.64s CPU      0.90s WALL (       2 calls)
     addusd:skk   :      0.05s CPU      0.05s WALL (       4 calls)
     addusd:dgemm :      0.34s CPU      0.59s WALL (       4 calls)
     addusd:qvan2 :      0.24s CPU      0.24s WALL (       4 calls)

     Called by *egterg:
     cdiaghg      :    129.31s CPU    130.76s WALL (      19 calls)
     cegterg:over :      9.31s CPU      9.59s WALL (      19 calls)
     cegterg:upda :      4.10s CPU      4.20s WALL (      19 calls)
     cegterg:last :      2.56s CPU      2.58s WALL (       2 calls)
     h_psi        :     27.57s CPU     27.93s WALL (      21 calls)
     s_psi        :      5.18s CPU      5.22s WALL (      21 calls)
     g_psi        :      0.04s CPU      0.04s WALL (      19 calls)

     Called by h_psi:
     h_psi:calbec :      6.34s CPU      6.38s WALL (      21 calls)
     vloc_psi     :     15.94s CPU     16.08s WALL (      21 calls)
     add_vuspsi   :      5.17s CPU      5.23s WALL (      21 calls)

     General routines
     calbec       :     14.76s CPU     14.87s WALL (      28 calls)
     fft          :     15.93s CPU     16.12s WALL (    2232 calls)
     ffts         :      0.03s CPU      0.03s WALL (       4 calls)
     fftw         :     18.01s CPU     18.17s WALL (    9826 calls)
     interpolate  :      0.04s CPU      0.04s WALL (       2 calls)
 
     Parallel routines

     PAW routines
     PAW_pot      :      0.55s CPU      0.56s WALL (       2 calls)
 
     PWSCF        :   5m52.32s CPU   6m14.97s WALL

 
   This run was terminated on:  12: 3:30  18Feb2024            

=------------------------------------------------------------------------------=
   JOB DONE.
=------------------------------------------------------------------------------=
