
     Program PWSCF v.7.1 starts on 28Mar2024 at  2: 6:55 

     This program is part of the open-source Quantum ESPRESSO suite
     for quantum simulation of materials; please cite
         "P. Giannozzi et al., J. Phys.:Condens. Matter 21 395502 (2009);
         "P. Giannozzi et al., J. Phys.:Condens. Matter 29 465901 (2017);
         "P. Giannozzi et al., J. Chem. Phys. 152 154105 (2020);
          URL http://www.quantum-espresso.org", 
     in publications or presentations arising from this work. More details at
     http://www.quantum-espresso.org/quote

     Parallel version (MPI & OpenMP), running on      20 processor cores
     Number of MPI processes:                20
     Threads/MPI process:                     1

     MPI processes distributed on     1 nodes
     1996247 MiB available memory on the printing compute node when the environment starts
 
     Reading input from espresso.pwi
Warning: card &CELL ignored
Warning: card    CELL_DYNAMICS    = 'BFGS' ignored
Warning: card / ignored

     Current dimensions of program PWSCF are:
     Max number of different atomic species (ntypx) = 10
     Max number of k-points (npk) =  40000
     Max angular momentum in pseudopotentials (lmaxx) =  4
     file Pb.pbe-dn-kjpaw_psl.1.0.0.UPF: wavefunction(s)  6S 6P 5D renormalized
     file I.pbe-dn-kjpaw_psl.1.0.0.UPF: wavefunction(s)  5S 5P renormalized

     **************************************************************************
     Initializing libbeef V0.1.2 with the BEEF-vdW functional.
     Citation: Wellendorff et al., PRB 85, 235149 (2012).
     **************************************************************************


     IMPORTANT: XC functional enforced from input :
     Exchange-correlation= BEEF-VDW
                           (   1   4  43  14   2   0   0)
     Any further DFT definition will be discarded
     Please, verify this is what you really want

 
     R & G space division:  proc/nbgrp/npool/nimage =      20
     Subspace diagonalization in iterative solution of the eigenvalue problem:
     a serial algorithm will be used

 
     Parallelization info
     --------------------
     sticks:   dense  smooth     PW     G-vecs:    dense   smooth      PW
     Min         381     306     80                42326    30292    4074
     Max         383     307     81                42331    30298    4079
     Sum        7639    6121   1615               846533   605897   81527
 
     Using Slab Decomposition
 


     bravais-lattice index     =            4
     lattice parameter (alat)  =      17.8060  a.u.
     unit-cell volume          =    7656.2263 (a.u.)^3
     number of atoms/cell      =           24
     number of atomic types    =            2
     number of electrons       =       385.00
     number of Kohn-Sham states=          232
     kinetic-energy cutoff     =      70.0000  Ry
     charge density cutoff     =     350.0000  Ry
     scf convergence threshold =      1.0E-07
     mixing beta               =       0.7000
     number of iterations used =            8  plain     mixing
     energy convergence thresh.=      1.0E-04
     force convergence thresh. =      1.0E-03
     Exchange-correlation= BEEF-VDW
                           (   1   4  43  14   2   0   0)
     nstep                     =           50


     celldm(1)=  17.806016  celldm(2)=   0.000000  celldm(3)=   1.565971
     celldm(4)=   0.000000  celldm(5)=   0.000000  celldm(6)=   0.000000

     crystal axes: (cart. coord. in units of alat)
               a(1) = (   1.000000   0.000000   0.000000 )  
               a(2) = (  -0.500000   0.866025   0.000000 )  
               a(3) = (   0.000000   0.000000   1.565971 )  

     reciprocal axes: (cart. coord. in units 2 pi/alat)
               b(1) = (  1.000000  0.577350 -0.000000 )  
               b(2) = (  0.000000  1.154701  0.000000 )  
               b(3) = (  0.000000 -0.000000  0.638581 )  


     PseudoPot. # 1 for Pb read from file:
     /trace/group/acmegroup/atimmins/packages/espresso/pseudo/psl_1.0.0/pslibrary.1.0.0/pbe/PSEUDOPOTENTIALS/Pb.pbe-dn-kjpaw_psl.1.0.0.UPF
     MD5 check sum: 39ab5b8a6bbd56b7735ad9f188aac93a
     Pseudo is Projector augmented-wave + core cor, Zval = 14.0
     Generated using 'atomic' code by A. Dal Corso  v.7.1
     Shape of augmentation charge: PSQ
     Using radial grid of 1281 points,  6 beta functions with: 
                l(1) =   0
                l(2) =   0
                l(3) =   1
                l(4) =   1
                l(5) =   2
                l(6) =   2
     Q(r) pseudized with 0 coefficients 


     PseudoPot. # 2 for I  read from file:
     /trace/group/acmegroup/atimmins/packages/espresso/pseudo/psl_1.0.0/pslibrary.1.0.0/pbe/PSEUDOPOTENTIALS/I.pbe-dn-kjpaw_psl.1.0.0.UPF
     MD5 check sum: bfa8781bc1224d19af3f3980e3fab11e
     Pseudo is Projector augmented-wave + core cor, Zval = 17.0
     Generated using 'atomic' code by A. Dal Corso  v.7.1
     Shape of augmentation charge: PSQ
     Using radial grid of 1247 points,  6 beta functions with: 
                l(1) =   0
                l(2) =   0
                l(3) =   1
                l(4) =   1
                l(5) =   2
                l(6) =   2
     Q(r) pseudized with 0 coefficients 


     atomic species   valence    mass     pseudopotential
        Pb            14.00   207.20000     Pb( 1.00)
        I             17.00   126.90447     I ( 1.00)

     No symmetry found


                                    s                        frac. trans.

      isym =  1     identity                                     

 cryst.   s( 1) = (     1          0          0      )
                  (     0          1          0      )
                  (     0          0          1      )

 cart.    s( 1) = (  1.0000000  0.0000000  0.0000000 )
                  (  0.0000000  1.0000000  0.0000000 )
                  (  0.0000000  0.0000000  1.0000000 )


     point group C_1 (1)    
     there are  1 classes
     the character table:

       E    
A      1.00

     the symmetry operations in each class and the name of the first element:

     E        1
          identity                                               

   Cartesian axes

     site n.     atom                  positions (alat units)
         1           Pb  tau(   1) = (   0.2500068   0.4329836   0.7829793  )
         2           Pb  tau(   2) = (   0.0000153   0.8659852   1.5659567  )
         3           Pb  tau(   3) = (   0.0000051   0.8659943   0.7829710  )
         4           Pb  tau(   4) = (   0.7500170   0.4329726   1.5659715  )
         5           Pb  tau(   5) = (   0.7500068   0.4329816   0.7829858  )
         6           Pb  tau(   6) = (   0.5000153   0.8659833   1.5659633  )
         7           Pb  tau(   7) = (   0.5000051   0.8659923   0.7829776  )
         8           I   tau(   8) = (   0.2500107   0.1443099   0.5818649  )
         9           I   tau(   9) = (   0.2500209   0.1443009   1.3648506  )
        10           I   tau(  10) = (   0.0000091   0.5773207   0.5818567  )
        11           I   tau(  11) = (   0.0000193   0.5773116   1.3648424  )
        12           I   tau(  12) = (   0.7500107   0.1443080   0.5818714  )
        13           I   tau(  13) = (   0.7500209   0.1442990   1.3648571  )
        14           I   tau(  14) = (   0.5000091   0.5773187   0.5818632  )
        15           I   tau(  15) = (   0.5000193   0.5773097   1.3648489  )
        16           I   tau(  16) = (  -0.0000034   0.2886595   0.2011110  )
        17           I   tau(  17) = (   0.0000068   0.2886504   0.9840967  )
        18           I   tau(  18) = (  -0.2500051   0.7216702   0.2011027  )
        19           I   tau(  19) = (  -0.2499949   0.7216611   0.9840884  )
        20           I   tau(  20) = (   0.4999966   0.2886575   0.2011175  )
        21           I   tau(  21) = (   0.5000068   0.2886485   0.9841032  )
        22           I   tau(  22) = (   0.2499949   0.7216682   0.2011092  )
        23           I   tau(  23) = (   0.2500051   0.7216592   0.9840949  )
        24           I   tau(  24) = (   0.2500170   0.4329745   1.5659650  )

   Crystallographic axes

     site n.     atom                  positions (cryst. coord.)
         1           Pb  tau(   1) = (  0.4999900  0.4999663  0.4999959  )
         2           Pb  tau(   2) = (  0.4999921  0.9999536  0.9999906  )
         3           Pb  tau(   3) = (  0.4999871  0.9999640  0.4999906  )
         4           Pb  tau(   4) = (  0.9999938  0.4999537  1.0000001  )
         5           Pb  tau(   5) = (  0.9999888  0.4999641  0.5000001  )
         6           Pb  tau(   6) = (  0.9999910  0.9999514  0.9999948  )
         7           Pb  tau(   7) = (  0.9999860  0.9999618  0.4999948  )
         8           I   tau(   8) = (  0.3333281  0.1666348  0.3715680  )
         9           I   tau(   9) = (  0.3333331  0.1666243  0.8715680  )
        10           I   tau(  10) = (  0.3333253  0.6666325  0.3715628  )
        11           I   tau(  11) = (  0.3333303  0.6666220  0.8715628  )
        12           I   tau(  12) = (  0.8333270  0.1666326  0.3715722  )
        13           I   tau(  13) = (  0.8333320  0.1666221  0.8715722  )
        14           I   tau(  14) = (  0.8333242  0.6666303  0.3715669  )
        15           I   tau(  15) = (  0.8333292  0.6666198  0.8715669  )
        16           I   tau(  16) = (  0.1666542  0.3333152  0.1284257  )
        17           I   tau(  17) = (  0.1666592  0.3333048  0.6284257  )
        18           I   tau(  18) = (  0.1666514  0.8333129  0.1284204  )
        19           I   tau(  19) = (  0.1666564  0.8333025  0.6284204  )
        20           I   tau(  20) = (  0.6666531  0.3333130  0.1284299  )
        21           I   tau(  21) = (  0.6666581  0.3333026  0.6284299  )
        22           I   tau(  22) = (  0.6666503  0.8333107  0.1284246  )
        23           I   tau(  23) = (  0.6666553  0.8333003  0.6284246  )
        24           I   tau(  24) = (  0.4999949  0.4999559  0.9999959  )

     number of k points=     4  Gaussian smearing, width (Ry)=  0.0100
                       cart. coord. in units 2pi/alat
        k(    1) = (   0.0000000   0.0000000   0.0000000), wk =   0.5000000
        k(    2) = (   0.0000000  -0.5773503   0.0000000), wk =   0.5000000
        k(    3) = (   0.5000000  -0.2886751   0.0000000), wk =   0.5000000
        k(    4) = (  -0.5000000  -0.2886751   0.0000000), wk =   0.5000000

                       cryst. coord.
        k(    1) = (   0.0000000   0.0000000   0.0000000), wk =   0.5000000
        k(    2) = (   0.0000000  -0.5000000   0.0000000), wk =   0.5000000
        k(    3) = (   0.5000000  -0.5000000   0.0000000), wk =   0.5000000
        k(    4) = (  -0.5000000  -0.0000000   0.0000000), wk =   0.5000000

     Dense  grid:   846533 G-vectors     FFT dimensions: ( 108, 108, 180)

     Smooth grid:   605897 G-vectors     FFT dimensions: (  96,  96, 150)

     Dynamical RAM for                 wfc:      13.40 MB

     Dynamical RAM for     wfc (w. buffer):      67.01 MB

     Dynamical RAM for           str. fact:       1.29 MB

     Dynamical RAM for           local pot:       0.00 MB

     Dynamical RAM for          nlocal pot:      24.96 MB

     Dynamical RAM for                qrad:       3.00 MB

     Dynamical RAM for          rho,v,vnew:       4.34 MB

     Dynamical RAM for               rhoin:       1.45 MB

     Dynamical RAM for            rho*nmix:      10.33 MB

     Dynamical RAM for           G-vectors:       2.65 MB

     Dynamical RAM for          h,s,v(r/c):      39.42 MB

     Dynamical RAM for          <psi|beta>:       1.53 MB

     Dynamical RAM for                 psi:      53.61 MB

     Dynamical RAM for                hpsi:      53.61 MB

     Dynamical RAM for                spsi:      53.61 MB

     Dynamical RAM for      wfcinit/wfcrot:      28.04 MB

     Dynamical RAM for           addusdens:     131.12 MB

     Dynamical RAM for          addusforce:     152.18 MB

     Dynamical RAM for         addusstress:     129.83 MB

     Estimated static dynamical RAM per process >     110.65 MB

     Estimated max dynamical RAM per process >     322.76 MB

     Estimated total dynamical RAM >       6.30 GB

     Check: negative core charge=   -0.000002

     Initial potential from superposition of free atoms

     starting charge     386.9823, renormalised to     385.0000


     %%%%%%%%%%%%%%%%%%%%%%%%%%%%%%%%%%%%%%%%%%%%%%%%%%%%%%%%%%%%%%%%%%%%%%%%
     %                                                                      %
     % You are using vdW-DF, which was implemented by the Thonhauser group. %
     % Please cite the following two papers that made this development      %
     % possible and the two reviews that describe the various versions:     %
     %                                                                      %
     %   T. Thonhauser et al., PRL 115, 136402 (2015).                      %
     %   T. Thonhauser et al., PRB 76, 125112 (2007).                       %
     %   K. Berland et al., Rep. Prog. Phys. 78, 066501 (2015).             %
     %   D.C. Langreth et al., J. Phys.: Condens. Matter 21, 084203 (2009). %
     %                                                                      %
     % If you are calculating stress with vdW-DF, please also cite:         %
     %                                                                      %
     %   R. Sabatini et al., J. Phys.: Condens. Matter 24, 424209 (2012).   %
     %                                                                      %
     %%%%%%%%%%%%%%%%%%%%%%%%%%%%%%%%%%%%%%%%%%%%%%%%%%%%%%%%%%%%%%%%%%%%%%%%

     %%%%%%%%%%%%%%%%%%%%%%%%%%%%%%%%%%%%%%%%%%%%%%%%%%%%%%%%%%%%%%%%%%%%%%%%
     %                                                                      %
     %  vdW-DF NEWS:                                                        %
     %                                                                      %
     %  * vdW-DF3 is now available. DOI: 10.1021/acs.jctc.0c00471           %
     %    use with input_dft = 'vdW-DF3-opt1' or 'vdW-DF3-opt2'             %
     %                                                                      %
     %  * Unscreened and range-separated vdW-DF hybrid functionals          %
     %    DOI: 10.1063/1.4986522 and 10.1088/1361-648X/ac2ad2               %
     %    use with input_dft = 'vdW-DF-cx0' (etc) and 'vdW-DF-ahcx'         %
     %                                                                      %
     %%%%%%%%%%%%%%%%%%%%%%%%%%%%%%%%%%%%%%%%%%%%%%%%%%%%%%%%%%%%%%%%%%%%%%%%


     Carrying out vdW-DF run using the following parameters:
     Nqs    =  20  Npoints =  1024  r_max =  100.000
     q_mesh =  0.00001000  0.04494208  0.09755937  0.15916263
               0.23128650  0.31572767  0.41458969  0.53033537
               0.66584808  0.82450364  1.01025438  1.22772762
               1.48234092  1.78043706  2.12944203  2.53805004
               3.01644009  3.57652955  4.23227104  5.00000000


     -----------------------------------------------
     Non-local corr. energy    =      11.72491698 Ry
     -----------------------------------------------

     Starting wfcs are  216 randomized atomic wfcs +   16 random wfcs
     Checking if some PAW data can be deallocated... 
       PAW data deallocated on   16 nodes for type:  1
       PAW data deallocated on    3 nodes for type:  2

     total cpu time spent up to now is        8.8 secs

     Self-consistent Calculation

     iteration #  1     ecut=    70.00 Ry     beta= 0.70
     Davidson diagonalization with overlap

---- Real-time Memory Report at c_bands before calling an iterative solver
           348 MiB given to the printing process from OS
             0 MiB allocation reported by mallinfo(arena+hblkhd)
       1992272 MiB available memory on the node where the printing process lives
------------------
     ethr =  1.00E-02,  avg # of iterations =  8.0

     Threshold (ethr) on eigenvalues was too large:
     Diagonalizing with lowered threshold

     Davidson diagonalization with overlap

---- Real-time Memory Report at c_bands before calling an iterative solver
           454 MiB given to the printing process from OS
             0 MiB allocation reported by mallinfo(arena+hblkhd)
       1987811 MiB available memory on the node where the printing process lives
------------------
     ethr =  3.64E-04,  avg # of iterations = 10.3


     -----------------------------------------------
     Non-local corr. energy    =      11.88907371 Ry
     -----------------------------------------------


     total cpu time spent up to now is       62.3 secs

     total energy              =  -15855.92430336 Ry
     estimated scf accuracy    <       1.40828792 Ry

     iteration #  2     ecut=    70.00 Ry     beta= 0.70
     Davidson diagonalization with overlap

---- Real-time Memory Report at c_bands before calling an iterative solver
           471 MiB given to the printing process from OS
             0 MiB allocation reported by mallinfo(arena+hblkhd)
       1988716 MiB available memory on the node where the printing process lives
------------------
     ethr =  3.66E-04,  avg # of iterations =  9.8


     -----------------------------------------------
     Non-local corr. energy    =      11.86684709 Ry
     -----------------------------------------------


     total cpu time spent up to now is       94.7 secs

     total energy              =  -15855.54972954 Ry
     estimated scf accuracy    <       7.84032500 Ry

     iteration #  3     ecut=    70.00 Ry     beta= 0.70
     Davidson diagonalization with overlap

---- Real-time Memory Report at c_bands before calling an iterative solver
           474 MiB given to the printing process from OS
             0 MiB allocation reported by mallinfo(arena+hblkhd)
       1989215 MiB available memory on the node where the printing process lives
------------------
     ethr =  3.66E-04,  avg # of iterations = 12.5


     -----------------------------------------------
     Non-local corr. energy    =      11.84053718 Ry
     -----------------------------------------------


     total cpu time spent up to now is      133.0 secs

     total energy              =  -15856.51873197 Ry
     estimated scf accuracy    <       0.87048059 Ry

     iteration #  4     ecut=    70.00 Ry     beta= 0.70
     Davidson diagonalization with overlap

---- Real-time Memory Report at c_bands before calling an iterative solver
           476 MiB given to the printing process from OS
             0 MiB allocation reported by mallinfo(arena+hblkhd)
       1989770 MiB available memory on the node where the printing process lives
------------------
     ethr =  2.26E-04,  avg # of iterations = 12.0


     -----------------------------------------------
     Non-local corr. energy    =      11.83013034 Ry
     -----------------------------------------------


     total cpu time spent up to now is      165.6 secs

     total energy              =  -15856.60442172 Ry
     estimated scf accuracy    <       0.15440937 Ry

     iteration #  5     ecut=    70.00 Ry     beta= 0.70
     Davidson diagonalization with overlap

---- Real-time Memory Report at c_bands before calling an iterative solver
           476 MiB given to the printing process from OS
             0 MiB allocation reported by mallinfo(arena+hblkhd)
       1992846 MiB available memory on the node where the printing process lives
------------------
     ethr =  4.01E-05,  avg # of iterations = 13.8


     -----------------------------------------------
     Non-local corr. energy    =      11.82772473 Ry
     -----------------------------------------------


     total cpu time spent up to now is      199.8 secs

     total energy              =  -15856.60334408 Ry
     estimated scf accuracy    <       0.11999201 Ry

     iteration #  6     ecut=    70.00 Ry     beta= 0.70
     Davidson diagonalization with overlap

---- Real-time Memory Report at c_bands before calling an iterative solver
           476 MiB given to the printing process from OS
             0 MiB allocation reported by mallinfo(arena+hblkhd)
       1989334 MiB available memory on the node where the printing process lives
------------------
     ethr =  3.12E-05,  avg # of iterations = 11.5


     -----------------------------------------------
     Non-local corr. energy    =      11.81962652 Ry
     -----------------------------------------------


     total cpu time spent up to now is      230.8 secs

     total energy              =  -15856.61140494 Ry
     estimated scf accuracy    <       0.03207364 Ry

     iteration #  7     ecut=    70.00 Ry     beta= 0.70
     Davidson diagonalization with overlap

---- Real-time Memory Report at c_bands before calling an iterative solver
           476 MiB given to the printing process from OS
             0 MiB allocation reported by mallinfo(arena+hblkhd)
       1991191 MiB available memory on the node where the printing process lives
------------------
     ethr =  8.33E-06,  avg # of iterations =  9.8


     -----------------------------------------------
     Non-local corr. energy    =      11.81830362 Ry
     -----------------------------------------------


     total cpu time spent up to now is      260.8 secs

     total energy              =  -15856.60470332 Ry
     estimated scf accuracy    <       0.11795891 Ry

     iteration #  8     ecut=    70.00 Ry     beta= 0.70
     Davidson diagonalization with overlap

---- Real-time Memory Report at c_bands before calling an iterative solver
           476 MiB given to the printing process from OS
             0 MiB allocation reported by mallinfo(arena+hblkhd)
       1989767 MiB available memory on the node where the printing process lives
------------------
     ethr =  8.33E-06,  avg # of iterations =  9.3


     -----------------------------------------------
     Non-local corr. energy    =      11.81455729 Ry
     -----------------------------------------------


     total cpu time spent up to now is      288.1 secs

     total energy              =  -15856.61390977 Ry
     estimated scf accuracy    <       0.04959614 Ry

     iteration #  9     ecut=    70.00 Ry     beta= 0.70
     Davidson diagonalization with overlap

---- Real-time Memory Report at c_bands before calling an iterative solver
           476 MiB given to the printing process from OS
             0 MiB allocation reported by mallinfo(arena+hblkhd)
       1989765 MiB available memory on the node where the printing process lives
------------------
     ethr =  8.33E-06,  avg # of iterations =  5.8


     -----------------------------------------------
     Non-local corr. energy    =      11.81201898 Ry
     -----------------------------------------------


     total cpu time spent up to now is      309.1 secs

     total energy              =  -15856.61684501 Ry
     estimated scf accuracy    <       0.00197384 Ry

     iteration # 10     ecut=    70.00 Ry     beta= 0.70
     Davidson diagonalization with overlap

---- Real-time Memory Report at c_bands before calling an iterative solver
           476 MiB given to the printing process from OS
             0 MiB allocation reported by mallinfo(arena+hblkhd)
       1990991 MiB available memory on the node where the printing process lives
------------------
     ethr =  5.13E-07,  avg # of iterations = 10.3


     -----------------------------------------------
     Non-local corr. energy    =      11.81171404 Ry
     -----------------------------------------------


     total cpu time spent up to now is      347.3 secs

     total energy              =  -15856.61650245 Ry
     estimated scf accuracy    <       0.01074950 Ry

     iteration # 11     ecut=    70.00 Ry     beta= 0.70
     Davidson diagonalization with overlap

---- Real-time Memory Report at c_bands before calling an iterative solver
           499 MiB given to the printing process from OS
             0 MiB allocation reported by mallinfo(arena+hblkhd)
       1988092 MiB available memory on the node where the printing process lives
------------------
     ethr =  5.13E-07,  avg # of iterations =  9.0


     -----------------------------------------------
     Non-local corr. energy    =      11.81086265 Ry
     -----------------------------------------------


     total cpu time spent up to now is      374.7 secs

     total energy              =  -15856.61723882 Ry
     estimated scf accuracy    <       0.00334088 Ry

     iteration # 12     ecut=    70.00 Ry     beta= 0.70
     Davidson diagonalization with overlap

---- Real-time Memory Report at c_bands before calling an iterative solver
           499 MiB given to the printing process from OS
             0 MiB allocation reported by mallinfo(arena+hblkhd)
       1989677 MiB available memory on the node where the printing process lives
------------------
     ethr =  5.13E-07,  avg # of iterations =  4.8


     -----------------------------------------------
     Non-local corr. energy    =      11.81040495 Ry
     -----------------------------------------------


     total cpu time spent up to now is      394.7 secs

     total energy              =  -15856.61743529 Ry
     estimated scf accuracy    <       0.00022281 Ry

     iteration # 13     ecut=    70.00 Ry     beta= 0.70
     Davidson diagonalization with overlap

---- Real-time Memory Report at c_bands before calling an iterative solver
           499 MiB given to the printing process from OS
             0 MiB allocation reported by mallinfo(arena+hblkhd)
       1990003 MiB available memory on the node where the printing process lives
------------------
     ethr =  5.79E-08,  avg # of iterations =  6.3


     -----------------------------------------------
     Non-local corr. energy    =      11.81022019 Ry
     -----------------------------------------------


     total cpu time spent up to now is      417.3 secs

     total energy              =  -15856.61744381 Ry
     estimated scf accuracy    <       0.00008846 Ry

     iteration # 14     ecut=    70.00 Ry     beta= 0.70
     Davidson diagonalization with overlap

---- Real-time Memory Report at c_bands before calling an iterative solver
           499 MiB given to the printing process from OS
             0 MiB allocation reported by mallinfo(arena+hblkhd)
       1990518 MiB available memory on the node where the printing process lives
------------------
     ethr =  2.30E-08,  avg # of iterations =  7.8


     -----------------------------------------------
     Non-local corr. energy    =      11.81020715 Ry
     -----------------------------------------------


     total cpu time spent up to now is      442.3 secs

     total energy              =  -15856.61745563 Ry
     estimated scf accuracy    <       0.00000910 Ry

     iteration # 15     ecut=    70.00 Ry     beta= 0.70
     Davidson diagonalization with overlap

---- Real-time Memory Report at c_bands before calling an iterative solver
           499 MiB given to the printing process from OS
             0 MiB allocation reported by mallinfo(arena+hblkhd)
       1989040 MiB available memory on the node where the printing process lives
------------------
     ethr =  2.36E-09,  avg # of iterations = 11.0


     -----------------------------------------------
     Non-local corr. energy    =      11.81026385 Ry
     -----------------------------------------------


     total cpu time spent up to now is      487.2 secs

     total energy              =  -15856.61746080 Ry
     estimated scf accuracy    <       0.00000446 Ry

     iteration # 16     ecut=    70.00 Ry     beta= 0.70
     Davidson diagonalization with overlap

---- Real-time Memory Report at c_bands before calling an iterative solver
           528 MiB given to the printing process from OS
             0 MiB allocation reported by mallinfo(arena+hblkhd)
       1989479 MiB available memory on the node where the printing process lives
------------------
     ethr =  1.16E-09,  avg # of iterations =  8.5


     -----------------------------------------------
     Non-local corr. energy    =      11.81030752 Ry
     -----------------------------------------------


     total cpu time spent up to now is      511.7 secs

     total energy              =  -15856.61746095 Ry
     estimated scf accuracy    <       0.00000178 Ry

     iteration # 17     ecut=    70.00 Ry     beta= 0.70
     Davidson diagonalization with overlap

---- Real-time Memory Report at c_bands before calling an iterative solver
           528 MiB given to the printing process from OS
             0 MiB allocation reported by mallinfo(arena+hblkhd)
       1988066 MiB available memory on the node where the printing process lives
------------------
     ethr =  4.62E-10,  avg # of iterations = 10.3


     -----------------------------------------------
     Non-local corr. energy    =      11.81029247 Ry
     -----------------------------------------------


     total cpu time spent up to now is      540.7 secs

     total energy              =  -15856.61746103 Ry
     estimated scf accuracy    <       0.00000156 Ry

     iteration # 18     ecut=    70.00 Ry     beta= 0.70
     Davidson diagonalization with overlap

---- Real-time Memory Report at c_bands before calling an iterative solver
           528 MiB given to the printing process from OS
             0 MiB allocation reported by mallinfo(arena+hblkhd)
       1988796 MiB available memory on the node where the printing process lives
------------------
     ethr =  4.05E-10,  avg # of iterations =  9.5


     -----------------------------------------------
     Non-local corr. energy    =      11.81029153 Ry
     -----------------------------------------------


     total cpu time spent up to now is      568.5 secs

     total energy              =  -15856.61746111 Ry
     estimated scf accuracy    <       0.00000052 Ry

     iteration # 19     ecut=    70.00 Ry     beta= 0.70
     Davidson diagonalization with overlap

---- Real-time Memory Report at c_bands before calling an iterative solver
           528 MiB given to the printing process from OS
             0 MiB allocation reported by mallinfo(arena+hblkhd)
       1992485 MiB available memory on the node where the printing process lives
------------------
     ethr =  1.36E-10,  avg # of iterations =  9.8


     -----------------------------------------------
     Non-local corr. energy    =      11.81029039 Ry
     -----------------------------------------------


     total cpu time spent up to now is      596.9 secs

     total energy              =  -15856.61746116 Ry
     estimated scf accuracy    <       0.00000022 Ry

     iteration # 20     ecut=    70.00 Ry     beta= 0.70
     Davidson diagonalization with overlap

---- Real-time Memory Report at c_bands before calling an iterative solver
           528 MiB given to the printing process from OS
             0 MiB allocation reported by mallinfo(arena+hblkhd)
       1989591 MiB available memory on the node where the printing process lives
------------------
     ethr =  5.78E-11,  avg # of iterations =  9.0


     -----------------------------------------------
     Non-local corr. energy    =      11.81028352 Ry
     -----------------------------------------------


     total cpu time spent up to now is      625.1 secs

     total energy              =  -15856.61746118 Ry
     estimated scf accuracy    <       0.00000011 Ry

     iteration # 21     ecut=    70.00 Ry     beta= 0.70
     Davidson diagonalization with overlap

---- Real-time Memory Report at c_bands before calling an iterative solver
           528 MiB given to the printing process from OS
             0 MiB allocation reported by mallinfo(arena+hblkhd)
       1989749 MiB available memory on the node where the printing process lives
------------------
     ethr =  2.92E-11,  avg # of iterations =  6.5


     -----------------------------------------------
     Non-local corr. energy    =      11.81026622 Ry
     -----------------------------------------------


     total cpu time spent up to now is      647.7 secs

     End of self-consistent calculation

          k = 0.0000 0.0000 0.0000 ( 75645 PWs)   bands (ev):

   -43.2891 -43.2891 -43.2483 -43.2482 -43.2404 -41.5385 -41.5382 -41.5381
   -41.5380 -41.5380 -41.5378 -41.5033 -41.5031 -41.5029 -41.5029 -41.5028
   -41.5027 -41.5024 -41.5021 -41.5020 -41.5019 -41.5019 -41.5017 -41.3935
   -41.3933 -41.3932 -41.3931 -41.3931 -41.3930 -41.3930 -41.3928 -41.3927
   -41.3926 -41.3926 -41.3925 -40.7722 -40.7722 -40.7721 -40.7721 -40.7721
   -40.7721 -40.7710 -40.7710 -40.7710 -40.7710 -40.7690 -40.7688 -40.7670
   -40.7669 -40.7668 -40.7668 -40.7606 -40.7606 -40.7605 -40.7605 -40.6417
   -40.6417 -40.6416 -40.6415 -40.6415 -40.6415 -40.6405 -40.6404 -40.6403
   -40.6403 -40.6402 -40.6402 -40.6395 -40.6394 -40.6394 -40.6393 -40.6393
   -40.6392 -40.6363 -40.6363 -40.6362 -40.6361 -40.6361 -40.6361 -40.6358
   -40.6358 -40.6357 -40.6357 -40.6356 -40.6356 -13.0942 -13.0941 -13.0776
   -13.0743 -13.0709 -13.0708 -13.0670 -13.0513 -13.0513 -13.0496 -13.0454
   -13.0453 -13.0416 -13.0401 -13.0401 -12.7681 -12.7558 -12.7558 -12.7445
   -12.7445 -12.7400 -12.7371 -12.7371 -12.7343 -12.7310 -12.7310 -12.7304
   -12.7293 -12.7293 -12.7267 -12.7231 -12.7231 -12.7144 -12.7130 -12.7130
    -9.7917  -8.1600  -8.1315  -8.1313  -8.1012  -8.0433  -8.0432  -7.8863
    -7.5797  -7.5454  -7.5065  -7.4352  -7.4195  -7.4195  -7.4036  -7.3249
    -7.3248  -3.7797  -3.7797  -3.4247  -3.4246  -3.4245  -3.4082  -2.9567
    -0.1648  -0.1646  -0.1568   1.1170   1.1171   1.1596   1.3135   1.3136
     1.3771   1.5705   1.5705   1.6352   1.8127   2.0457   2.1439   2.1439
     2.1451   2.1452   2.1863   2.2017   2.2084   2.2085   2.3598   2.4093
     2.4095   2.4275   2.4275   2.4351   2.4355   2.4438   2.7162   2.7953
     2.7954   2.9142   2.9166   2.9167   2.9208   2.9840   2.9840   3.0724
     3.0984   3.0984   3.1312   3.1312   3.2245   3.2370   3.2370   3.4317
     3.4868   3.6934   3.6935   6.1363   6.3137   6.5529   6.5530   6.8770
     6.8772   6.9478   7.0011   7.0228   7.0229   7.0716   7.0717   7.1645
     7.4124   7.4127   7.6322   7.6322   7.6667   7.9950   8.0371   8.0372
     9.0220   9.0363   9.0364   9.7628   9.7929   9.7929   9.8091  10.4012
    11.0080  11.0082  11.0351  11.1690  11.1704  11.1704  11.3593  11.3851

     occupation numbers 
     1.0000   1.0000   1.0000   1.0000   1.0000   1.0000   1.0000   1.0000
     1.0000   1.0000   1.0000   1.0000   1.0000   1.0000   1.0000   1.0000
     1.0000   1.0000   1.0000   1.0000   1.0000   1.0000   1.0000   1.0000
     1.0000   1.0000   1.0000   1.0000   1.0000   1.0000   1.0000   1.0000
     1.0000   1.0000   1.0000   1.0000   1.0000   1.0000   1.0000   1.0000
     1.0000   1.0000   1.0000   1.0000   1.0000   1.0000   1.0000   1.0000
     1.0000   1.0000   1.0000   1.0000   1.0000   1.0000   1.0000   1.0000
     1.0000   1.0000   1.0000   1.0000   1.0000   1.0000   1.0000   1.0000
     1.0000   1.0000   1.0000   1.0000   1.0000   1.0000   1.0000   1.0000
     1.0000   1.0000   1.0000   1.0000   1.0000   1.0000   1.0000   1.0000
     1.0000   1.0000   1.0000   1.0000   1.0000   1.0000   1.0000   1.0000
     1.0000   1.0000   1.0000   1.0000   1.0000   1.0000   1.0000   1.0000
     1.0000   1.0000   1.0000   1.0000   1.0000   1.0000   1.0000   1.0000
     1.0000   1.0000   1.0000   1.0000   1.0000   1.0000   1.0000   1.0000
     1.0000   1.0000   1.0000   1.0000   1.0000   1.0000   1.0000   1.0000
     1.0000   1.0000   1.0000   1.0000   1.0000   1.0000   1.0000   1.0000
     1.0000   1.0000   1.0000   1.0000   1.0000   1.0000   1.0000   1.0000
     1.0000   1.0000   1.0000   1.0000   1.0000   1.0000   1.0000   1.0000
     1.0000   1.0000   1.0000   1.0000   1.0000   1.0000   1.0000   1.0000
     1.0000   1.0000   1.0000   1.0000   1.0000   1.0000   1.0000   1.0000
     1.0000   1.0000   1.0000   1.0000   1.0000   1.0000   1.0000   1.0000
     1.0000   1.0000   1.0000   1.0000   1.0000   1.0000   1.0000   1.0000
     1.0000   1.0000   1.0000   1.0000   1.0000   1.0000   1.0000   1.0000
     1.0000   1.0000   1.0000   1.0000   1.0000   0.9999   0.9999   0.9670
     0.8970   0.1887   0.1883   0.0000   0.0000   0.0000   0.0000   0.0000
     0.0000   0.0000   0.0000   0.0000   0.0000   0.0000   0.0000   0.0000
     0.0000   0.0000   0.0000   0.0000   0.0000   0.0000   0.0000   0.0000
     0.0000   0.0000   0.0000   0.0000   0.0000   0.0000   0.0000   0.0000
     0.0000   0.0000   0.0000   0.0000   0.0000   0.0000   0.0000   0.0000

          k = 0.0000-0.5774 0.0000 ( 75730 PWs)   bands (ev):

   -43.2891 -43.2891 -43.2483 -43.2482 -43.2404 -41.5385 -41.5382 -41.5381
   -41.5380 -41.5380 -41.5378 -41.5033 -41.5031 -41.5029 -41.5029 -41.5028
   -41.5027 -41.5024 -41.5021 -41.5020 -41.5019 -41.5019 -41.5017 -41.3935
   -41.3933 -41.3932 -41.3931 -41.3931 -41.3930 -41.3930 -41.3928 -41.3927
   -41.3926 -41.3926 -41.3925 -40.7722 -40.7722 -40.7721 -40.7721 -40.7721
   -40.7721 -40.7710 -40.7710 -40.7710 -40.7710 -40.7690 -40.7688 -40.7670
   -40.7669 -40.7668 -40.7668 -40.7606 -40.7606 -40.7605 -40.7605 -40.6417
   -40.6417 -40.6416 -40.6415 -40.6415 -40.6415 -40.6404 -40.6404 -40.6403
   -40.6403 -40.6402 -40.6402 -40.6395 -40.6394 -40.6394 -40.6393 -40.6393
   -40.6392 -40.6363 -40.6363 -40.6362 -40.6361 -40.6361 -40.6361 -40.6358
   -40.6358 -40.6357 -40.6357 -40.6356 -40.6356 -13.0939 -13.0881 -13.0830
   -13.0728 -13.0719 -13.0708 -13.0601 -13.0530 -13.0505 -13.0474 -13.0462
   -13.0461 -13.0453 -13.0444 -13.0403 -12.7606 -12.7538 -12.7483 -12.7468
   -12.7460 -12.7378 -12.7375 -12.7353 -12.7348 -12.7342 -12.7336 -12.7323
   -12.7293 -12.7281 -12.7266 -12.7263 -12.7263 -12.7158 -12.7150 -12.7136
    -9.7827  -8.2863  -8.1432  -8.1392  -8.0710  -8.0321  -7.9063  -7.7246
    -7.6929  -7.5730  -7.5629  -7.5097  -7.4363  -7.3956  -7.3834  -7.3426
    -7.3081  -3.7676  -3.6413  -3.5228  -3.4133  -3.4029  -3.1704  -3.1549
    -0.1583  -0.0918   0.0288   1.0702   1.2058   1.2735   1.4362   1.4802
     1.5389   1.5713   1.5826   1.6103   1.6685   1.6924   1.7133   1.8015
     1.9716   2.0692   2.0828   2.0984   2.1538   2.1681   2.2445   2.2814
     2.2964   2.3481   2.4314   2.4580   2.4838   2.4867   2.5501   2.6283
     2.6789   2.8080   2.8266   2.8306   2.9692   3.0131   3.0170   3.0608
     3.1184   3.1445   3.1529   3.1563   3.4335   3.4460   3.4772   3.5082
     3.6063   3.7806   3.8018   6.4407   6.7571   6.8045   6.8941   6.9034
     7.0534   7.0609   7.1098   7.1995   7.2287   7.4027   7.4193   7.4297
     7.4305   7.5277   7.5520   7.5607   7.5650   7.5753   7.8376   7.8559
     9.4422   9.8568   9.8755   9.9749  10.1016  10.1492  10.1694  10.2509
    10.5906  10.6106  10.6314  10.7432  10.8162  10.9372  11.1191  11.1242

     occupation numbers 
     1.0000   1.0000   1.0000   1.0000   1.0000   1.0000   1.0000   1.0000
     1.0000   1.0000   1.0000   1.0000   1.0000   1.0000   1.0000   1.0000
     1.0000   1.0000   1.0000   1.0000   1.0000   1.0000   1.0000   1.0000
     1.0000   1.0000   1.0000   1.0000   1.0000   1.0000   1.0000   1.0000
     1.0000   1.0000   1.0000   1.0000   1.0000   1.0000   1.0000   1.0000
     1.0000   1.0000   1.0000   1.0000   1.0000   1.0000   1.0000   1.0000
     1.0000   1.0000   1.0000   1.0000   1.0000   1.0000   1.0000   1.0000
     1.0000   1.0000   1.0000   1.0000   1.0000   1.0000   1.0000   1.0000
     1.0000   1.0000   1.0000   1.0000   1.0000   1.0000   1.0000   1.0000
     1.0000   1.0000   1.0000   1.0000   1.0000   1.0000   1.0000   1.0000
     1.0000   1.0000   1.0000   1.0000   1.0000   1.0000   1.0000   1.0000
     1.0000   1.0000   1.0000   1.0000   1.0000   1.0000   1.0000   1.0000
     1.0000   1.0000   1.0000   1.0000   1.0000   1.0000   1.0000   1.0000
     1.0000   1.0000   1.0000   1.0000   1.0000   1.0000   1.0000   1.0000
     1.0000   1.0000   1.0000   1.0000   1.0000   1.0000   1.0000   1.0000
     1.0000   1.0000   1.0000   1.0000   1.0000   1.0000   1.0000   1.0000
     1.0000   1.0000   1.0000   1.0000   1.0000   1.0000   1.0000   1.0000
     1.0000   1.0000   1.0000   1.0000   1.0000   1.0000   1.0000   1.0000
     1.0000   1.0000   1.0000   1.0000   1.0000   1.0000   1.0000   1.0000
     1.0000   1.0000   1.0000   1.0000   1.0000   1.0000   1.0000   1.0000
     1.0000   1.0000   1.0000   1.0000   1.0000   1.0000   1.0000   1.0000
     1.0000   1.0000   1.0000   1.0000   1.0000   1.0000   1.0000   1.0000
     1.0000   1.0000   1.0000   1.0000   1.0000   1.0000   1.0000   1.0000
     1.0000   1.0000   1.0000   1.0000   0.9656   0.9544   0.9138   0.8514
     0.5089   0.0368   0.0223   0.0000   0.0000   0.0000   0.0000   0.0000
     0.0000   0.0000   0.0000   0.0000   0.0000   0.0000   0.0000   0.0000
     0.0000   0.0000   0.0000   0.0000   0.0000   0.0000   0.0000   0.0000
     0.0000   0.0000   0.0000   0.0000   0.0000   0.0000   0.0000   0.0000
     0.0000   0.0000   0.0000   0.0000   0.0000   0.0000   0.0000   0.0000

          k = 0.5000-0.2887 0.0000 ( 75730 PWs)   bands (ev):

   -43.2891 -43.2891 -43.2483 -43.2482 -43.2404 -41.5385 -41.5382 -41.5381
   -41.5380 -41.5380 -41.5378 -41.5033 -41.5031 -41.5029 -41.5029 -41.5028
   -41.5027 -41.5024 -41.5021 -41.5020 -41.5019 -41.5019 -41.5017 -41.3935
   -41.3933 -41.3932 -41.3931 -41.3931 -41.3930 -41.3930 -41.3928 -41.3927
   -41.3926 -41.3926 -41.3925 -40.7722 -40.7722 -40.7721 -40.7721 -40.7721
   -40.7721 -40.7710 -40.7710 -40.7710 -40.7710 -40.7690 -40.7688 -40.7670
   -40.7669 -40.7668 -40.7668 -40.7606 -40.7606 -40.7605 -40.7605 -40.6417
   -40.6417 -40.6416 -40.6415 -40.6415 -40.6415 -40.6405 -40.6404 -40.6403
   -40.6403 -40.6402 -40.6402 -40.6395 -40.6394 -40.6394 -40.6393 -40.6393
   -40.6392 -40.6363 -40.6363 -40.6362 -40.6361 -40.6361 -40.6361 -40.6358
   -40.6358 -40.6357 -40.6357 -40.6356 -40.6356 -13.0939 -13.0880 -13.0831
   -13.0729 -13.0718 -13.0709 -13.0602 -13.0529 -13.0506 -13.0473 -13.0462
   -13.0462 -13.0453 -13.0443 -13.0404 -12.7606 -12.7538 -12.7483 -12.7468
   -12.7460 -12.7378 -12.7375 -12.7353 -12.7348 -12.7342 -12.7336 -12.7323
   -12.7293 -12.7281 -12.7266 -12.7263 -12.7263 -12.7158 -12.7150 -12.7136
    -9.7827  -8.2864  -8.1430  -8.1393  -8.0710  -8.0319  -7.9064  -7.7245
    -7.6929  -7.5730  -7.5629  -7.5097  -7.4364  -7.3956  -7.3834  -7.3426
    -7.3081  -3.7676  -3.6412  -3.5230  -3.4133  -3.4029  -3.1704  -3.1549
    -0.1584  -0.0915   0.0287   1.0701   1.2057   1.2734   1.4362   1.4802
     1.5389   1.5712   1.5826   1.6104   1.6686   1.6924   1.7134   1.8015
     1.9716   2.0691   2.0829   2.0984   2.1538   2.1681   2.2444   2.2814
     2.2965   2.3480   2.4314   2.4581   2.4838   2.4867   2.5502   2.6282
     2.6788   2.8080   2.8267   2.8307   2.9692   3.0131   3.0170   3.0608
     3.1184   3.1445   3.1531   3.1563   3.4335   3.4460   3.4772   3.5082
     3.6064   3.7805   3.8019   6.4407   6.7571   6.8045   6.8946   6.9035
     7.0531   7.0607   7.1102   7.1989   7.2290   7.4026   7.4195   7.4298
     7.4305   7.5275   7.5517   7.5607   7.5652   7.5753   7.8375   7.8559
     9.4421   9.8565   9.8756   9.9748  10.1016  10.1491  10.1694  10.2508
    10.5906  10.6106  10.6312  10.7431  10.8160  10.9372  11.1190  11.1243

     occupation numbers 
     1.0000   1.0000   1.0000   1.0000   1.0000   1.0000   1.0000   1.0000
     1.0000   1.0000   1.0000   1.0000   1.0000   1.0000   1.0000   1.0000
     1.0000   1.0000   1.0000   1.0000   1.0000   1.0000   1.0000   1.0000
     1.0000   1.0000   1.0000   1.0000   1.0000   1.0000   1.0000   1.0000
     1.0000   1.0000   1.0000   1.0000   1.0000   1.0000   1.0000   1.0000
     1.0000   1.0000   1.0000   1.0000   1.0000   1.0000   1.0000   1.0000
     1.0000   1.0000   1.0000   1.0000   1.0000   1.0000   1.0000   1.0000
     1.0000   1.0000   1.0000   1.0000   1.0000   1.0000   1.0000   1.0000
     1.0000   1.0000   1.0000   1.0000   1.0000   1.0000   1.0000   1.0000
     1.0000   1.0000   1.0000   1.0000   1.0000   1.0000   1.0000   1.0000
     1.0000   1.0000   1.0000   1.0000   1.0000   1.0000   1.0000   1.0000
     1.0000   1.0000   1.0000   1.0000   1.0000   1.0000   1.0000   1.0000
     1.0000   1.0000   1.0000   1.0000   1.0000   1.0000   1.0000   1.0000
     1.0000   1.0000   1.0000   1.0000   1.0000   1.0000   1.0000   1.0000
     1.0000   1.0000   1.0000   1.0000   1.0000   1.0000   1.0000   1.0000
     1.0000   1.0000   1.0000   1.0000   1.0000   1.0000   1.0000   1.0000
     1.0000   1.0000   1.0000   1.0000   1.0000   1.0000   1.0000   1.0000
     1.0000   1.0000   1.0000   1.0000   1.0000   1.0000   1.0000   1.0000
     1.0000   1.0000   1.0000   1.0000   1.0000   1.0000   1.0000   1.0000
     1.0000   1.0000   1.0000   1.0000   1.0000   1.0000   1.0000   1.0000
     1.0000   1.0000   1.0000   1.0000   1.0000   1.0000   1.0000   1.0000
     1.0000   1.0000   1.0000   1.0000   1.0000   1.0000   1.0000   1.0000
     1.0000   1.0000   1.0000   1.0000   1.0000   1.0000   1.0000   1.0000
     1.0000   1.0000   1.0000   1.0000   0.9656   0.9544   0.9139   0.8514
     0.5088   0.0369   0.0222   0.0000   0.0000   0.0000   0.0000   0.0000
     0.0000   0.0000   0.0000   0.0000   0.0000   0.0000   0.0000   0.0000
     0.0000   0.0000   0.0000   0.0000   0.0000   0.0000   0.0000   0.0000
     0.0000   0.0000   0.0000   0.0000   0.0000   0.0000   0.0000   0.0000
     0.0000   0.0000   0.0000   0.0000   0.0000   0.0000   0.0000   0.0000

          k =-0.5000-0.2887 0.0000 ( 75730 PWs)   bands (ev):

   -43.2891 -43.2891 -43.2483 -43.2482 -43.2404 -41.5385 -41.5382 -41.5381
   -41.5380 -41.5380 -41.5378 -41.5033 -41.5031 -41.5029 -41.5029 -41.5028
   -41.5027 -41.5024 -41.5021 -41.5020 -41.5019 -41.5019 -41.5017 -41.3935
   -41.3933 -41.3932 -41.3931 -41.3931 -41.3930 -41.3930 -41.3928 -41.3927
   -41.3926 -41.3926 -41.3925 -40.7722 -40.7722 -40.7721 -40.7721 -40.7721
   -40.7721 -40.7710 -40.7710 -40.7710 -40.7710 -40.7690 -40.7688 -40.7670
   -40.7669 -40.7668 -40.7668 -40.7606 -40.7606 -40.7605 -40.7605 -40.6417
   -40.6417 -40.6416 -40.6415 -40.6415 -40.6415 -40.6405 -40.6404 -40.6403
   -40.6403 -40.6402 -40.6402 -40.6395 -40.6394 -40.6394 -40.6393 -40.6393
   -40.6392 -40.6363 -40.6363 -40.6362 -40.6361 -40.6361 -40.6361 -40.6358
   -40.6358 -40.6357 -40.6357 -40.6356 -40.6356 -13.0939 -13.0881 -13.0830
   -13.0728 -13.0719 -13.0708 -13.0601 -13.0530 -13.0505 -13.0474 -13.0462
   -13.0461 -13.0453 -13.0444 -13.0403 -12.7606 -12.7538 -12.7483 -12.7468
   -12.7460 -12.7378 -12.7375 -12.7353 -12.7348 -12.7342 -12.7336 -12.7323
   -12.7293 -12.7281 -12.7266 -12.7263 -12.7263 -12.7158 -12.7150 -12.7136
    -9.7827  -8.2863  -8.1431  -8.1392  -8.0710  -8.0320  -7.9063  -7.7246
    -7.6929  -7.5730  -7.5629  -7.5097  -7.4363  -7.3956  -7.3834  -7.3426
    -7.3081  -3.7676  -3.6413  -3.5228  -3.4133  -3.4029  -3.1704  -3.1549
    -0.1583  -0.0917   0.0288   1.0702   1.2058   1.2735   1.4362   1.4802
     1.5389   1.5712   1.5826   1.6103   1.6685   1.6924   1.7133   1.8015
     1.9716   2.0692   2.0829   2.0984   2.1538   2.1681   2.2445   2.2814
     2.2964   2.3481   2.4314   2.4580   2.4838   2.4867   2.5501   2.6283
     2.6789   2.8080   2.8266   2.8306   2.9692   3.0131   3.0170   3.0608
     3.1184   3.1445   3.1530   3.1563   3.4335   3.4460   3.4772   3.5082
     3.6063   3.7806   3.8018   6.4407   6.7571   6.8045   6.8942   6.9034
     7.0534   7.0608   7.1099   7.1994   7.2287   7.4027   7.4193   7.4297
     7.4305   7.5277   7.5520   7.5607   7.5651   7.5753   7.8376   7.8559
     9.4421   9.8567   9.8755   9.9749  10.1016  10.1492  10.1694  10.2509
    10.5906  10.6106  10.6314  10.7432  10.8161  10.9372  11.1191  11.1242

     occupation numbers 
     1.0000   1.0000   1.0000   1.0000   1.0000   1.0000   1.0000   1.0000
     1.0000   1.0000   1.0000   1.0000   1.0000   1.0000   1.0000   1.0000
     1.0000   1.0000   1.0000   1.0000   1.0000   1.0000   1.0000   1.0000
     1.0000   1.0000   1.0000   1.0000   1.0000   1.0000   1.0000   1.0000
     1.0000   1.0000   1.0000   1.0000   1.0000   1.0000   1.0000   1.0000
     1.0000   1.0000   1.0000   1.0000   1.0000   1.0000   1.0000   1.0000
     1.0000   1.0000   1.0000   1.0000   1.0000   1.0000   1.0000   1.0000
     1.0000   1.0000   1.0000   1.0000   1.0000   1.0000   1.0000   1.0000
     1.0000   1.0000   1.0000   1.0000   1.0000   1.0000   1.0000   1.0000
     1.0000   1.0000   1.0000   1.0000   1.0000   1.0000   1.0000   1.0000
     1.0000   1.0000   1.0000   1.0000   1.0000   1.0000   1.0000   1.0000
     1.0000   1.0000   1.0000   1.0000   1.0000   1.0000   1.0000   1.0000
     1.0000   1.0000   1.0000   1.0000   1.0000   1.0000   1.0000   1.0000
     1.0000   1.0000   1.0000   1.0000   1.0000   1.0000   1.0000   1.0000
     1.0000   1.0000   1.0000   1.0000   1.0000   1.0000   1.0000   1.0000
     1.0000   1.0000   1.0000   1.0000   1.0000   1.0000   1.0000   1.0000
     1.0000   1.0000   1.0000   1.0000   1.0000   1.0000   1.0000   1.0000
     1.0000   1.0000   1.0000   1.0000   1.0000   1.0000   1.0000   1.0000
     1.0000   1.0000   1.0000   1.0000   1.0000   1.0000   1.0000   1.0000
     1.0000   1.0000   1.0000   1.0000   1.0000   1.0000   1.0000   1.0000
     1.0000   1.0000   1.0000   1.0000   1.0000   1.0000   1.0000   1.0000
     1.0000   1.0000   1.0000   1.0000   1.0000   1.0000   1.0000   1.0000
     1.0000   1.0000   1.0000   1.0000   1.0000   1.0000   1.0000   1.0000
     1.0000   1.0000   1.0000   1.0000   0.9656   0.9544   0.9138   0.8514
     0.5089   0.0368   0.0222   0.0000   0.0000   0.0000   0.0000   0.0000
     0.0000   0.0000   0.0000   0.0000   0.0000   0.0000   0.0000   0.0000
     0.0000   0.0000   0.0000   0.0000   0.0000   0.0000   0.0000   0.0000
     0.0000   0.0000   0.0000   0.0000   0.0000   0.0000   0.0000   0.0000
     0.0000   0.0000   0.0000   0.0000   0.0000   0.0000   0.0000   0.0000

     the Fermi energy is     3.6085 ev

!    total energy              =  -15856.61746117 Ry
     total all-electron energy =   -534698.193493 Ry
     estimated scf accuracy    <       0.00000002 Ry
     smearing contrib. (-TS)   =      -0.01440379 Ry
     internal energy E=F+TS    =  -15856.60305738 Ry

     The total energy is F=E-TS. E is the sum of the following terms:
     one-electron contribution =   -3081.18182252 Ry
     hartree contribution      =    1708.11155012 Ry
     xc contribution           =   -1152.62785049 Ry
     ewald contribution        =   -2507.22142569 Ry
     one-center paw contrib.   =  -10823.68350881 Ry
      -> PAW hartree energy AE =     191.09935713 Ry
      -> PAW hartree energy PS =    -191.56674949 Ry
      -> PAW xc energy AE      =   -1596.79600328 Ry
      -> PAW xc energy PS      =      66.56090971 Ry
      -> total E_H with PAW    =    1707.64415776 Ry
      -> total E_XC with PAW   =   -2682.86294406 Ry

     convergence has been achieved in  21 iterations


     -----------------------------------------------
     Non-local corr. energy    =      11.81026622 Ry
     -----------------------------------------------


     Forces acting on atoms (cartesian axes, Ry/au):

     atom    1 type  1   force =     0.00000180   -0.00000251    0.00000872
     atom    2 type  1   force =     0.00000055   -0.00000523    0.00000085
     atom    3 type  1   force =     0.00000268   -0.00000182    0.00001165
     atom    4 type  1   force =     0.00000488    0.00000484   -0.00000609
     atom    5 type  1   force =     0.00000178   -0.00000250    0.00000745
     atom    6 type  1   force =    -0.00000206    0.00000379    0.00000668
     atom    7 type  1   force =     0.00000192   -0.00000130    0.00000839
     atom    8 type  2   force =    -0.00000493    0.00042179    0.00173749
     atom    9 type  2   force =    -0.00001989    0.00052777   -0.00205496
     atom   10 type  2   force =     0.00036687   -0.00020836    0.00173595
     atom   11 type  2   force =     0.00046444   -0.00026804   -0.00203003
     atom   12 type  2   force =     0.00000352   -0.00000118   -0.00358737
     atom   13 type  2   force =    -0.00000403    0.00000584    0.00254565
     atom   14 type  2   force =    -0.00036705   -0.00020170    0.00173456
     atom   15 type  2   force =    -0.00047254   -0.00025229   -0.00205088
     atom   16 type  2   force =     0.00048543    0.00025563    0.00201724
     atom   17 type  2   force =     0.00036985    0.00020699   -0.00170917
     atom   18 type  2   force =     0.00001124   -0.00000890   -0.00257163
     atom   19 type  2   force =     0.00000302    0.00000342    0.00361568
     atom   20 type  2   force =    -0.00046153    0.00026025    0.00202819
     atom   21 type  2   force =    -0.00036603    0.00020751   -0.00172985
     atom   22 type  2   force =     0.00001254   -0.00054180    0.00202334
     atom   23 type  2   force =     0.00000175   -0.00042014   -0.00171116
     atom   24 type  2   force =    -0.00003420    0.00001792   -0.00003066
     The non-local contrib.  to forces
     atom    1 type  1   force =    -0.00000411   -0.00000261    0.00000406
     atom    2 type  1   force =     0.00003133   -0.00005418   -0.00003606
     atom    3 type  1   force =    -0.00000878   -0.00001094   -0.00002390
     atom    4 type  1   force =     0.00004163   -0.00004096    0.00001558
     atom    5 type  1   force =    -0.00000379   -0.00001100    0.00002634
     atom    6 type  1   force =     0.00002573   -0.00005211   -0.00000339
     atom    7 type  1   force =    -0.00001006   -0.00001833   -0.00000079
     atom    8 type  2   force =     0.00000018    0.00117881    0.23924408
     atom    9 type  2   force =    -0.00000998   -0.04190296    0.22090870
     atom   10 type  2   force =     0.00102361   -0.00057712    0.23924669
     atom   11 type  2   force =    -0.03624876    0.02094756    0.22095516
     atom   12 type  2   force =     0.00000198   -0.00000318    0.22236757
     atom   13 type  2   force =    -0.00000934    0.00000954    0.26648402
     atom   14 type  2   force =    -0.00103821   -0.00057624    0.23925548
     atom   15 type  2   force =     0.03626082    0.02097329    0.22092716
     atom   16 type  2   force =    -0.03628919   -0.02090719   -0.22095362
     atom   17 type  2   force =     0.00101008    0.00060150   -0.23923286
     atom   18 type  2   force =    -0.00001857    0.00000146   -0.26650113
     atom   19 type  2   force =    -0.00000570   -0.00001156   -0.22235349
     atom   20 type  2   force =     0.03624693   -0.02089212   -0.22094903
     atom   21 type  2   force =    -0.00102276    0.00061251   -0.23924747
     atom   22 type  2   force =    -0.00000169    0.04191344   -0.22093746
     atom   23 type  2   force =     0.00001630   -0.00117980   -0.23922871
     atom   24 type  2   force =     0.00001755   -0.00003326   -0.00002822
     The ionic contribution  to forces
     atom    1 type  1   force =     0.00002769   -0.00007504    0.00008018
     atom    2 type  1   force =    -0.00059068    0.00098119    0.00032611
     atom    3 type  1   force =     0.00017973    0.00030034    0.00038035
     atom    4 type  1   force =    -0.00064470    0.00081246   -0.00011325
     atom    5 type  1   force =     0.00011955    0.00014329   -0.00015688
     atom    6 type  1   force =    -0.00047759    0.00122877    0.00013215
     atom    7 type  1   force =     0.00026378    0.00052493    0.00014328
     atom    8 type  2   force =    -0.00071901   -0.12497219  -13.45027312
     atom    9 type  2   force =    -0.00076322   -1.66339131  -15.72948345
     atom   10 type  2   force =    -0.10869560    0.06210168  -13.44973478
     atom   11 type  2   force =    -1.44105906    0.83136641  -15.72896523
     atom   12 type  2   force =     0.00009050    0.00035335  -13.56821244
     atom   13 type  2   force =     0.00000938    0.00041826  -14.80784267
     atom   14 type  2   force =     0.10844169    0.06253121  -13.45022264
     atom   15 type  2   force =     1.44071348    0.83179408  -15.72941112
     atom   16 type  2   force =    -1.43941831   -0.83315826   15.72916763
     atom   17 type  2   force =    -0.10788713   -0.06337995   13.45003340
     atom   18 type  2   force =     0.00113086   -0.00030039   14.80780229
     atom   19 type  2   force =     0.00025554    0.00047611   13.56816566
     atom   20 type  2   force =     1.44140276   -0.83339370   15.72904278
     atom   21 type  2   force =     0.10807520   -0.06339121   13.44953297
     atom   22 type  2   force =     0.00056804    1.66293249   15.72925636
     atom   23 type  2   force =    -0.00013578    0.12537423   13.45025444
     atom   24 type  2   force =    -0.00088713    0.00072326    0.00009801
     The local contribution  to forces
     atom    1 type  1   force =    -0.00002395    0.00008200   -0.00012732
     atom    2 type  1   force =     0.00056213   -0.00088507   -0.00022739
     atom    3 type  1   force =    -0.00016267   -0.00028862   -0.00039931
     atom    4 type  1   force =     0.00056013   -0.00078301    0.00014991
     atom    5 type  1   force =    -0.00011496   -0.00013575    0.00008345
     atom    6 type  1   force =     0.00044603   -0.00117874   -0.00008158
     atom    7 type  1   force =    -0.00025943   -0.00050542   -0.00018255
     atom    8 type  2   force =     0.00072942    0.12427882   13.21808676
     atom    9 type  2   force =     0.00078311    1.70530910   15.51159298
     atom   10 type  2   force =     0.10808176   -0.06176015   13.21756339
     atom   11 type  2   force =     1.47732548   -0.85231658   15.51104602
     atom   12 type  2   force =    -0.00011167   -0.00034012   13.34706679
     atom   13 type  2   force =    -0.00002665   -0.00041344   14.54995701
     atom   14 type  2   force =    -0.10781759   -0.06220297   13.21802457
     atom   15 type  2   force =    -1.47699226   -0.85278272   15.51151962
     atom   16 type  2   force =     1.47572226    0.85405734  -15.51119712
     atom   17 type  2   force =     0.10728871    0.06301957  -13.21791811
     atom   18 type  2   force =    -0.00109723    0.00028884  -14.54984687
     atom   19 type  2   force =    -0.00024192   -0.00046697  -13.34710002
     atom   20 type  2   force =    -1.47765762    0.85428461  -15.51108356
     atom   21 type  2   force =    -0.10746079    0.06301753  -13.21740117
     atom   22 type  2   force =    -0.00055942   -1.70485426  -15.51129183
     atom   23 type  2   force =     0.00011711   -0.12467260  -13.21814544
     atom   24 type  2   force =     0.00090976   -0.00069797   -0.00001824
     The core correction contribution to forces
     atom    1 type  1   force =    -0.00000019    0.00000001   -0.00000065
     atom    2 type  1   force =    -0.00000033    0.00000078    0.00000028
     atom    3 type  1   force =     0.00000005    0.00000005   -0.00000062
     atom    4 type  1   force =    -0.00000064    0.00000003    0.00000043
     atom    5 type  1   force =     0.00000022    0.00000005   -0.00000062
     atom    6 type  1   force =    -0.00000009    0.00000036   -0.00000025
     atom    7 type  1   force =     0.00000002    0.00000032   -0.00000054
     atom    8 type  2   force =    -0.00000080   -0.00004287   -0.00538866
     atom    9 type  2   force =    -0.00000117    0.00065303   -0.00491863
     atom   10 type  2   force =    -0.00003987    0.00002461   -0.00539014
     atom   11 type  2   force =     0.00056044   -0.00032184   -0.00492114
     atom   12 type  2   force =    -0.00000059    0.00000241   -0.00486027
     atom   13 type  2   force =    -0.00000085    0.00000259   -0.00596890
     atom   14 type  2   force =     0.00003892    0.00002494   -0.00538917
     atom   15 type  2   force =    -0.00056340   -0.00032234   -0.00491959
     atom   16 type  2   force =     0.00056239    0.00032564    0.00491863
     atom   17 type  2   force =    -0.00003965   -0.00002062    0.00538814
     atom   18 type  2   force =     0.00000007    0.00000191    0.00596781
     atom   19 type  2   force =    -0.00000050    0.00000260    0.00485917
     atom   20 type  2   force =    -0.00056172    0.00032547    0.00491937
     atom   21 type  2   force =     0.00003864   -0.00002062    0.00538967
     atom   22 type  2   force =    -0.00000004   -0.00064855    0.00491783
     atom   23 type  2   force =    -0.00000086    0.00004766    0.00538797
     atom   24 type  2   force =    -0.00000125    0.00000328   -0.00000038
     The Hubbard contrib.    to forces
     atom    1 type  1   force =     0.00000000    0.00000000    0.00000000
     atom    2 type  1   force =     0.00000000    0.00000000    0.00000000
     atom    3 type  1   force =     0.00000000    0.00000000    0.00000000
     atom    4 type  1   force =     0.00000000    0.00000000    0.00000000
     atom    5 type  1   force =     0.00000000    0.00000000    0.00000000
     atom    6 type  1   force =     0.00000000    0.00000000    0.00000000
     atom    7 type  1   force =     0.00000000    0.00000000    0.00000000
     atom    8 type  2   force =     0.00000000    0.00000000    0.00000000
     atom    9 type  2   force =     0.00000000    0.00000000    0.00000000
     atom   10 type  2   force =     0.00000000    0.00000000    0.00000000
     atom   11 type  2   force =     0.00000000    0.00000000    0.00000000
     atom   12 type  2   force =     0.00000000    0.00000000    0.00000000
     atom   13 type  2   force =     0.00000000    0.00000000    0.00000000
     atom   14 type  2   force =     0.00000000    0.00000000    0.00000000
     atom   15 type  2   force =     0.00000000    0.00000000    0.00000000
     atom   16 type  2   force =     0.00000000    0.00000000    0.00000000
     atom   17 type  2   force =     0.00000000    0.00000000    0.00000000
     atom   18 type  2   force =     0.00000000    0.00000000    0.00000000
     atom   19 type  2   force =     0.00000000    0.00000000    0.00000000
     atom   20 type  2   force =     0.00000000    0.00000000    0.00000000
     atom   21 type  2   force =     0.00000000    0.00000000    0.00000000
     atom   22 type  2   force =     0.00000000    0.00000000    0.00000000
     atom   23 type  2   force =     0.00000000    0.00000000    0.00000000
     atom   24 type  2   force =     0.00000000    0.00000000    0.00000000
     The SCF correction term to forces
     atom    1 type  1   force =     0.00000106   -0.00000396    0.00005081
     atom    2 type  1   force =    -0.00000321   -0.00004506   -0.00006372
     atom    3 type  1   force =    -0.00000696    0.00000026    0.00005350
     atom    4 type  1   force =     0.00004716    0.00001923   -0.00006039
     atom    5 type  1   force =    -0.00000054    0.00000382    0.00005354
     atom    6 type  1   force =     0.00000255    0.00000842   -0.00004188
     atom    7 type  1   force =     0.00000631    0.00000011    0.00004736
     atom    8 type  2   force =    -0.00001603   -0.00001786    0.00006681
     atom    9 type  2   force =    -0.00002993   -0.00013719   -0.00015619
     atom   10 type  2   force =    -0.00000433    0.00000553    0.00004917
     atom   11 type  2   force =    -0.00011498    0.00005932   -0.00014646
     atom   12 type  2   force =     0.00002200   -0.00001072    0.00004935
     atom   13 type  2   force =     0.00002213   -0.00000820   -0.00008544
     atom   14 type  2   force =     0.00000683    0.00002426    0.00006470
     atom   15 type  2   force =     0.00010751    0.00008831   -0.00016856
     atom   16 type  2   force =    -0.00009302   -0.00005901    0.00008010
     atom   17 type  2   force =    -0.00000346   -0.00001060    0.00001863
     atom   18 type  2   force =    -0.00000520    0.00000219    0.00000465
     atom   19 type  2   force =    -0.00000572    0.00000616    0.00004273
     atom   20 type  2   force =     0.00010681   -0.00006110    0.00009700
     atom   21 type  2   force =     0.00000238   -0.00000780   -0.00000548
     atom   22 type  2   force =     0.00000434    0.00011798    0.00007681
     atom   23 type  2   force =     0.00000367    0.00001327    0.00001895
     atom   24 type  2   force =    -0.00007444    0.00002551   -0.00008346

     Total force =     0.009195     Total SCF correction =     0.000507


     Computing stress (Cartesian axis) and pressure



     -----------------------------------------------
     Non-local corr. energy    =      11.81026622 Ry
     -----------------------------------------------

          total   stress  (Ry/bohr**3)                   (kbar)     P=      -29.31
  -0.00019780  -0.00000000   0.00000002          -29.10       -0.00        0.00
  -0.00000000  -0.00019782  -0.00000002           -0.00      -29.10       -0.00
   0.00000002  -0.00000002  -0.00020220            0.00       -0.00      -29.74

     kinetic stress (kbar)  14684.54      0.00     -0.00
                                0.00  14684.55      0.00
                               -0.00      0.00  14697.34

     local   stress (kbar)  -7665.32      0.52     -0.44
                                0.52  -7664.45      0.37
                               -0.44      0.37   1505.47

     nonloc. stress (kbar)   -663.31      0.00      0.00
                                0.00   -663.30      0.00
                                0.00      0.00   -664.90

     hartree stress (kbar)  12323.15     -0.20      0.17
                               -0.20  12322.82     -0.14
                                0.17     -0.14   8173.31

     exc-cor stress (kbar)   7102.41     -0.00      0.00
                               -0.00   7102.41     -0.00
                                0.00     -0.00   7101.65

     corecor stress (kbar) -11516.26      0.00     -0.00
                                0.00 -11516.26      0.00
                               -0.00      0.00 -11516.38

     ewald   stress (kbar) -14379.83     -0.33      0.28
                               -0.33 -14380.39     -0.23
                                0.28     -0.23 -19413.00

     hubbard stress (kbar)      0.00      0.00      0.00
                                0.00      0.00      0.00
                                0.00      0.00      0.00

     DFT-D   stress (kbar)      0.00      0.00      0.00
                                0.00      0.00      0.00
                                0.00      0.00      0.00

     XDM     stress (kbar)      0.00      0.00      0.00
                                0.00      0.00      0.00
                                0.00      0.00      0.00

     dft-nl  stress (kbar)     85.52      0.00     -0.00
                                0.00     85.52      0.00
                               -0.00      0.00     86.75

     TS-vdW  stress (kbar)      0.00      0.00      0.00
                                0.00      0.00      0.00
                                0.00      0.00      0.00

     MDB     stress (kbar)      0.00      0.00      0.00
                                0.00      0.00      0.00
                                0.00      0.00      0.00

     3D-RISM stress (kbar)      0.00      0.00      0.00
                                0.00      0.00      0.00
                                0.00      0.00      0.00


     BFGS Geometry Optimization
     Energy error            =      0.0E+00 Ry
     Gradient error          =      3.6E-03 Ry/Bohr

     number of scf cycles    =   1
     number of bfgs steps    =   0

     energy             new  =  -15856.6174611680 Ry

     new trust radius        =       0.0036156813 bohr
     new conv_thr            =       0.0000001000 Ry


ATOMIC_POSITIONS (angstrom)
Pb            2.3556993786        4.0798026736        7.3776568008
Pb            0.0001447461        8.1597759784       14.7552874481
Pb            0.0000496237        8.1598629367        7.3775806587
Pb            7.0670662774        4.0797032663       14.7554228268
Pb            7.0669683883        4.0797845321        7.3777174874
Pb            4.7114123793        8.1597626086       14.7553518920
Pb            4.7113182363        8.1598450656        7.3776402930
I             2.3557329884        1.3599892026        5.4835637999
I             2.3558213173        1.3599601326       12.8592694273
I             0.0002795106        5.4397156379        5.4834852940
I             0.0004273912        5.4395989066       12.8592049291
I             7.0670064788        1.3597472262        5.4808073656
I             7.0670987284        1.3596657899       12.8617653223
I             4.7111601583        5.4397010120        5.4835459176
I             4.7112005813        5.4395890949       12.8592552544
I             0.0002247622        2.7200400550        1.8960432176
I             0.0002598461        2.7199291632        9.2717837888
I            -2.3556763936        6.7999599689        1.8935371993
I            -2.3555844935        6.7998813365        9.2745238846
I             4.7109926687        2.7200243555        1.8961103698
I             4.7111394559        2.7199112946        9.2718342017
I             2.3555933130        6.7996598239        1.8960301074
I             2.3556838545        6.7996390508        9.2717663990
I             2.3557765795        4.0797283306       14.7553484670



     Writing config-only to output data dir ./PbI2.save/
     NEW-OLD atomic charge density approx. for the potential

     Check: negative core charge=   -0.000002


     -----------------------------------------------
     Non-local corr. energy    =      11.81027953 Ry
     -----------------------------------------------


     total cpu time spent up to now is      702.3 secs

     Self-consistent Calculation

     iteration #  1     ecut=    70.00 Ry     beta= 0.70
     Davidson diagonalization with overlap

---- Real-time Memory Report at c_bands before calling an iterative solver
           528 MiB given to the printing process from OS
             0 MiB allocation reported by mallinfo(arena+hblkhd)
       1989801 MiB available memory on the node where the printing process lives
------------------
     ethr =  1.00E-06,  avg # of iterations =  3.0

     Threshold (ethr) on eigenvalues was too large:
     Diagonalizing with lowered threshold

     Davidson diagonalization with overlap

---- Real-time Memory Report at c_bands before calling an iterative solver
           528 MiB given to the printing process from OS
             0 MiB allocation reported by mallinfo(arena+hblkhd)
       1989305 MiB available memory on the node where the printing process lives
------------------
     ethr =  6.75E-10,  avg # of iterations =  8.8


     -----------------------------------------------
     Non-local corr. energy    =      11.81022042 Ry
     -----------------------------------------------


     total cpu time spent up to now is      762.8 secs

     total energy              =  -15856.61754102 Ry
     estimated scf accuracy    <       0.00000179 Ry

     iteration #  2     ecut=    70.00 Ry     beta= 0.70
     Davidson diagonalization with overlap

---- Real-time Memory Report at c_bands before calling an iterative solver
           531 MiB given to the printing process from OS
             0 MiB allocation reported by mallinfo(arena+hblkhd)
       1987928 MiB available memory on the node where the printing process lives
------------------
     ethr =  4.65E-10,  avg # of iterations = 11.0


     -----------------------------------------------
     Non-local corr. energy    =      11.81022479 Ry
     -----------------------------------------------


     total cpu time spent up to now is      802.9 secs

     total energy              =  -15856.61753469 Ry
     estimated scf accuracy    <       0.00015194 Ry

     iteration #  3     ecut=    70.00 Ry     beta= 0.70
     Davidson diagonalization with overlap

---- Real-time Memory Report at c_bands before calling an iterative solver
           531 MiB given to the printing process from OS
             0 MiB allocation reported by mallinfo(arena+hblkhd)
       1990718 MiB available memory on the node where the printing process lives
------------------
     ethr =  4.65E-10,  avg # of iterations = 11.5


     -----------------------------------------------
     Non-local corr. energy    =      11.81023790 Ry
     -----------------------------------------------


     total cpu time spent up to now is      834.7 secs

     total energy              =  -15856.61754172 Ry
     estimated scf accuracy    <       0.00000899 Ry

     iteration #  4     ecut=    70.00 Ry     beta= 0.70
     Davidson diagonalization with overlap

---- Real-time Memory Report at c_bands before calling an iterative solver
           531 MiB given to the printing process from OS
             0 MiB allocation reported by mallinfo(arena+hblkhd)
       1988577 MiB available memory on the node where the printing process lives
------------------
     ethr =  4.65E-10,  avg # of iterations = 12.0


     -----------------------------------------------
     Non-local corr. energy    =      11.81025656 Ry
     -----------------------------------------------


     total cpu time spent up to now is      867.3 secs

     total energy              =  -15856.61754272 Ry
     estimated scf accuracy    <       0.00000444 Ry

     iteration #  5     ecut=    70.00 Ry     beta= 0.70
     Davidson diagonalization with overlap

---- Real-time Memory Report at c_bands before calling an iterative solver
           531 MiB given to the printing process from OS
             0 MiB allocation reported by mallinfo(arena+hblkhd)
       1989085 MiB available memory on the node where the printing process lives
------------------
     ethr =  4.65E-10,  avg # of iterations = 11.8


     -----------------------------------------------
     Non-local corr. energy    =      11.81026555 Ry
     -----------------------------------------------


     total cpu time spent up to now is      898.2 secs

     total energy              =  -15856.61754324 Ry
     estimated scf accuracy    <       0.00000074 Ry

     iteration #  6     ecut=    70.00 Ry     beta= 0.70
     Davidson diagonalization with overlap

---- Real-time Memory Report at c_bands before calling an iterative solver
           531 MiB given to the printing process from OS
             0 MiB allocation reported by mallinfo(arena+hblkhd)
       1988165 MiB available memory on the node where the printing process lives
------------------
     ethr =  1.93E-10,  avg # of iterations =  9.3


     -----------------------------------------------
     Non-local corr. energy    =      11.81027326 Ry
     -----------------------------------------------


     total cpu time spent up to now is      924.9 secs

     total energy              =  -15856.61754343 Ry
     estimated scf accuracy    <       0.00000014 Ry

     iteration #  7     ecut=    70.00 Ry     beta= 0.70
     Davidson diagonalization with overlap

---- Real-time Memory Report at c_bands before calling an iterative solver
           531 MiB given to the printing process from OS
             0 MiB allocation reported by mallinfo(arena+hblkhd)
       1989298 MiB available memory on the node where the printing process lives
------------------
     ethr =  3.72E-11,  avg # of iterations = 10.0


     -----------------------------------------------
     Non-local corr. energy    =      11.81028732 Ry
     -----------------------------------------------


     total cpu time spent up to now is      953.1 secs

     End of self-consistent calculation

          k = 0.0000 0.0000 0.0000 ( 75645 PWs)   bands (ev):

   -43.2878 -43.2878 -43.2473 -43.2472 -43.2394 -41.5378 -41.5376 -41.5375
   -41.5374 -41.5374 -41.5372 -41.5026 -41.5024 -41.5023 -41.5022 -41.5022
   -41.5020 -41.5017 -41.5015 -41.5014 -41.5013 -41.5013 -41.5011 -41.3928
   -41.3926 -41.3925 -41.3925 -41.3925 -41.3923 -41.3923 -41.3921 -41.3920
   -41.3920 -41.3919 -41.3918 -40.7731 -40.7731 -40.7731 -40.7731 -40.7731
   -40.7731 -40.7721 -40.7721 -40.7721 -40.7721 -40.7686 -40.7686 -40.7665
   -40.7665 -40.7665 -40.7665 -40.7600 -40.7600 -40.7600 -40.7600 -40.6422
   -40.6421 -40.6421 -40.6421 -40.6420 -40.6420 -40.6409 -40.6409 -40.6408
   -40.6408 -40.6408 -40.6407 -40.6399 -40.6398 -40.6398 -40.6398 -40.6398
   -40.6398 -40.6366 -40.6366 -40.6366 -40.6365 -40.6365 -40.6365 -40.6362
   -40.6361 -40.6361 -40.6361 -40.6361 -40.6361 -13.0946 -13.0945 -13.0780
   -13.0748 -13.0714 -13.0713 -13.0675 -13.0518 -13.0517 -13.0500 -13.0458
   -13.0458 -13.0420 -13.0406 -13.0405 -12.7682 -12.7557 -12.7557 -12.7446
   -12.7446 -12.7402 -12.7372 -12.7372 -12.7343 -12.7310 -12.7310 -12.7304
   -12.7292 -12.7292 -12.7268 -12.7225 -12.7225 -12.7134 -12.7120 -12.7120
    -9.7901  -8.1590  -8.1302  -8.1301  -8.1007  -8.0423  -8.0422  -7.8864
    -7.5811  -7.5442  -7.5076  -7.4359  -7.4203  -7.4203  -7.4035  -7.3254
    -7.3254  -3.7798  -3.7798  -3.4247  -3.4244  -3.4243  -3.4089  -2.9564
    -0.1630  -0.1628  -0.1555   1.1171   1.1172   1.1590   1.3136   1.3137
     1.3769   1.5714   1.5714   1.6376   1.8132   2.0459   2.1442   2.1442
     2.1452   2.1452   2.1856   2.2000   2.2082   2.2082   2.3598   2.4103
     2.4105   2.4275   2.4275   2.4345   2.4348   2.4447   2.7164   2.7955
     2.7955   2.9144   2.9161   2.9161   2.9205   2.9841   2.9841   3.0721
     3.0983   3.0984   3.1304   3.1304   3.2251   3.2367   3.2367   3.4329
     3.4861   3.6932   3.6934   6.1361   6.3135   6.5517   6.5518   6.8767
     6.8770   6.9459   7.0014   7.0233   7.0234   7.0714   7.0715   7.1625
     7.4131   7.4133   7.6313   7.6313   7.6683   7.9958   8.0380   8.0381
     9.0222   9.0363   9.0364   9.7634   9.7933   9.7934   9.8085  10.4009
    11.0084  11.0086  11.0345  11.1692  11.1704  11.1704  11.3608  11.3861

     occupation numbers 
     1.0000   1.0000   1.0000   1.0000   1.0000   1.0000   1.0000   1.0000
     1.0000   1.0000   1.0000   1.0000   1.0000   1.0000   1.0000   1.0000
     1.0000   1.0000   1.0000   1.0000   1.0000   1.0000   1.0000   1.0000
     1.0000   1.0000   1.0000   1.0000   1.0000   1.0000   1.0000   1.0000
     1.0000   1.0000   1.0000   1.0000   1.0000   1.0000   1.0000   1.0000
     1.0000   1.0000   1.0000   1.0000   1.0000   1.0000   1.0000   1.0000
     1.0000   1.0000   1.0000   1.0000   1.0000   1.0000   1.0000   1.0000
     1.0000   1.0000   1.0000   1.0000   1.0000   1.0000   1.0000   1.0000
     1.0000   1.0000   1.0000   1.0000   1.0000   1.0000   1.0000   1.0000
     1.0000   1.0000   1.0000   1.0000   1.0000   1.0000   1.0000   1.0000
     1.0000   1.0000   1.0000   1.0000   1.0000   1.0000   1.0000   1.0000
     1.0000   1.0000   1.0000   1.0000   1.0000   1.0000   1.0000   1.0000
     1.0000   1.0000   1.0000   1.0000   1.0000   1.0000   1.0000   1.0000
     1.0000   1.0000   1.0000   1.0000   1.0000   1.0000   1.0000   1.0000
     1.0000   1.0000   1.0000   1.0000   1.0000   1.0000   1.0000   1.0000
     1.0000   1.0000   1.0000   1.0000   1.0000   1.0000   1.0000   1.0000
     1.0000   1.0000   1.0000   1.0000   1.0000   1.0000   1.0000   1.0000
     1.0000   1.0000   1.0000   1.0000   1.0000   1.0000   1.0000   1.0000
     1.0000   1.0000   1.0000   1.0000   1.0000   1.0000   1.0000   1.0000
     1.0000   1.0000   1.0000   1.0000   1.0000   1.0000   1.0000   1.0000
     1.0000   1.0000   1.0000   1.0000   1.0000   1.0000   1.0000   1.0000
     1.0000   1.0000   1.0000   1.0000   1.0000   1.0000   1.0000   1.0000
     1.0000   1.0000   1.0000   1.0000   1.0000   1.0000   1.0000   1.0000
     1.0000   1.0000   1.0000   1.0000   1.0000   0.9999   0.9999   0.9661
     0.8986   0.1899   0.1894   0.0000   0.0000   0.0000   0.0000   0.0000
     0.0000   0.0000   0.0000   0.0000   0.0000   0.0000   0.0000   0.0000
     0.0000   0.0000   0.0000   0.0000   0.0000   0.0000   0.0000   0.0000
     0.0000   0.0000   0.0000   0.0000   0.0000   0.0000   0.0000   0.0000
     0.0000   0.0000   0.0000   0.0000   0.0000   0.0000   0.0000   0.0000

[...]
     atom    3 type  1   force =     0.00000857   -0.00001756   -0.00000559
     atom    4 type  1   force =     0.00000754   -0.00003125    0.00001069
     atom    5 type  1   force =     0.00000117   -0.00003128    0.00000213
     atom    6 type  1   force =     0.00001717   -0.00002601    0.00001502
     atom    7 type  1   force =    -0.00000572   -0.00002306   -0.00001525
     atom    8 type  2   force =     0.00000251    0.00036683    0.23861596
     atom    9 type  2   force =     0.00000471   -0.04278535    0.22247953
     atom   10 type  2   force =     0.00031302   -0.00016354    0.23862378
     atom   11 type  2   force =    -0.03693411    0.02133283    0.22258068
     atom   12 type  2   force =    -0.00000619    0.00000791    0.22072559
     atom   13 type  2   force =    -0.00001516    0.00001385    0.26485168
     atom   14 type  2   force =    -0.00031751   -0.00016534    0.23862115
     atom   15 type  2   force =     0.03702116    0.02137736    0.22251124
     atom   16 type  2   force =    -0.03705488   -0.02136107   -0.22251071
     atom   17 type  2   force =     0.00030243    0.00020130   -0.23862042
     atom   18 type  2   force =    -0.00000863    0.00000740   -0.26484754
     atom   19 type  2   force =     0.00000141   -0.00000220   -0.22070713
     atom   20 type  2   force =     0.03697260   -0.02132837   -0.22256314
     atom   21 type  2   force =    -0.00030774    0.00019868   -0.23862582
     atom   22 type  2   force =    -0.00001314    0.04281708   -0.22248784
     atom   23 type  2   force =    -0.00000165   -0.00035476   -0.23862007
     atom   24 type  2   force =    -0.00003465    0.00000685   -0.00003459
     The ionic contribution  to forces
     atom    1 type  1   force =    -0.00008617    0.00044736   -0.00194919
     atom    2 type  1   force =    -0.00039771    0.00132217    0.00130105
     atom    3 type  1   force =    -0.00022621    0.00033610   -0.00212857
     atom    4 type  1   force =    -0.00106540    0.00029839    0.00205933
     atom    5 type  1   force =    -0.00005237    0.00073296   -0.00168577
     atom    6 type  1   force =    -0.00040404    0.00044257    0.00199703
     atom    7 type  1   force =     0.00016450    0.00043491   -0.00153221
     atom    8 type  2   force =     0.00034352   -0.46847280  -13.77847051
     atom    9 type  2   force =     0.00117970   -1.59336414  -15.25732680
     atom   10 type  2   force =    -0.40579993    0.23375136  -13.77835734
     atom   11 type  2   force =    -1.38281426    0.79824097  -15.26026060
     atom   12 type  2   force =    -0.00045503    0.00036585  -13.16970039
     atom   13 type  2   force =    -0.00045782   -0.00007901  -14.96277741
     atom   14 type  2   force =     0.40596995    0.23335360  -13.77872092
     atom   15 type  2   force =     1.38092838    0.79583009  -15.25810139
     atom   16 type  2   force =    -1.38034435   -0.79696271   15.26301022
     atom   17 type  2   force =    -0.40577077   -0.23424402   13.77390523
     atom   18 type  2   force =     0.00011259   -0.00048412   14.96729266
     atom   19 type  2   force =     0.00033258   -0.00069598   13.16467848
     atom   20 type  2   force =     1.38120445   -0.79729463   15.26305263
     atom   21 type  2   force =     0.40576562   -0.23432793   13.77461425
     atom   22 type  2   force =     0.00019014    1.59278984   15.26268432
     atom   23 type  2   force =    -0.00013234    0.46818876   13.77441138
     atom   24 type  2   force =     0.00181500   -0.00060957    0.00200449
     The local contribution  to forces
     atom    1 type  1   force =     0.00008056   -0.00042823    0.00194501
     atom    2 type  1   force =     0.00037424   -0.00128288   -0.00132203
     atom    3 type  1   force =     0.00021599   -0.00031457    0.00213244
     atom    4 type  1   force =     0.00104414   -0.00027287   -0.00206842
     atom    5 type  1   force =     0.00005043   -0.00070020    0.00168087
     atom    6 type  1   force =     0.00039117   -0.00041114   -0.00202268
     atom    7 type  1   force =    -0.00015763   -0.00040779    0.00154804
     atom    8 type  2   force =    -0.00034402    0.46776393   13.54501778
     atom    9 type  2   force =    -0.00118135    1.63566345   15.03994763
     atom   10 type  2   force =     0.40518874   -0.23341670   13.54489984
     atom   11 type  2   force =     1.41935250   -0.81934483   15.04278312
     atom   12 type  2   force =     0.00045798   -0.00037021   12.95374753
     atom   13 type  2   force =     0.00047056    0.00006733   14.70349060
     atom   14 type  2   force =    -0.40535434   -0.23301967   13.54526387
     atom   15 type  2   force =    -1.41753598   -0.81697119   15.04069344
     atom   16 type  2   force =     1.41698610    0.81808654  -15.04559505
     atom   17 type  2   force =     0.40517078    0.23387122  -13.54045295
     atom   18 type  2   force =    -0.00010475    0.00047814  -14.70799880
     atom   19 type  2   force =    -0.00033472    0.00069866  -12.94874400
     atom   20 type  2   force =    -1.41778619    0.81839782  -15.04560051
     atom   21 type  2   force =    -0.40516148    0.23395894  -13.54115209
     atom   22 type  2   force =    -0.00017698   -1.63512012  -15.04528742
     atom   23 type  2   force =     0.00013466   -0.46748988  -13.54095843
     atom   24 type  2   force =    -0.00176453    0.00058956   -0.00196889
     The core correction contribution to forces
     atom    1 type  1   force =     0.00000004    0.00000017   -0.00000001
     atom    2 type  1   force =    -0.00000022   -0.00000042   -0.00000037
     atom    3 type  1   force =    -0.00000018    0.00000007    0.00000003
     atom    4 type  1   force =     0.00000039    0.00000059   -0.00000002
     atom    5 type  1   force =    -0.00000009    0.00000040    0.00000018
     atom    6 type  1   force =    -0.00000004    0.00000009    0.00000012
     atom    7 type  1   force =     0.00000013    0.00000000    0.00000017
     atom    8 type  2   force =    -0.00000059   -0.00003166   -0.00504483
     atom    9 type  2   force =    -0.00000070    0.00062213   -0.00503547
     atom   10 type  2   force =    -0.00002996    0.00001901   -0.00504536
     atom   11 type  2   force =     0.00052962   -0.00030352   -0.00503958
     atom   12 type  2   force =    -0.00000072    0.00000237   -0.00473989
     atom   13 type  2   force =    -0.00000057    0.00000230   -0.00551410
     atom   14 type  2   force =     0.00002873    0.00001893   -0.00504498
     atom   15 type  2   force =    -0.00053567   -0.00030608   -0.00503677
     atom   16 type  2   force =     0.00053427    0.00031116    0.00503880
     atom   17 type  2   force =    -0.00002991   -0.00001496    0.00504529
     atom   18 type  2   force =    -0.00000100    0.00000273    0.00551403
     atom   19 type  2   force =    -0.00000102    0.00000270    0.00473909
     atom   20 type  2   force =    -0.00053164    0.00030902    0.00504140
     atom   21 type  2   force =     0.00002856   -0.00001476    0.00504472
     atom   22 type  2   force =    -0.00000041   -0.00061751    0.00503773
     atom   23 type  2   force =    -0.00000052    0.00003618    0.00504511
     atom   24 type  2   force =     0.00000023    0.00000230   -0.00000193
     The Hubbard contrib.    to forces
     atom    1 type  1   force =     0.00000000    0.00000000    0.00000000
     atom    2 type  1   force =     0.00000000    0.00000000    0.00000000
     atom    3 type  1   force =     0.00000000    0.00000000    0.00000000
     atom    4 type  1   force =     0.00000000    0.00000000    0.00000000
     atom    5 type  1   force =     0.00000000    0.00000000    0.00000000
     atom    6 type  1   force =     0.00000000    0.00000000    0.00000000
     atom    7 type  1   force =     0.00000000    0.00000000    0.00000000
     atom    8 type  2   force =     0.00000000    0.00000000    0.00000000
     atom    9 type  2   force =     0.00000000    0.00000000    0.00000000
     atom   10 type  2   force =     0.00000000    0.00000000    0.00000000
     atom   11 type  2   force =     0.00000000    0.00000000    0.00000000
     atom   12 type  2   force =     0.00000000    0.00000000    0.00000000
     atom   13 type  2   force =     0.00000000    0.00000000    0.00000000
     atom   14 type  2   force =     0.00000000    0.00000000    0.00000000
     atom   15 type  2   force =     0.00000000    0.00000000    0.00000000
     atom   16 type  2   force =     0.00000000    0.00000000    0.00000000
     atom   17 type  2   force =     0.00000000    0.00000000    0.00000000
     atom   18 type  2   force =     0.00000000    0.00000000    0.00000000
     atom   19 type  2   force =     0.00000000    0.00000000    0.00000000
     atom   20 type  2   force =     0.00000000    0.00000000    0.00000000
     atom   21 type  2   force =     0.00000000    0.00000000    0.00000000
     atom   22 type  2   force =     0.00000000    0.00000000    0.00000000
     atom   23 type  2   force =     0.00000000    0.00000000    0.00000000
     atom   24 type  2   force =     0.00000000    0.00000000    0.00000000
     The SCF correction term to forces
     atom    1 type  1   force =    -0.00000148    0.00000176    0.00000231
     atom    2 type  1   force =     0.00000698   -0.00001207    0.00000203
     atom    3 type  1   force =     0.00000163   -0.00000231    0.00000102
     atom    4 type  1   force =     0.00000835    0.00000419   -0.00000270
     atom    5 type  1   force =     0.00000170    0.00000024    0.00000057
     atom    6 type  1   force =    -0.00000723   -0.00000164    0.00000710
     atom    7 type  1   force =    -0.00000134   -0.00000042   -0.00000040
     atom    8 type  2   force =    -0.00000197    0.00001385   -0.00001783
     atom    9 type  2   force =    -0.00000179    0.00002698    0.00001274
     atom   10 type  2   force =     0.00001405   -0.00000671   -0.00001961
     atom   11 type  2   force =     0.00002357   -0.00001267    0.00001687
     atom   12 type  2   force =     0.00000209   -0.00000243   -0.00001668
     atom   13 type  2   force =     0.00000159   -0.00000211    0.00002012
     atom   14 type  2   force =    -0.00001404   -0.00000447   -0.00001824
     atom   15 type  2   force =    -0.00002402   -0.00001129    0.00001472
     atom   16 type  2   force =     0.00002004    0.00001479   -0.00001558
     atom   17 type  2   force =     0.00001149    0.00001016    0.00001880
     atom   18 type  2   force =     0.00000201   -0.00000239   -0.00002093
     atom   19 type  2   force =     0.00000237   -0.00000261    0.00001723
     atom   20 type  2   force =    -0.00002064    0.00001326   -0.00001288
     atom   21 type  2   force =    -0.00001168    0.00000786    0.00001740
     atom   22 type  2   force =    -0.00000196   -0.00002485   -0.00001717
     atom   23 type  2   force =    -0.00000227   -0.00001597    0.00001965
     atom   24 type  2   force =    -0.00001153    0.00001505   -0.00000250

     Total force =     0.001034     Total SCF correction =     0.000105
     SCF correction compared to forces is large: reduce conv_thr to get better values


     Computing stress (Cartesian axis) and pressure



     -----------------------------------------------
     Non-local corr. energy    =      11.81062750 Ry
     -----------------------------------------------

          total   stress  (Ry/bohr**3)                   (kbar)     P=      -29.41
  -0.00019816   0.00000001  -0.00000002          -29.15        0.00       -0.00
   0.00000001  -0.00019813   0.00000002            0.00      -29.15        0.00
  -0.00000002   0.00000002  -0.00020346           -0.00        0.00      -29.93

     kinetic stress (kbar)  14684.61      0.01     -0.01
                                0.01  14684.62      0.01
                               -0.01      0.01  14696.30

     local   stress (kbar)  -7590.58      0.15     -0.15
                                0.15  -7590.26      0.16
                               -0.15      0.16   1407.39

     nonloc. stress (kbar)   -662.80      0.00     -0.01
                                0.00   -662.79      0.01
                               -0.01      0.01   -665.49

     hartree stress (kbar)  12288.55     -0.05      0.06
                               -0.05  12288.43     -0.06
                                0.06     -0.06   8217.33

     exc-cor stress (kbar)   7102.45     -0.00     -0.00
                               -0.00   7102.45      0.00
                               -0.00      0.00   7101.65

     corecor stress (kbar) -11516.27     -0.00      0.00
                               -0.00 -11516.27     -0.00
                                0.00     -0.00 -11516.30

     ewald   stress (kbar) -14420.63     -0.10      0.11
                               -0.10 -14420.86     -0.12
                                0.11     -0.12 -19357.54

     hubbard stress (kbar)      0.00      0.00      0.00
                                0.00      0.00      0.00
                                0.00      0.00      0.00

     DFT-D   stress (kbar)      0.00      0.00      0.00
                                0.00      0.00      0.00
                                0.00      0.00      0.00

     XDM     stress (kbar)      0.00      0.00      0.00
                                0.00      0.00      0.00
                                0.00      0.00      0.00

     dft-nl  stress (kbar)     85.53      0.00      0.00
                                0.00     85.53     -0.00
                                0.00     -0.00     86.74

     TS-vdW  stress (kbar)      0.00      0.00      0.00
                                0.00      0.00      0.00
                                0.00      0.00      0.00

     MDB     stress (kbar)      0.00      0.00      0.00
                                0.00      0.00      0.00
                                0.00      0.00      0.00

     3D-RISM stress (kbar)      0.00      0.00      0.00
                                0.00      0.00      0.00
                                0.00      0.00      0.00

     Energy error            =      2.0E-06 Ry
     Gradient error          =      3.6E-04 Ry/Bohr

     bfgs converged in   9 scf cycles and   8 bfgs steps
     (criteria: energy <  1.0E-04 Ry, force <  1.0E-03 Ry/Bohr)

     End of BFGS Geometry Optimization

     Final energy             =  -15856.6184763343 Ry

     File ./PbI2.bfgs deleted, as requested
Begin final coordinates

ATOMIC_POSITIONS (angstrom)
Pb            2.3557146930        4.0797787272        7.3777052831
Pb            0.0001329385        8.1598201239       14.7553261074
Pb            0.0000811712        8.1598363206        7.3776667779
Pb            7.0670186769        4.0797199949       14.7553694117
Pb            7.0669912087        4.0797634281        7.3777419703
Pb            4.7113902889        8.1597986803       14.7553787023
Pb            4.7113405575        8.1598312455        7.3777019951
I             2.3556890534        1.3632658627        5.5033464452
I             2.3556858970        1.3668582702       12.8361954124
I             0.0030939603        5.4380935296        5.5033230101
I             0.0065390718        5.4360768929       12.8363848176
I             7.0669907790        1.3597838986        5.4387391091
I             7.0670034568        1.3597659654       12.8915656787
I             4.7083228451        5.4381151098        5.5033520411
I             4.7051079899        5.4362239156       12.8362531072
I             0.0063887367        2.7233840397        1.9189301629
I             0.0031121436        2.7215397096        9.2520905997
I            -2.3555184083        6.7998478250        1.8636165497
I            -2.3555416093        6.7998877577        9.3167247701
I             4.7048805145        2.7234878790        1.9188377651
I             4.7083096121        2.7215240632        9.2520366884
I             2.3557107215        6.7926914805        1.9189645393
I             2.3556913711        6.7963835139        9.2520663172
I             2.3556601071        4.0797992089       14.7552150906
End final coordinates



     Writing all to output data dir ./PbI2.save/
 
     init_run     :      8.08s CPU      8.24s WALL (       1 calls)
     electrons    :   3844.36s CPU   3893.07s WALL (       9 calls)
     update_pot   :     16.23s CPU     16.41s WALL (       8 calls)
     forces       :     38.30s CPU     38.88s WALL (       9 calls)
     stress       :    413.07s CPU    415.90s WALL (       9 calls)

     Called by init_run:
     wfcinit      :      4.17s CPU      4.23s WALL (       1 calls)
     wfcinit:atom :      0.02s CPU      0.03s WALL (       4 calls)
     wfcinit:wfcr :      4.09s CPU      4.14s WALL (       4 calls)
     potinit      :      2.69s CPU      2.73s WALL (       1 calls)
     hinit0       :      0.45s CPU      0.46s WALL (       1 calls)

     Called by electrons:
     c_bands      :   3332.89s CPU   3367.39s WALL (     129 calls)
     sum_band     :    295.92s CPU    303.64s WALL (     129 calls)
     v_of_rho     :     81.82s CPU     83.60s WALL (     130 calls)
     v_h          :      0.90s CPU      0.91s WALL (     130 calls)
     v_xc         :     91.88s CPU     93.89s WALL (     148 calls)
     newd         :     71.40s CPU     74.96s WALL (     130 calls)
     PAW_pot      :     76.53s CPU     77.06s WALL (     138 calls)
     mix_rho      :      4.18s CPU      4.30s WALL (     129 calls)
     vdW_kernel   :      1.24s CPU      1.25s WALL (       1 calls)

     Called by c_bands:
     init_us_2    :      6.04s CPU      6.11s WALL (    1140 calls)
     init_us_2:cp :      6.02s CPU      6.10s WALL (    1140 calls)
     cegterg      :   3272.64s CPU   3306.01s WALL (     516 calls)

     Called by sum_band:
     sum_band:wei :      0.07s CPU      0.08s WALL (     129 calls)
     sum_band:loo :    213.58s CPU    215.39s WALL (     129 calls)
     sum_band:buf :      2.30s CPU      2.38s WALL (     516 calls)
     sum_band:ini :      2.75s CPU      2.77s WALL (     516 calls)
     sum_band:cal :     55.61s CPU     55.97s WALL (     548 calls)
     sum_band:bec :      0.43s CPU      0.44s WALL (     548 calls)
     addusdens    :     26.30s CPU     31.91s WALL (     129 calls)
     addusd:skk   :      0.45s CPU      0.51s WALL (     258 calls)
     addusd:dgemm :      8.88s CPU     14.22s WALL (     258 calls)
     addusd:qvan2 :     15.64s CPU     15.75s WALL (     258 calls)

     Called by *egterg:
     cdiaghg      :   1158.95s CPU   1165.30s WALL (    5349 calls)
     cegterg:over :    416.49s CPU    419.27s WALL (    4897 calls)
     cegterg:upda :    176.39s CPU    179.55s WALL (    4897 calls)
     cegterg:last :     72.64s CPU     73.14s WALL (     521 calls)
     h_psi        :   1123.08s CPU   1136.67s WALL (    5417 calls)
     s_psi        :    140.39s CPU    141.49s WALL (    5417 calls)
     g_psi        :      1.57s CPU      1.59s WALL (    4897 calls)

     Called by h_psi:
     h_psi:calbec :    187.34s CPU    188.61s WALL (    5417 calls)
     vloc_psi     :    788.76s CPU    796.55s WALL (    5417 calls)
     add_vuspsi   :    143.61s CPU    144.68s WALL (    5417 calls)

     General routines
     calbec       :    455.45s CPU    458.04s WALL (    6145 calls)
     fft          :    112.39s CPU    113.08s WALL (    9709 calls)
     ffts         :      1.04s CPU      1.06s WALL (     259 calls)
     fftw         :    874.10s CPU    882.32s WALL (  765080 calls)
     interpolate  :      1.38s CPU      1.40s WALL (     130 calls)
 
     Parallel routines

     PAW routines
     PAW_pot      :     76.53s CPU     77.06s WALL (     138 calls)
 
     PWSCF        :      1h12m CPU      1h13m WALL

 
   This run was terminated on:   3:20: 4  28Mar2024            

=------------------------------------------------------------------------------=
   JOB DONE.
=------------------------------------------------------------------------------=
