
     Program PWSCF v.7.1 starts on 21Feb2024 at  7:49:53 

     This program is part of the open-source Quantum ESPRESSO suite
     for quantum simulation of materials; please cite
         "P. Giannozzi et al., J. Phys.:Condens. Matter 21 395502 (2009);
         "P. Giannozzi et al., J. Phys.:Condens. Matter 29 465901 (2017);
         "P. Giannozzi et al., J. Chem. Phys. 152 154105 (2020);
          URL http://www.quantum-espresso.org", 
     in publications or presentations arising from this work. More details at
     http://www.quantum-espresso.org/quote

     Parallel version (MPI & OpenMP), running on     128 processor cores
     Number of MPI processes:               128
     Threads/MPI process:                     1

     MPI processes distributed on     1 nodes
     1949134 MiB available memory on the printing compute node when the environment starts
 
     Reading input from espresso.pwi
Warning: card &CELL ignored
Warning: card    CELL_DYNAMICS    = 'BFGS' ignored
Warning: card / ignored

     Current dimensions of program PWSCF are:
     Max number of different atomic species (ntypx) = 10
     Max number of k-points (npk) =  40000
     Max angular momentum in pseudopotentials (lmaxx) =  4
     file Pb.pbe-dn-kjpaw_psl.1.0.0.UPF: wavefunction(s)  6S 6P 5D renormalized
     file I.pbe-dn-kjpaw_psl.1.0.0.UPF: wavefunction(s)  5S 5P renormalized

     **************************************************************************
     Initializing libbeef V0.1.2 with the BEEF-vdW functional.
     Citation: Wellendorff et al., PRB 85, 235149 (2012).
     **************************************************************************


     IMPORTANT: XC functional enforced from input :
     Exchange-correlation= BEEF-VDW
                           (   1   4  43  14   2   0   0)
     Any further DFT definition will be discarded
     Please, verify this is what you really want

 
     R & G space division:  proc/nbgrp/npool/nimage =     128
     Subspace diagonalization in iterative solution of the eigenvalue problem:
     a serial algorithm will be used

 
     Parallelization info
     --------------------
     sticks:   dense  smooth     PW     G-vecs:    dense   smooth      PW
     Min          14      11      3                 5740     4091     577
     Max          15      12      4                 5853     4200     628
     Sum        1915    1531    421               745105   533245   76965
 
     Using Slab Decomposition
 


     bravais-lattice index     =            4
     lattice parameter (alat)  =       8.9075  a.u.
     unit-cell volume          =    6736.8322 (a.u.)^3
     number of atoms/cell      =           21
     number of atomic types    =            2
     number of electrons       =       336.00
     number of Kohn-Sham states=          202
     kinetic-energy cutoff     =      70.0000  Ry
     charge density cutoff     =     350.0000  Ry
     scf convergence threshold =      1.0E-07
     mixing beta               =       0.7000
     number of iterations used =            8  plain     mixing
     Exchange-correlation= BEEF-VDW
                           (   1   4  43  14   2   0   0)

     celldm(1)=   8.907457  celldm(2)=   0.000000  celldm(3)=  11.006870
     celldm(4)=   0.000000  celldm(5)=   0.000000  celldm(6)=   0.000000

     crystal axes: (cart. coord. in units of alat)
               a(1) = (   1.000000   0.000000   0.000000 )  
               a(2) = (  -0.500000   0.866025   0.000000 )  
               a(3) = (   0.000000   0.000000  11.006870 )  

     reciprocal axes: (cart. coord. in units 2 pi/alat)
               b(1) = (  1.000000  0.577350 -0.000000 )  
               b(2) = (  0.000000  1.154701  0.000000 )  
               b(3) = (  0.000000 -0.000000  0.090852 )  


     PseudoPot. # 1 for Pb read from file:
     /trace/group/acmegroup/atimmins/packages/espresso/pseudo/psl_1.0.0/pslibrary.1.0.0/pbe/PSEUDOPOTENTIALS/Pb.pbe-dn-kjpaw_psl.1.0.0.UPF
     MD5 check sum: 39ab5b8a6bbd56b7735ad9f188aac93a
     Pseudo is Projector augmented-wave + core cor, Zval = 14.0
     Generated using 'atomic' code by A. Dal Corso  v.7.1
     Shape of augmentation charge: PSQ
     Using radial grid of 1281 points,  6 beta functions with: 
                l(1) =   0
                l(2) =   0
                l(3) =   1
                l(4) =   1
                l(5) =   2
                l(6) =   2
     Q(r) pseudized with 0 coefficients 


     PseudoPot. # 2 for I  read from file:
     /trace/group/acmegroup/atimmins/packages/espresso/pseudo/psl_1.0.0/pslibrary.1.0.0/pbe/PSEUDOPOTENTIALS/I.pbe-dn-kjpaw_psl.1.0.0.UPF
     MD5 check sum: bfa8781bc1224d19af3f3980e3fab11e
     Pseudo is Projector augmented-wave + core cor, Zval = 17.0
     Generated using 'atomic' code by A. Dal Corso  v.7.1
     Shape of augmentation charge: PSQ
     Using radial grid of 1247 points,  6 beta functions with: 
                l(1) =   0
                l(2) =   0
                l(3) =   1
                l(4) =   1
                l(5) =   2
                l(6) =   2
     Q(r) pseudized with 0 coefficients 


     atomic species   valence    mass     pseudopotential
        Pb            14.00   207.20000     Pb( 1.00)
        I             17.00   126.90447     I ( 1.00)

      6 Sym. Ops. (no inversion) found


                                    s                        frac. trans.

      isym =  1     identity                                     

 cryst.   s( 1) = (     1          0          0      )
                  (     0          1          0      )
                  (     0          0          1      )

 cart.    s( 1) = (  1.0000000  0.0000000  0.0000000 )
                  (  0.0000000  1.0000000  0.0000000 )
                  (  0.0000000  0.0000000  1.0000000 )


      isym =  2     120 deg rotation - cryst. axis [0,0,1]       

 cryst.   s( 2) = (     0          1          0      )
                  (    -1         -1          0      )
                  (     0          0          1      )

 cart.    s( 2) = ( -0.5000000 -0.8660254  0.0000000 )
                  (  0.8660254 -0.5000000  0.0000000 )
                  (  0.0000000  0.0000000  1.0000000 )


      isym =  3     120 deg rotation - cryst. axis [0,0,-1]      

 cryst.   s( 3) = (    -1         -1          0      )
                  (     1          0          0      )
                  (     0          0          1      )

 cart.    s( 3) = ( -0.5000000  0.8660254  0.0000000 )
                  ( -0.8660254 -0.5000000  0.0000000 )
                  (  0.0000000  0.0000000  1.0000000 )


      isym =  4     inv. 180 deg rotation - cart. axis [1,0,0]   

 cryst.   s( 4) = (    -1          0          0      )
                  (     1          1          0      )
                  (     0          0          1      )

 cart.    s( 4) = ( -1.0000000  0.0000000  0.0000000 )
                  (  0.0000000  1.0000000  0.0000000 )
                  (  0.0000000  0.0000000  1.0000000 )


      isym =  5     inv. 180 deg rotation - cryst. axis [0,1,0]  

 cryst.   s( 5) = (     1          1          0      )
                  (     0         -1          0      )
                  (     0          0          1      )

 cart.    s( 5) = (  0.5000000  0.8660254  0.0000000 )
                  (  0.8660254 -0.5000000  0.0000000 )
                  (  0.0000000  0.0000000  1.0000000 )


      isym =  6     inv. 180 deg rotation - cryst. axis [1,1,0]  

 cryst.   s( 6) = (     0         -1          0      )
                  (    -1          0          0      )
                  (     0          0          1      )

 cart.    s( 6) = (  0.5000000 -0.8660254  0.0000000 )
                  ( -0.8660254 -0.5000000  0.0000000 )
                  (  0.0000000  0.0000000  1.0000000 )


     point group C_3v (3m)  
     there are  3 classes
     the character table:

       E     2C3   3s_v 
A_1    1.00  1.00  1.00
A_2    1.00  1.00 -1.00
E      2.00 -1.00  0.00

     the symmetry operations in each class and the name of the first element:

     E        1
          identity                                               
     2C3      2    3
          120 deg rotation - cryst. axis [0,0,1]                 
     3s_v     4    5    6
          inv. 180 deg rotation - cart. axis [1,0,0]             

   Cartesian axes

     site n.     atom                  positions (alat units)
         1           Pb  tau(   1) = (  -0.0000005   0.5773506   1.9891441  )
         2           Pb  tau(   2) = (  -0.0000005   0.5773506   5.1375496  )
         3           Pb  tau(   3) = (   0.0000000   0.0000000   9.8476795  )
         4           Pb  tau(   4) = (  -0.0000005   0.5773506   8.2727135  )
         5           Pb  tau(   5) = (  -0.0000005   0.5773506   6.7035270  )
         6           Pb  tau(   6) = (  -0.0000005   0.5773506   3.5659889  )
         7           Pb  tau(   7) = (  -0.0000005   0.5773506   0.4199623  )
         8           I   tau(   8) = (   0.5000005   0.2886749  10.2465175  )
         9           I   tau(   9) = (   0.0000000   0.0000000   4.7380411  )
        10           I   tau(  10) = (   0.5000005   0.2886749   0.8208850  )
        11           I   tau(  11) = (   0.5000005   0.2886749   8.6735618  )
        12           I   tau(  12) = (   0.0000000   0.0000000   1.5882937  )
        13           I   tau(  13) = (   0.5000005   0.2886749   3.9659526  )
        14           I   tau(  14) = (  -0.0000005   0.5773506   9.4473058  )
        15           I   tau(  15) = (   0.0000000   0.0000000   0.0188360  )
        16           I   tau(  16) = (   0.5000005   0.2886749   7.1038436  )
        17           I   tau(  17) = (   0.0000000   0.0000000   6.3048629  )
        18           I   tau(  18) = (   0.0000000   0.0000000   3.1676260  )
        19           I   tau(  19) = (   0.5000005   0.2886749   2.3892931  )
        20           I   tau(  20) = (   0.5000005   0.2886749   5.5380259  )
        21           I   tau(  21) = (   0.0000000   0.0000000   7.8727187  )

   Crystallographic axes

     site n.     atom                  positions (cryst. coord.)
         1           Pb  tau(   1) = (  0.3333330  0.6666670  0.1807184  )
         2           Pb  tau(   2) = (  0.3333330  0.6666670  0.4667584  )
         3           Pb  tau(   3) = (  0.0000000  0.0000000  0.8946848  )
         4           Pb  tau(   4) = (  0.3333330  0.6666670  0.7515954  )
         5           Pb  tau(   5) = (  0.3333330  0.6666670  0.6090311  )
         6           Pb  tau(   6) = (  0.3333330  0.6666670  0.3239785  )
         7           Pb  tau(   7) = (  0.3333330  0.6666670  0.0381546  )
         8           I   tau(   8) = (  0.6666670  0.3333330  0.9309201  )
         9           I   tau(   9) = (  0.0000000  0.0000000  0.4304621  )
        10           I   tau(  10) = (  0.6666670  0.3333330  0.0745793  )
        11           I   tau(  11) = (  0.6666670  0.3333330  0.7880134  )
        12           I   tau(  12) = (  0.0000000  0.0000000  0.1443002  )
        13           I   tau(  13) = (  0.6666670  0.3333330  0.3603161  )
        14           I   tau(  14) = (  0.3333330  0.6666670  0.8583099  )
        15           I   tau(  15) = (  0.0000000  0.0000000  0.0017113  )
        16           I   tau(  16) = (  0.6666670  0.3333330  0.6454009  )
        17           I   tau(  17) = (  0.0000000  0.0000000  0.5728116  )
        18           I   tau(  18) = (  0.0000000  0.0000000  0.2877863  )
        19           I   tau(  19) = (  0.6666670  0.3333330  0.2170729  )
        20           I   tau(  20) = (  0.6666670  0.3333330  0.5031426  )
        21           I   tau(  21) = (  0.0000000  0.0000000  0.7152550  )

     number of k points=     4  Gaussian smearing, width (Ry)=  0.0100
                       cart. coord. in units 2pi/alat
        k(    1) = (   0.0000000   0.0000000   0.0000000), wk =   0.1250000
        k(    2) = (   0.0000000   0.2886751   0.0000000), wk =   0.7500000
        k(    3) = (   0.0000000  -0.5773503   0.0000000), wk =   0.3750000
        k(    4) = (   0.2500000   0.4330127   0.0000000), wk =   0.7500000

                       cryst. coord.
        k(    1) = (   0.0000000   0.0000000   0.0000000), wk =   0.1250000
        k(    2) = (   0.0000000   0.2500000   0.0000000), wk =   0.7500000
        k(    3) = (   0.0000000  -0.5000000   0.0000000), wk =   0.3750000
        k(    4) = (   0.2500000   0.2500000   0.0000000), wk =   0.7500000

     Dense  grid:   745105 G-vectors     FFT dimensions: (  54,  54, 600)

     Smooth grid:   533245 G-vectors     FFT dimensions: (  48,  48, 540)

     Dynamical RAM for                 wfc:       1.60 MB

     Dynamical RAM for     wfc (w. buffer):       8.01 MB

     Dynamical RAM for           str. fact:       0.18 MB

     Dynamical RAM for           local pot:       0.00 MB

     Dynamical RAM for          nlocal pot:       3.00 MB

     Dynamical RAM for                qrad:       3.00 MB

     Dynamical RAM for          rho,v,vnew:       0.60 MB

     Dynamical RAM for               rhoin:       0.20 MB

     Dynamical RAM for            rho*nmix:       1.42 MB

     Dynamical RAM for           G-vectors:       0.37 MB

     Dynamical RAM for          h,s,v(r/c):      29.89 MB

     Dynamical RAM for          <psi|beta>:       1.17 MB

     Dynamical RAM for                 psi:       6.41 MB

     Dynamical RAM for                hpsi:       6.41 MB

     Dynamical RAM for                spsi:       6.41 MB

     Dynamical RAM for      wfcinit/wfcrot:       4.14 MB

     Dynamical RAM for           addusdens:      17.79 MB

     Dynamical RAM for          addusforce:      20.20 MB

     Dynamical RAM for         addusstress:      17.88 MB

     Estimated static dynamical RAM per process >      16.18 MB

     Estimated max dynamical RAM per process >      67.89 MB

     Estimated total dynamical RAM >       8.49 GB

     Atomic positions and unit cell read from directory:
     ./PbI2.save/
     Atomic positions from file used, from input discarded
 

     Check: negative core charge=   -0.000001

     The initial density is read from file :
     ./PbI2.save/charge-density



     %%%%%%%%%%%%%%%%%%%%%%%%%%%%%%%%%%%%%%%%%%%%%%%%%%%%%%%%%%%%%%%%%%%%%%%%
     %                                                                      %
     % You are using vdW-DF, which was implemented by the Thonhauser group. %
     % Please cite the following two papers that made this development      %
     % possible and the two reviews that describe the various versions:     %
     %                                                                      %
     %   T. Thonhauser et al., PRL 115, 136402 (2015).                      %
     %   T. Thonhauser et al., PRB 76, 125112 (2007).                       %
     %   K. Berland et al., Rep. Prog. Phys. 78, 066501 (2015).             %
     %   D.C. Langreth et al., J. Phys.: Condens. Matter 21, 084203 (2009). %
     %                                                                      %
     % If you are calculating stress with vdW-DF, please also cite:         %
     %                                                                      %
     %   R. Sabatini et al., J. Phys.: Condens. Matter 24, 424209 (2012).   %
     %                                                                      %
     %%%%%%%%%%%%%%%%%%%%%%%%%%%%%%%%%%%%%%%%%%%%%%%%%%%%%%%%%%%%%%%%%%%%%%%%

     %%%%%%%%%%%%%%%%%%%%%%%%%%%%%%%%%%%%%%%%%%%%%%%%%%%%%%%%%%%%%%%%%%%%%%%%
     %                                                                      %
     %  vdW-DF NEWS:                                                        %
     %                                                                      %
     %  * vdW-DF3 is now available. DOI: 10.1021/acs.jctc.0c00471           %
     %    use with input_dft = 'vdW-DF3-opt1' or 'vdW-DF3-opt2'             %
     %                                                                      %
     %  * Unscreened and range-separated vdW-DF hybrid functionals          %
     %    DOI: 10.1063/1.4986522 and 10.1088/1361-648X/ac2ad2               %
     %    use with input_dft = 'vdW-DF-cx0' (etc) and 'vdW-DF-ahcx'         %
     %                                                                      %
     %%%%%%%%%%%%%%%%%%%%%%%%%%%%%%%%%%%%%%%%%%%%%%%%%%%%%%%%%%%%%%%%%%%%%%%%


     Carrying out vdW-DF run using the following parameters:
     Nqs    =  20  Npoints =  1024  r_max =  100.000
     q_mesh =  0.00001000  0.04494208  0.09755937  0.15916263
               0.23128650  0.31572767  0.41458969  0.53033537
               0.66584808  0.82450364  1.01025438  1.22772762
               1.48234092  1.78043706  2.12944203  2.53805004
               3.01644009  3.57652955  4.23227104  5.00000000


     -----------------------------------------------
     Non-local corr. energy    =      10.07165202 Ry
     -----------------------------------------------

     Starting wfcs from file
     Checking if some PAW data can be deallocated... 
       PAW data deallocated on   84 nodes for type:  1
       PAW data deallocated on   44 nodes for type:  2

     total cpu time spent up to now is        7.7 secs

     Self-consistent Calculation

     iteration #  1     ecut=    70.00 Ry     beta= 0.70
     Davidson diagonalization with overlap

---- Real-time Memory Report at c_bands before calling an iterative solver
           245 MiB given to the printing process from OS
             0 MiB allocation reported by mallinfo(arena+hblkhd)
       1941808 MiB available memory on the node where the printing process lives
------------------
     ethr =  1.00E-05,  avg # of iterations =  2.0

     Threshold (ethr) on eigenvalues was too large:
     Diagonalizing with lowered threshold

     Davidson diagonalization with overlap

---- Real-time Memory Report at c_bands before calling an iterative solver
           304 MiB given to the printing process from OS
             0 MiB allocation reported by mallinfo(arena+hblkhd)
       1940246 MiB available memory on the node where the printing process lives
------------------
     ethr =  1.69E-12,  avg # of iterations = 15.5


     -----------------------------------------------
     Non-local corr. energy    =      10.07165131 Ry
     -----------------------------------------------


     total cpu time spent up to now is       27.9 secs

     End of self-consistent calculation

          k = 0.0000 0.0000 0.0000 ( 66579 PWs)   bands (ev):

   -40.8304 -40.8304 -40.8303 -40.8303 -40.8301 -40.8298 -40.8298 -40.8298
   -40.8296 -40.8296 -40.8294 -40.8294 -40.8293 -40.8293 -40.8290 -40.8288
   -40.8287 -40.8287 -40.8286 -40.8286 -40.8273 -40.8273 -40.8269 -40.8269
   -40.8265 -40.8265 -40.8265 -40.8263 -40.8263 -40.8262 -40.8261 -40.8261
   -40.8257 -40.8257 -40.8254 -40.8254 -40.8253 -40.8251 -40.8251 -40.8249
   -40.8249 -40.8249 -40.8242 -40.8242 -40.8239 -40.8223 -40.8223 -40.8222
   -40.8217 -40.8217 -40.8206 -40.8206 -40.8205 -40.8205 -40.8200 -40.8200
   -40.8198 -40.8198 -40.8198 -40.8197 -40.8197 -40.8195 -40.8191 -40.8191
   -40.8191 -40.8155 -40.8155 -40.8150 -40.8147 -40.8147 -12.9865 -12.9865
   -12.9865 -12.9865 -12.9839 -12.9837 -12.9794 -12.9794 -12.9781 -12.9781
   -12.9776 -12.9776 -12.9775 -12.9775 -12.9768 -12.9755 -12.9754 -12.9754
   -12.9742 -12.9742 -12.9740 -12.9740 -12.9731 -12.9717 -12.9716 -12.9704
   -12.9704 -12.9692 -12.9692 -12.9665 -12.9665 -12.9653 -12.9653 -12.9652
   -12.9652  -8.1557  -8.1430  -8.1403  -8.1101  -8.1073  -8.0785  -8.0737
    -7.7375  -7.7334  -7.6950  -7.6940  -7.6513  -7.6510  -7.6321  -3.2426
    -3.2287  -3.2242  -3.1969  -3.1943  -3.1731  -3.1662   2.1703   2.1759
     2.2815   2.2862   2.4666   2.4701   2.6040   2.6387   2.6387   2.6414
     2.6414   2.6590   2.6590   2.6602   2.6602   2.6908   2.6908   2.6917
     2.6917   2.7126   2.7126   2.8336   2.8336   2.8571   2.8571   2.8586
     2.8586   2.8964   2.8964   2.8987   2.8987   2.9209   2.9209   2.9266
     2.9266   2.9412   3.0750   3.0819   3.2640   3.2707   3.3772   3.3884
     5.8779   5.8879   5.9471   5.9492   6.0285   6.0315   6.0681   6.7450
     6.7450   6.7559   6.7559   6.7793   6.7793   6.7862   6.7862   6.8112
     6.8112   6.8202   6.8202   6.8365   6.8365   9.7569   9.8708   9.8947
    10.1598  10.1738  10.3611  10.3642  10.9997  11.0243  11.1154  11.1356
    11.1628  11.1710

     occupation numbers 
     1.0000   1.0000   1.0000   1.0000   1.0000   1.0000   1.0000   1.0000
     1.0000   1.0000   1.0000   1.0000   1.0000   1.0000   1.0000   1.0000
     1.0000   1.0000   1.0000   1.0000   1.0000   1.0000   1.0000   1.0000
     1.0000   1.0000   1.0000   1.0000   1.0000   1.0000   1.0000   1.0000
     1.0000   1.0000   1.0000   1.0000   1.0000   1.0000   1.0000   1.0000
     1.0000   1.0000   1.0000   1.0000   1.0000   1.0000   1.0000   1.0000
     1.0000   1.0000   1.0000   1.0000   1.0000   1.0000   1.0000   1.0000
     1.0000   1.0000   1.0000   1.0000   1.0000   1.0000   1.0000   1.0000
     1.0000   1.0000   1.0000   1.0000   1.0000   1.0000   1.0000   1.0000
     1.0000   1.0000   1.0000   1.0000   1.0000   1.0000   1.0000   1.0000
     1.0000   1.0000   1.0000   1.0000   1.0000   1.0000   1.0000   1.0000
     1.0000   1.0000   1.0000   1.0000   1.0000   1.0000   1.0000   1.0000
     1.0000   1.0000   1.0000   1.0000   1.0000   1.0000   1.0000   1.0000
     1.0000   1.0000   1.0000   1.0000   1.0000   1.0000   1.0000   1.0000
     1.0000   1.0000   1.0000   1.0000   1.0000   1.0000   1.0000   1.0000
     1.0000   1.0000   1.0000   1.0000   1.0000   1.0000   1.0000   1.0000
     1.0000   1.0000   1.0000   1.0000   1.0000   1.0000   1.0000   1.0000
     1.0000   1.0000   1.0000   1.0000   1.0000   1.0000   1.0000   1.0000
     1.0000   1.0000   1.0000   1.0000   1.0000   1.0000   1.0000   1.0000
     1.0000   1.0000   1.0000   1.0000   1.0000   1.0000   1.0000   1.0000
     1.0000   1.0000   1.0000   1.0000   1.0000   1.0000   1.0000   1.0000
     0.0000   0.0000   0.0000   0.0000   0.0000   0.0000   0.0000   0.0000
     0.0000   0.0000   0.0000   0.0000   0.0000   0.0000   0.0000   0.0000
     0.0000   0.0000   0.0000   0.0000   0.0000   0.0000   0.0000   0.0000
     0.0000   0.0000   0.0000   0.0000   0.0000   0.0000   0.0000   0.0000
     0.0000   0.0000

          k = 0.0000 0.2887 0.0000 ( 66557 PWs)   bands (ev):

   -40.8304 -40.8304 -40.8303 -40.8302 -40.8300 -40.8298 -40.8298 -40.8297
   -40.8296 -40.8296 -40.8294 -40.8293 -40.8293 -40.8293 -40.8290 -40.8288
   -40.8287 -40.8286 -40.8286 -40.8286 -40.8273 -40.8273 -40.8269 -40.8269
   -40.8265 -40.8265 -40.8265 -40.8263 -40.8262 -40.8262 -40.8261 -40.8260
   -40.8257 -40.8257 -40.8254 -40.8254 -40.8253 -40.8251 -40.8251 -40.8249
   -40.8249 -40.8248 -40.8242 -40.8242 -40.8239 -40.8223 -40.8223 -40.8221
   -40.8217 -40.8217 -40.8206 -40.8206 -40.8205 -40.8205 -40.8200 -40.8200
   -40.8198 -40.8198 -40.8198 -40.8197 -40.8197 -40.8195 -40.8191 -40.8191
   -40.8190 -40.8155 -40.8154 -40.8150 -40.8147 -40.8147 -12.9965 -12.9964
   -12.9896 -12.9883 -12.9856 -12.9844 -12.9842 -12.9834 -12.9834 -12.9816
   -12.9815 -12.9780 -12.9780 -12.9764 -12.9752 -12.9752 -12.9751 -12.9745
   -12.9732 -12.9726 -12.9713 -12.9711 -12.9708 -12.9707 -12.9696 -12.9694
   -12.9693 -12.9678 -12.9669 -12.9666 -12.9657 -12.9656 -12.9639 -12.9627
   -12.9626  -7.9553  -7.9449  -7.9419  -7.9174  -7.9148  -7.8914  -7.8864
    -7.6403  -7.6361  -7.6076  -7.6056  -7.5749  -7.5734  -7.5594  -3.4343
    -3.4281  -3.4229  -3.4205  -3.4145  -3.4122  -3.4065   1.4002   1.4368
     1.4537   1.5459   1.5586   1.6568   1.6885   1.9937   2.0042   2.0264
     2.0629   2.0905   2.1708   2.1763   2.1909   2.2021   2.2092   2.2485
     2.2555   2.2767   2.2821   2.3873   2.5667   2.5998   2.8060   2.8082
     2.8272   2.8382   2.8452   2.9053   2.9120   2.9506   2.9544   2.9610
     2.9717   3.1048   3.1264   3.2054   3.2205   3.3103   3.3250   3.3658
     6.3421   6.3890   6.4465   6.5501   6.6064   6.6859   6.7082   7.0940
     7.1114   7.1306   7.1659   7.1676   7.1861   7.2019   7.2147   7.2285
     7.2516   7.2900   7.3391   7.3832   7.4363   9.7095   9.7697   9.8175
     9.9668   9.9713  10.0859  10.1734  10.4678  10.5617  10.7021  10.7234
    10.8279  10.9022

     occupation numbers 
     1.0000   1.0000   1.0000   1.0000   1.0000   1.0000   1.0000   1.0000
     1.0000   1.0000   1.0000   1.0000   1.0000   1.0000   1.0000   1.0000
     1.0000   1.0000   1.0000   1.0000   1.0000   1.0000   1.0000   1.0000
     1.0000   1.0000   1.0000   1.0000   1.0000   1.0000   1.0000   1.0000
     1.0000   1.0000   1.0000   1.0000   1.0000   1.0000   1.0000   1.0000
     1.0000   1.0000   1.0000   1.0000   1.0000   1.0000   1.0000   1.0000
     1.0000   1.0000   1.0000   1.0000   1.0000   1.0000   1.0000   1.0000
     1.0000   1.0000   1.0000   1.0000   1.0000   1.0000   1.0000   1.0000
     1.0000   1.0000   1.0000   1.0000   1.0000   1.0000   1.0000   1.0000
     1.0000   1.0000   1.0000   1.0000   1.0000   1.0000   1.0000   1.0000
     1.0000   1.0000   1.0000   1.0000   1.0000   1.0000   1.0000   1.0000
     1.0000   1.0000   1.0000   1.0000   1.0000   1.0000   1.0000   1.0000
     1.0000   1.0000   1.0000   1.0000   1.0000   1.0000   1.0000   1.0000
     1.0000   1.0000   1.0000   1.0000   1.0000   1.0000   1.0000   1.0000
     1.0000   1.0000   1.0000   1.0000   1.0000   1.0000   1.0000   1.0000
     1.0000   1.0000   1.0000   1.0000   1.0000   1.0000   1.0000   1.0000
     1.0000   1.0000   1.0000   1.0000   1.0000   1.0000   1.0000   1.0000
     1.0000   1.0000   1.0000   1.0000   1.0000   1.0000   1.0000   1.0000
     1.0000   1.0000   1.0000   1.0000   1.0000   1.0000   1.0000   1.0000
     1.0000   1.0000   1.0000   1.0000   1.0000   1.0000   1.0000   1.0000
     1.0000   1.0000   1.0000   1.0000   1.0000   1.0000   1.0000   1.0000
     0.0000   0.0000   0.0000   0.0000   0.0000   0.0000   0.0000   0.0000
     0.0000   0.0000   0.0000   0.0000   0.0000   0.0000   0.0000   0.0000
     0.0000   0.0000   0.0000   0.0000   0.0000   0.0000   0.0000   0.0000
     0.0000   0.0000   0.0000   0.0000   0.0000   0.0000   0.0000   0.0000
     0.0000   0.0000

          k = 0.0000-0.5774 0.0000 ( 66640 PWs)   bands (ev):

   -40.8304 -40.8304 -40.8303 -40.8302 -40.8300 -40.8298 -40.8297 -40.8297
   -40.8296 -40.8295 -40.8294 -40.8293 -40.8293 -40.8293 -40.8289 -40.8288
   -40.8287 -40.8286 -40.8286 -40.8286 -40.8273 -40.8272 -40.8269 -40.8268
   -40.8265 -40.8264 -40.8264 -40.8263 -40.8262 -40.8262 -40.8261 -40.8260
   -40.8257 -40.8257 -40.8254 -40.8254 -40.8253 -40.8251 -40.8250 -40.8249
   -40.8248 -40.8248 -40.8242 -40.8242 -40.8239 -40.8223 -40.8223 -40.8221
   -40.8217 -40.8217 -40.8206 -40.8206 -40.8205 -40.8204 -40.8200 -40.8199
   -40.8198 -40.8198 -40.8198 -40.8197 -40.8197 -40.8195 -40.8191 -40.8191
   -40.8190 -40.8155 -40.8154 -40.8150 -40.8147 -40.8146 -13.0073 -13.0071
   -13.0005 -12.9991 -12.9965 -12.9953 -12.9950 -12.9832 -12.9831 -12.9829
   -12.9829 -12.9763 -12.9757 -12.9750 -12.9744 -12.9742 -12.9741 -12.9724
   -12.9718 -12.9711 -12.9710 -12.9706 -12.9705 -12.9698 -12.9698 -12.9671
   -12.9658 -12.9632 -12.9624 -12.9619 -12.9619 -12.9612 -12.9585 -12.9573
   -12.9572  -7.6738  -7.6686  -7.6653  -7.6547  -7.6535  -7.6426  -7.6377
    -7.5734  -7.5699  -7.5583  -7.5578  -7.5468  -7.5454  -7.5376  -3.6986
    -3.6949  -3.6922  -3.6901  -3.6877  -3.6868  -3.6824   0.8231   0.8495
     0.8987   0.9154   0.9746   1.0106   1.0543   1.7066   1.7521   1.7957
     1.8583   1.8770   1.8793   1.8853   1.9084   1.9233   1.9271   1.9674
     1.9721   1.9940   2.0747   2.4523   2.4885   2.5316   2.6228   2.6558
     2.6802   2.7149   2.7178   2.7193   2.7865   2.7885   2.8639   2.8674
     2.8682   2.8957   2.9027   2.9165   2.9418   3.0212   3.0787   3.1236
     6.5360   6.5828   6.5972   6.7040   6.7090   6.7877   6.8071   7.2618
     7.3031   7.3113   7.3939   7.4081   7.4100   7.4543   7.4879   7.4980
     7.5850   7.6433   7.7412   7.8552   7.9539   9.1612   9.2370   9.3168
     9.4605   9.4778   9.6214   9.6738  11.1414  11.1721  11.2609  11.2933
    11.3973  11.4202

     occupation numbers 
     1.0000   1.0000   1.0000   1.0000   1.0000   1.0000   1.0000   1.0000
     1.0000   1.0000   1.0000   1.0000   1.0000   1.0000   1.0000   1.0000
     1.0000   1.0000   1.0000   1.0000   1.0000   1.0000   1.0000   1.0000
     1.0000   1.0000   1.0000   1.0000   1.0000   1.0000   1.0000   1.0000
     1.0000   1.0000   1.0000   1.0000   1.0000   1.0000   1.0000   1.0000
     1.0000   1.0000   1.0000   1.0000   1.0000   1.0000   1.0000   1.0000
     1.0000   1.0000   1.0000   1.0000   1.0000   1.0000   1.0000   1.0000
     1.0000   1.0000   1.0000   1.0000   1.0000   1.0000   1.0000   1.0000
     1.0000   1.0000   1.0000   1.0000   1.0000   1.0000   1.0000   1.0000
     1.0000   1.0000   1.0000   1.0000   1.0000   1.0000   1.0000   1.0000
     1.0000   1.0000   1.0000   1.0000   1.0000   1.0000   1.0000   1.0000
     1.0000   1.0000   1.0000   1.0000   1.0000   1.0000   1.0000   1.0000
     1.0000   1.0000   1.0000   1.0000   1.0000   1.0000   1.0000   1.0000
     1.0000   1.0000   1.0000   1.0000   1.0000   1.0000   1.0000   1.0000
     1.0000   1.0000   1.0000   1.0000   1.0000   1.0000   1.0000   1.0000
     1.0000   1.0000   1.0000   1.0000   1.0000   1.0000   1.0000   1.0000
     1.0000   1.0000   1.0000   1.0000   1.0000   1.0000   1.0000   1.0000
     1.0000   1.0000   1.0000   1.0000   1.0000   1.0000   1.0000   1.0000
     1.0000   1.0000   1.0000   1.0000   1.0000   1.0000   1.0000   1.0000
     1.0000   1.0000   1.0000   1.0000   1.0000   1.0000   1.0000   1.0000
     1.0000   1.0000   1.0000   1.0000   1.0000   1.0000   1.0000   1.0000
     0.0000   0.0000   0.0000   0.0000   0.0000   0.0000   0.0000   0.0000
     0.0000   0.0000   0.0000   0.0000   0.0000   0.0000   0.0000   0.0000
     0.0000   0.0000   0.0000   0.0000   0.0000   0.0000   0.0000   0.0000
     0.0000   0.0000   0.0000   0.0000   0.0000   0.0000   0.0000   0.0000
     0.0000   0.0000

          k = 0.2500 0.4330 0.0000 ( 66722 PWs)   bands (ev):

   -40.8304 -40.8304 -40.8303 -40.8302 -40.8300 -40.8298 -40.8298 -40.8297
   -40.8296 -40.8295 -40.8294 -40.8293 -40.8293 -40.8293 -40.8289 -40.8288
   -40.8286 -40.8286 -40.8286 -40.8286 -40.8273 -40.8273 -40.8269 -40.8269
   -40.8265 -40.8265 -40.8264 -40.8263 -40.8262 -40.8262 -40.8261 -40.8260
   -40.8257 -40.8257 -40.8254 -40.8254 -40.8253 -40.8251 -40.8251 -40.8249
   -40.8248 -40.8248 -40.8242 -40.8242 -40.8239 -40.8223 -40.8223 -40.8221
   -40.8217 -40.8217 -40.8206 -40.8206 -40.8205 -40.8205 -40.8200 -40.8199
   -40.8198 -40.8198 -40.8198 -40.8197 -40.8197 -40.8195 -40.8191 -40.8191
   -40.8190 -40.8155 -40.8155 -40.8150 -40.8147 -40.8146 -13.0005 -13.0004
   -12.9937 -12.9923 -12.9897 -12.9888 -12.9887 -12.9885 -12.9882 -12.9819
   -12.9805 -12.9783 -12.9783 -12.9780 -12.9780 -12.9779 -12.9767 -12.9765
   -12.9720 -12.9720 -12.9710 -12.9709 -12.9698 -12.9696 -12.9671 -12.9671
   -12.9659 -12.9658 -12.9657 -12.9657 -12.9647 -12.9635 -12.9608 -12.9596
   -12.9595  -7.6923  -7.6867  -7.6836  -7.6719  -7.6706  -7.6593  -7.6543
    -7.5576  -7.5538  -7.5414  -7.5409  -7.5282  -7.5270  -7.5190  -3.6842
    -3.6831  -3.6816  -3.6793  -3.6768  -3.6762  -3.6719   1.1424   1.1451
     1.1679   1.1688   1.2417   1.2460   1.3252   1.3437   1.3655   1.4056
     1.4272   1.4386   1.4611   1.4730   1.7708   1.7935   1.8299   1.8546
     1.9067   1.9227   1.9683   2.2830   2.3178   2.3296   2.4669   2.4768
     2.6616   2.6973   2.7113   2.7678   2.7999   2.8173   2.8758   2.8813
     2.8869   3.1537   3.1902   3.2099   3.2776   3.2802   3.3325   3.3467
     6.9329   6.9509   7.0035   7.0094   7.1449   7.1800   7.2348   7.2539
     7.2931   7.3004   7.3288   7.3572   7.3784   7.3868   7.5604   7.5857
     7.6449   7.6562   7.6624   7.7008   7.7030  10.0123  10.0580  10.1261
    10.2192  10.2785  10.3134  10.3682  10.3744  10.4144  10.4846  10.5753
    10.6281  10.8429

     occupation numbers 
     1.0000   1.0000   1.0000   1.0000   1.0000   1.0000   1.0000   1.0000
     1.0000   1.0000   1.0000   1.0000   1.0000   1.0000   1.0000   1.0000
     1.0000   1.0000   1.0000   1.0000   1.0000   1.0000   1.0000   1.0000
     1.0000   1.0000   1.0000   1.0000   1.0000   1.0000   1.0000   1.0000
     1.0000   1.0000   1.0000   1.0000   1.0000   1.0000   1.0000   1.0000
     1.0000   1.0000   1.0000   1.0000   1.0000   1.0000   1.0000   1.0000
     1.0000   1.0000   1.0000   1.0000   1.0000   1.0000   1.0000   1.0000
     1.0000   1.0000   1.0000   1.0000   1.0000   1.0000   1.0000   1.0000
     1.0000   1.0000   1.0000   1.0000   1.0000   1.0000   1.0000   1.0000
     1.0000   1.0000   1.0000   1.0000   1.0000   1.0000   1.0000   1.0000
     1.0000   1.0000   1.0000   1.0000   1.0000   1.0000   1.0000   1.0000
     1.0000   1.0000   1.0000   1.0000   1.0000   1.0000   1.0000   1.0000
     1.0000   1.0000   1.0000   1.0000   1.0000   1.0000   1.0000   1.0000
     1.0000   1.0000   1.0000   1.0000   1.0000   1.0000   1.0000   1.0000
     1.0000   1.0000   1.0000   1.0000   1.0000   1.0000   1.0000   1.0000
     1.0000   1.0000   1.0000   1.0000   1.0000   1.0000   1.0000   1.0000
     1.0000   1.0000   1.0000   1.0000   1.0000   1.0000   1.0000   1.0000
     1.0000   1.0000   1.0000   1.0000   1.0000   1.0000   1.0000   1.0000
     1.0000   1.0000   1.0000   1.0000   1.0000   1.0000   1.0000   1.0000
     1.0000   1.0000   1.0000   1.0000   1.0000   1.0000   1.0000   1.0000
     1.0000   1.0000   1.0000   1.0000   1.0000   1.0000   1.0000   1.0000
     0.0000   0.0000   0.0000   0.0000   0.0000   0.0000   0.0000   0.0000
     0.0000   0.0000   0.0000   0.0000   0.0000   0.0000   0.0000   0.0000
     0.0000   0.0000   0.0000   0.0000   0.0000   0.0000   0.0000   0.0000
     0.0000   0.0000   0.0000   0.0000   0.0000   0.0000   0.0000   0.0000
     0.0000   0.0000

     the Fermi energy is     4.1914 ev

!    total energy              =  -14165.43114957 Ry
     total all-electron energy =   -491962.264244 Ry
     estimated scf accuracy    <          6.3E-09 Ry
     smearing contrib. (-TS)   =      -0.00000000 Ry
     internal energy E=F+TS    =  -14165.43114957 Ry

     The total energy is F=E-TS. E is the sum of the following terms:
     one-electron contribution =   -2626.37174915 Ry
     hartree contribution      =    1465.80814656 Ry
     xc contribution           =    -992.37575408 Ry
     ewald contribution        =   -2153.29462245 Ry
     one-center paw contrib.   =   -9859.19717046 Ry
      -> PAW hartree energy AE =      95.90135581 Ry
      -> PAW hartree energy PS =     -96.13800841 Ry
      -> PAW xc energy AE      =    -798.42986065 Ry
      -> PAW xc energy PS      =      33.30980306 Ry
      -> total E_H with PAW    =    1465.57149396 Ry
      -> total E_XC with PAW   =   -1757.49581166 Ry

     convergence has been achieved in   1 iterations


     -----------------------------------------------
     Non-local corr. energy    =      10.07165131 Ry
     -----------------------------------------------


     Forces acting on atoms (cartesian axes, Ry/au):

     atom    1 type  1   force =     0.00000000    0.00000000    0.00002201
     atom    2 type  1   force =     0.00000000    0.00000000    0.00009489
     atom    3 type  1   force =     0.00000000    0.00000000   -0.00023059
     atom    4 type  1   force =     0.00000000    0.00000000    0.00018214
     atom    5 type  1   force =     0.00000000    0.00000000    0.00029515
     atom    6 type  1   force =     0.00000000    0.00000000    0.00022354
     atom    7 type  1   force =     0.00000000    0.00000000   -0.00018191
     atom    8 type  2   force =     0.00000000    0.00000000    0.00044603
     atom    9 type  2   force =     0.00000000    0.00000000    0.00008696
     atom   10 type  2   force =     0.00000000    0.00000000   -0.00072055
     atom   11 type  2   force =     0.00000000    0.00000000   -0.00043005
     atom   12 type  2   force =     0.00000000    0.00000000    0.00026743
     atom   13 type  2   force =     0.00000000    0.00000000    0.00048525
     atom   14 type  2   force =     0.00000000    0.00000000   -0.00017480
     atom   15 type  2   force =     0.00000000    0.00000000    0.00035718
     atom   16 type  2   force =     0.00000000    0.00000000    0.00037108
     atom   17 type  2   force =     0.00000000    0.00000000   -0.00045996
     atom   18 type  2   force =     0.00000000    0.00000000   -0.00091921
     atom   19 type  2   force =     0.00000000    0.00000000    0.00035440
     atom   20 type  2   force =     0.00000000    0.00000000   -0.00039258
     atom   21 type  2   force =     0.00000000    0.00000000    0.00032358
     The non-local contrib.  to forces
     atom    1 type  1   force =     0.00000000    0.00000000   -0.00002624
     atom    2 type  1   force =     0.00000000    0.00000000   -0.00007906
     atom    3 type  1   force =    -0.00000000   -0.00000000   -0.00014964
     atom    4 type  1   force =     0.00000000    0.00000000   -0.00041414
     atom    5 type  1   force =     0.00000000    0.00000000   -0.00015879
     atom    6 type  1   force =     0.00000000    0.00000000   -0.00013912
     atom    7 type  1   force =     0.00000000    0.00000000    0.00011220
     atom    8 type  2   force =     0.00000000    0.00000000   -0.24533232
     atom    9 type  2   force =     0.00000000   -0.00000000    0.24605398
     atom   10 type  2   force =     0.00000000    0.00000000   -0.24685640
     atom   11 type  2   force =     0.00000000   -0.00000000   -0.24600692
     atom   12 type  2   force =     0.00000000    0.00000000    0.24655155
     atom   13 type  2   force =     0.00000000    0.00000000   -0.24593283
     atom   14 type  2   force =     0.00000000    0.00000000    0.24547159
     atom   15 type  2   force =     0.00000000    0.00000000    0.24512588
     atom   16 type  2   force =     0.00000000    0.00000000   -0.24611821
     atom   17 type  2   force =     0.00000000    0.00000000    0.24607506
     atom   18 type  2   force =     0.00000000    0.00000000    0.24519959
     atom   19 type  2   force =     0.00000000    0.00000000   -0.24551893
     atom   20 type  2   force =     0.00000000   -0.00000000   -0.24662699
     atom   21 type  2   force =     0.00000000   -0.00000000    0.24665886
     The ionic contribution  to forces
     atom    1 type  1   force =     0.00002817   -0.00001733    0.01778241
     atom    2 type  1   force =     0.00002826   -0.00001739   -0.61229712
     atom    3 type  1   force =     0.00000003    0.00000101    0.53920835
     atom    4 type  1   force =     0.00002816   -0.00001733    0.82299205
     atom    5 type  1   force =     0.00002828   -0.00001740    0.35333124
     atom    6 type  1   force =     0.00002829   -0.00001741   -0.76757146
     atom    7 type  1   force =     0.00002814   -0.00001731   -0.48718051
     atom    8 type  2   force =    -0.00001207    0.00000665   15.42370297
     atom    9 type  2   force =    -0.00000761    0.00000516  -15.43087379
     atom   10 type  2   force =    -0.00002061    0.00001220   13.98687286
     atom   11 type  2   force =    -0.00002154    0.00001282   15.70175911
     atom   12 type  2   force =    -0.00000755    0.00000512  -14.57585787
     atom   13 type  2   force =    -0.00002067    0.00001224   13.76551382
     atom   14 type  2   force =     0.00001304   -0.00000829  -13.84364273
     atom   15 type  2   force =    -0.00000757    0.00000512  -15.04128510
     atom   16 type  2   force =    -0.00002067    0.00001224   15.12082976
     atom   17 type  2   force =    -0.00000759    0.00000515  -14.30919634
     atom   18 type  2   force =    -0.00000766    0.00000519  -15.64137332
     atom   19 type  2   force =    -0.00002055    0.00001217   14.58306141
     atom   20 type  2   force =    -0.00002069    0.00001225   13.94752970
     atom   21 type  2   force =    -0.00000758    0.00000514  -13.55330544
     The local contribution  to forces
     atom    1 type  1   force =     0.00024538   -0.00015982   -0.01792275
     atom    2 type  1   force =     0.00024531   -0.00015977    0.61253596
     atom    3 type  1   force =     0.00000000    0.00000000   -0.53929247
     atom    4 type  1   force =     0.00024548   -0.00015988   -0.82243078
     atom    5 type  1   force =     0.00024529   -0.00015976   -0.35308697
     atom    6 type  1   force =     0.00024528   -0.00015975    0.76792478
     atom    7 type  1   force =     0.00024539   -0.00015982    0.48682172
     atom    8 type  2   force =    -0.00069878    0.00037922  -15.18323622
     atom    9 type  2   force =     0.00000000   -0.00000000   15.19019073
     atom   10 type  2   force =    -0.00069876    0.00037921  -13.74600105
     atom   11 type  2   force =    -0.00069879    0.00037922  -15.46136178
     atom   12 type  2   force =     0.00000000   -0.00000000   14.33480522
     atom   13 type  2   force =    -0.00069874    0.00037920  -13.52445466
     atom   14 type  2   force =     0.00070190   -0.00045715   13.60346329
     atom   15 type  2   force =     0.00000000   -0.00000000   14.80173226
     atom   16 type  2   force =    -0.00069873    0.00037919  -14.87991952
     atom   17 type  2   force =     0.00000000   -0.00000000   14.06799488
     atom   18 type  2   force =    -0.00000000   -0.00000000   15.40064076
     atom   19 type  2   force =    -0.00069882    0.00037924  -14.34265153
     atom   20 type  2   force =    -0.00069872    0.00037918  -13.70637846
     atom   21 type  2   force =    -0.00000000   -0.00000000   13.31222061
     The core correction contribution to forces
     atom    1 type  1   force =     0.00001652   -0.00001076   -0.00001154
     atom    2 type  1   force =     0.00001652   -0.00001076   -0.00001380
     atom    3 type  1   force =    -0.00000000   -0.00000000    0.00003708
     atom    4 type  1   force =     0.00001652   -0.00001076   -0.00000945
     atom    5 type  1   force =     0.00001652   -0.00001076   -0.00003747
     atom    6 type  1   force =     0.00001652   -0.00001076   -0.00002940
     atom    7 type  1   force =     0.00001652   -0.00001076    0.00002208
     atom    8 type  2   force =    -0.00005755    0.00003123    0.00527466
     atom    9 type  2   force =    -0.00000000    0.00000000   -0.00526458
     atom   10 type  2   force =    -0.00005755    0.00003123    0.00530485
     atom   11 type  2   force =    -0.00005754    0.00003123    0.00529756
     atom   12 type  2   force =    -0.00000000    0.00000000   -0.00536572
     atom   13 type  2   force =    -0.00005755    0.00003123    0.00534935
     atom   14 type  2   force =     0.00005779   -0.00003764   -0.00533417
     atom   15 type  2   force =    -0.00000000    0.00000000   -0.00529608
     atom   16 type  2   force =    -0.00005755    0.00003123    0.00538773
     atom   17 type  2   force =    -0.00000000    0.00000000   -0.00536896
     atom   18 type  2   force =    -0.00000000    0.00000000   -0.00531762
     atom   19 type  2   force =    -0.00005755    0.00003123    0.00535576
     atom   20 type  2   force =    -0.00005755    0.00003123    0.00530776
     atom   21 type  2   force =    -0.00000000    0.00000000   -0.00529818
     The Hubbard contrib.    to forces
     atom    1 type  1   force =     0.00000000    0.00000000    0.00000000
     atom    2 type  1   force =     0.00000000    0.00000000    0.00000000
     atom    3 type  1   force =     0.00000000    0.00000000    0.00000000
     atom    4 type  1   force =     0.00000000    0.00000000    0.00000000
     atom    5 type  1   force =     0.00000000    0.00000000    0.00000000
     atom    6 type  1   force =     0.00000000    0.00000000    0.00000000
     atom    7 type  1   force =     0.00000000    0.00000000    0.00000000
     atom    8 type  2   force =     0.00000000    0.00000000    0.00000000
     atom    9 type  2   force =     0.00000000    0.00000000    0.00000000
     atom   10 type  2   force =     0.00000000    0.00000000    0.00000000
     atom   11 type  2   force =     0.00000000    0.00000000    0.00000000
     atom   12 type  2   force =     0.00000000    0.00000000    0.00000000
     atom   13 type  2   force =     0.00000000    0.00000000    0.00000000
     atom   14 type  2   force =     0.00000000    0.00000000    0.00000000
     atom   15 type  2   force =     0.00000000    0.00000000    0.00000000
     atom   16 type  2   force =     0.00000000    0.00000000    0.00000000
     atom   17 type  2   force =     0.00000000    0.00000000    0.00000000
     atom   18 type  2   force =     0.00000000    0.00000000    0.00000000
     atom   19 type  2   force =     0.00000000    0.00000000    0.00000000
     atom   20 type  2   force =     0.00000000    0.00000000    0.00000000
     atom   21 type  2   force =     0.00000000    0.00000000    0.00000000
     The SCF correction term to forces
     atom    1 type  1   force =    -0.00000000    0.00000000    0.00019441
     atom    2 type  1   force =     0.00000000   -0.00000000   -0.00005681
     atom    3 type  1   force =     0.00000000    0.00000000   -0.00003963
     atom    4 type  1   force =     0.00000000   -0.00000000    0.00003874
     atom    5 type  1   force =    -0.00000000    0.00000000    0.00024142
     atom    6 type  1   force =    -0.00000000    0.00000000    0.00003302
     atom    7 type  1   force =     0.00000000   -0.00000000    0.00003688
     atom    8 type  2   force =    -0.00000000    0.00000000    0.00003123
     atom    9 type  2   force =     0.00000000   -0.00000000   -0.00002510
     atom   10 type  2   force =    -0.00000000    0.00000000   -0.00004653
     atom   11 type  2   force =    -0.00000000    0.00000000   -0.00012374
     atom   12 type  2   force =     0.00000000   -0.00000000    0.00012853
     atom   13 type  2   force =    -0.00000000    0.00000000    0.00000386
     atom   14 type  2   force =     0.00000000   -0.00000000   -0.00013851
     atom   15 type  2   force =     0.00000000   -0.00000000    0.00007451
     atom   16 type  2   force =    -0.00000000    0.00000000    0.00018561
     atom   17 type  2   force =     0.00000000   -0.00000000    0.00002969
     atom   18 type  2   force =    -0.00000000    0.00000000   -0.00007434
     atom   19 type  2   force =    -0.00000000    0.00000000    0.00010197
     atom   20 type  2   force =     0.00000000   -0.00000000   -0.00023031
     atom   21 type  2   force =     0.00000000   -0.00000000    0.00004201

     Total force =     0.001795     Total SCF correction =     0.000521
     SCF correction compared to forces is large: reduce conv_thr to get better values


     Computing stress (Cartesian axis) and pressure



     -----------------------------------------------
     Non-local corr. energy    =      10.07165131 Ry
     -----------------------------------------------

          total   stress  (Ry/bohr**3)                   (kbar)     P=        1.03
   0.00000646   0.00000000   0.00000000            0.95        0.00        0.00
   0.00000000   0.00000646  -0.00000000            0.00        0.95       -0.00
   0.00000000   0.00000000   0.00000817            0.00        0.00        1.20

     kinetic stress (kbar)  14907.09      0.00     -0.00
                                0.00  14907.09     -0.00
                               -0.00     -0.00  14918.15

     local   stress (kbar)  -7735.39     -0.00      0.00
                               -0.00  -7735.39     -0.00
                                0.00     -0.00   1727.47

     nonloc. stress (kbar)  -1066.52      0.00      0.00
                                0.00  -1066.52      0.00
                                0.00      0.00  -1072.51

     hartree stress (kbar)  12092.70      0.00      0.00
                                0.00  12092.70     -0.00
                                0.00     -0.00   7821.90

     exc-cor stress (kbar)   6907.78      0.00     -0.00
                                0.00   6907.78      0.00
                               -0.00      0.00   6906.58

     corecor stress (kbar) -11246.84     -0.00     -0.00
                               -0.00 -11246.84      0.00
                               -0.00      0.00 -11246.77

     ewald   stress (kbar) -13940.69      0.00     -0.01
                                0.00 -13940.69      0.00
                               -0.01      0.00 -19137.84

     hubbard stress (kbar)      0.00      0.00      0.00
                                0.00      0.00      0.00
                                0.00      0.00      0.00

     DFT-D   stress (kbar)      0.00      0.00      0.00
                                0.00      0.00      0.00
                                0.00      0.00      0.00

     XDM     stress (kbar)      0.00      0.00      0.00
                                0.00      0.00      0.00
                                0.00      0.00      0.00

     dft-nl  stress (kbar)     82.82     -0.00      0.00
                               -0.00     82.82     -0.00
                                0.00     -0.00     84.21

     TS-vdW  stress (kbar)      0.00      0.00      0.00
                                0.00      0.00      0.00
                                0.00      0.00      0.00

     MDB     stress (kbar)      0.00      0.00      0.00
                                0.00      0.00      0.00
                                0.00      0.00      0.00

     3D-RISM stress (kbar)      0.00      0.00      0.00
                                0.00      0.00      0.00
                                0.00      0.00      0.00



     -----------------------------------------------
     Non-local corr. energy    =      10.07165131 Ry
     -----------------------------------------------



     -----------------------------------------------
     Non-local corr. energy    =      10.07165131 Ry
     -----------------------------------------------



     -----------------------------------------------
     Non-local corr. energy    =      10.07165131 Ry
     -----------------------------------------------



     -----------------------------------------------
     Non-local corr. energy    =      10.07165131 Ry
     -----------------------------------------------



     -----------------------------------------------
     Non-local corr. energy    =      10.07165131 Ry
     -----------------------------------------------



     -----------------------------------------------
     Non-local corr. energy    =      10.07165131 Ry
     -----------------------------------------------



     -----------------------------------------------
     Non-local corr. energy    =      10.07165131 Ry
     -----------------------------------------------



     -----------------------------------------------
     Non-local corr. energy    =      10.07165131 Ry
     -----------------------------------------------



     -----------------------------------------------
     Non-local corr. energy    =      10.07165131 Ry
     -----------------------------------------------



     -----------------------------------------------
     Non-local corr. energy    =      10.07165131 Ry
     -----------------------------------------------



     -----------------------------------------------
     Non-local corr. energy    =      10.07165131 Ry
     -----------------------------------------------



     -----------------------------------------------
     Non-local corr. energy    =      10.07165131 Ry
     -----------------------------------------------



     -----------------------------------------------
     Non-local corr. energy    =      10.07165131 Ry
     -----------------------------------------------



     -----------------------------------------------
     Non-local corr. energy    =      10.07165131 Ry
     -----------------------------------------------



     -----------------------------------------------
     Non-local corr. energy    =      10.07165131 Ry
     -----------------------------------------------



     -----------------------------------------------
     Non-local corr. energy    =      10.07165131 Ry
     -----------------------------------------------



     -----------------------------------------------
     Non-local corr. energy    =      10.07165131 Ry
     -----------------------------------------------



     -----------------------------------------------
     Non-local corr. energy    =      10.07165131 Ry
     -----------------------------------------------



     -----------------------------------------------
     Non-local corr. energy    =      10.07165131 Ry
     -----------------------------------------------



     -----------------------------------------------
     Non-local corr. energy    =      10.07165131 Ry
     -----------------------------------------------



     -----------------------------------------------
     Non-local corr. energy    =      10.07165131 Ry
     -----------------------------------------------



     -----------------------------------------------
     Non-local corr. energy    =      10.07165131 Ry
     -----------------------------------------------



     -----------------------------------------------
     Non-local corr. energy    =      10.07165131 Ry
     -----------------------------------------------



     -----------------------------------------------
     Non-local corr. energy    =      10.07165131 Ry
     -----------------------------------------------



     -----------------------------------------------
     Non-local corr. energy    =      10.07165131 Ry
     -----------------------------------------------



     -----------------------------------------------
     Non-local corr. energy    =      10.07165131 Ry
     -----------------------------------------------



     -----------------------------------------------
     Non-local corr. energy    =      10.07165131 Ry
     -----------------------------------------------



     -----------------------------------------------
     Non-local corr. energy    =      10.07165131 Ry
     -----------------------------------------------



     -----------------------------------------------
     Non-local corr. energy    =      10.07165131 Ry
     -----------------------------------------------



     -----------------------------------------------
     Non-local corr. energy    =      10.07165131 Ry
     -----------------------------------------------



     -----------------------------------------------
     Non-local corr. energy    =      10.07165131 Ry
     -----------------------------------------------



     -----------------------------------------------
     Non-local corr. energy    =      10.07165131 Ry
     -----------------------------------------------



     -----------------------------------------------
     Non-local corr. energy    =      10.07165131 Ry
     -----------------------------------------------



     -----------------------------------------------
     Non-local corr. energy    =      10.07165131 Ry
     -----------------------------------------------

 BEEFens 2000 ensemble energies
             -0.846123380995675E+01
             -0.851508821160101E+02
             -0.387510571010844E+02
              0.297393281418434E+02
             -0.650810674236535E+02
             -0.796796952267881E+02
              0.408989863871141E+02
              0.172682314901351E+00
              0.689295202575378E+02
             -0.436339739046520E+01
              0.352933723525159E+02
              0.360260497713142E+01
             -0.270573109322319E+01
             -0.218544751574785E+01
              0.439874637273710E+02
             -0.331297674279556E+02
             -0.650283554156688E+02
             -0.209897736370877E+02
              0.188046545569866E+02
             -0.401537663999420E+00
              0.958896702853797E+02
              0.800387975922762E+02
             -0.492976524082761E+02
              0.170390940733211E+02
             -0.102708994614170E+03
              0.843104311301705E+02
              0.288352821531182E+02
              0.761293719948206E+02
              0.513093492962722E+02
             -0.238220587458704E+02
              0.187749797570391E+02
             -0.335665834602661E+02
              0.140201939965421E+02
              0.510481145278612E+02
              0.549287927036664E+02
             -0.238752011826832E+02
              0.121173680940352E+03
             -0.487605556294828E+02
             -0.324788353044192E+02
              0.484658133297143E+02
              0.213693939761582E+02
              0.368228657955874E+02
             -0.711338204912344E+02
             -0.462524669150298E+01
              0.682433394026864E+02
              0.891981590181557E+02
             -0.905663822556809E+02
              0.581367988195135E+01
              0.314162731382894E+02
              0.202843697173480E+02
              0.354130962788593E+02
              0.777667182296101E+02
             -0.505012238535898E+02
             -0.490100867758238E+02
             -0.682793508303961E+02
             -0.990227308130198E+01
             -0.582511206607065E+02
              0.752400439047005E+01
             -0.840030470319459E+01
             -0.462088357256451E+02
              0.754116738173750E+02
              0.765050010608358E+02
             -0.210367118398644E+02
             -0.577376275988897E+02
             -0.350568981811811E+02
             -0.227008500174013E+01
              0.556165416386769E+02
             -0.780747000202484E+01
             -0.555558170031129E+02
              0.513084027111293E+02
             -0.952707061331294E+02
              0.842800850602718E+02
             -0.975648232744482E+02
             -0.427686703117770E+02
             -0.140025869039198E+02
             -0.891652485379464E+01
              0.508719857408377E+01
              0.673902310834847E+02
              0.423403064647777E+02
             -0.709540359735016E+02
             -0.942132700288810E+02
             -0.491441618124687E+02
             -0.364814222897388E+02
              0.553392690950056E+01
             -0.116489176640182E+02
             -0.341780488273711E+02
              0.417363582370934E+02
             -0.357998750734137E+02
              0.139123117043392E+03
             -0.638320588097244E+02
              0.139252781652172E+02
              0.145704864186191E+02
              0.208611982464468E+02
              0.482875180140691E+02
              0.344576349219862E+02
              0.327059872798445E+02
             -0.536908119998683E+02
              0.318157443547786E+02
              0.780582831734239E+01
             -0.103267114693330E+01
              0.630087200033852E+02
             -0.744504023541049E+02
              0.126006279641088E+03
             -0.296300254946890E+02
             -0.134439621262319E+03
              0.740259038562925E+01
              0.123115092988850E+02
             -0.368659625602795E+02
             -0.707339318617884E+02
             -0.355461233395687E+02
             -0.262240304675873E+02
              0.903252326527650E+00
             -0.557963727178613E+02
              0.303463182045516E+01
              0.605122971330735E+01
              0.128777955619669E+02
              0.121260108803094E+03
              0.144017254643647E+02
             -0.735671033430042E+02
             -0.552046886183403E+02
             -0.173691319230568E+02
             -0.477579523717308E+02
              0.811470990178761E+02
             -0.515406302812406E+02
              0.245300292175833E+01
             -0.102604719352078E+02
              0.133972615436319E+02
              0.478331137310374E+02
             -0.520423959344095E+02
             -0.102437979828670E+03
             -0.186455734636859E+02
             -0.213928707516484E+02
             -0.153626668760575E+02
              0.518475041030634E+02
             -0.899572803240207E+02
             -0.101706419827799E+03
             -0.132804693507084E+02
             -0.222187806635586E+02
             -0.366060392380047E+01
              0.278565775351835E+02
              0.614692605515319E+02
              0.311726562265354E+02
             -0.303402351393673E+02
             -0.321471582660142E+02
             -0.930309121562049E+02
             -0.698399169224206E+01
             -0.442528443594929E+02
             -0.277427787586914E+02
              0.772019324757807E+02
             -0.595681440676441E+02
             -0.203162534764020E+02
              0.718380315659887E+02
             -0.981627390977496E+01
             -0.186965606336646E+02
              0.122070028801260E+02
              0.285510283344260E+02
             -0.460645904492416E+02
              0.269485462966823E+02
              0.179877632791039E+02
              0.422489516936063E+02
             -0.435544720416414E+02
             -0.354623793569502E+02
              0.538834005387258E+02
             -0.449156539983323E+01
             -0.211021677460797E+02
             -0.183505668263654E+02
             -0.254425748157171E+02
             -0.342245430355827E+02
             -0.804115947577987E+02
             -0.101595223370773E+03
             -0.319645956306883E+02
             -0.316829215793097E+02
             -0.370858990304973E+02
             -0.619377762641158E+02
             -0.320135775193019E+02
              0.550620465445429E+02
              0.237911789183404E+02
              0.780446254699496E+02
             -0.332281055252511E+02
              0.267215900504077E+02
              0.144647171804422E+02
             -0.821984583681115E+02
             -0.195298667001435E+02
              0.440235043142268E+02
             -0.132097003312604E+03
              0.286568154907421E+02
              0.221482517147051E+02
              0.842244551633489E+02
             -0.259934651799981E+02
              0.727749923927446E+02
              0.111373487661378E+03
              0.923862659742909E+02
             -0.520461557912847E+02
             -0.283346263492045E+02
             -0.159122992310719E+02
              0.369887606032036E+02
              0.189295032178955E+02
             -0.200017553338253E+02
              0.539246695732519E+02
              0.107362002442106E+03
             -0.375105693810463E+02
             -0.264172047409709E+02
              0.177859960703314E+02
             -0.610303811363941E+02
             -0.525763442104702E+02
              0.466857661406934E+01
              0.155861470876806E+01
             -0.982992108310714E+01
              0.920750932414817E+02
              0.290913673382198E+02
             -0.152862576304695E+02
             -0.596513100775582E+01
             -0.121108748061046E+03
             -0.129824939251380E+02
             -0.276219590128139E+02
             -0.333214468794989E+01
              0.602352223614040E+02
             -0.320474184191551E+01
              0.840128780436249E+02
             -0.543240370253723E+02
             -0.549005016414120E+02
              0.554307424156202E+02
              0.730327906957994E+02
              0.970627485970431E+02
             -0.553590508195718E+02
             -0.310315557362170E+02
              0.577320945847882E+02
              0.636927864184922E+02
             -0.714072838984297E+02
             -0.181351594223730E+02
              0.766235449600547E+02
              0.496851270590291E+02
              0.299279794622173E+02
              0.275742615936103E+02
             -0.198427161766734E+02
             -0.435450061391572E+01
              0.319483399374064E+02
             -0.335303903959958E+02
             -0.425385179766305E+02
              0.102378932733221E+02
             -0.195874580759466E+02
              0.289430216394464E+02
             -0.494152743030908E+02
              0.593653924745263E+02
             -0.868859346188316E+01
              0.583185340463229E+02
             -0.213295974867781E+02
             -0.717617967480570E+02
             -0.724023831063676E+00
              0.188257971899036E+02
              0.157858340698376E+02
              0.697806209732101E+01
              0.835931858838580E+01
              0.136301101108219E+02
              0.109444656146151E+03
             -0.806771202039230E+02
              0.179261194389401E+02
             -0.427227193118854E+01
              0.185820539372139E+01
              0.437471317450814E+02
              0.318523606430177E+02
             -0.331617805049733E+02
              0.955323266690095E+01
             -0.557977445830343E+02
             -0.182525612859424E+02
             -0.120923400693428E+01
             -0.120913059068469E+03
              0.290515958889067E+02
              0.593455253604437E+02
              0.301462594884204E+02
              0.438167711512112E+02
             -0.260611975812225E+02
              0.254353007338769E+02
              0.650938362452769E+02
             -0.498231154868084E+02
              0.292842419657043E+02
              0.812533665862949E+02
             -0.111738122430682E+02
              0.516959732527714E+02
             -0.158503135126933E+02
             -0.219053653073623E+02
             -0.496121676321079E+01
             -0.567456246493975E+02
              0.329807378853298E+02
              0.309546420754813E+02
              0.605791134402493E+02
             -0.333121217402202E+02
              0.539489031186986E+02
              0.107886074721951E+03
              0.580051802574853E+02
             -0.493004708873602E+02
             -0.190434120259089E+02
             -0.944256535078976E+02
              0.894080261173139E+01
              0.127995897650695E+02
             -0.298387571287623E+01
             -0.185674064573521E+02
              0.141272375589265E+02
              0.680534232570339E+02
             -0.791696113658645E+00
              0.314162478005260E+02
              0.306208454848843E+02
             -0.151584726879809E+02
             -0.977675206583920E+02
              0.361007052967100E+02
             -0.657059735660333E+00
              0.508346419174575E+02
             -0.136278303574843E+02
             -0.186761643852503E+02
             -0.220818945141433E+02
              0.142342326037786E+02
              0.441934039687430E+01
              0.254643727422537E+02
              0.263234865540293E+02
             -0.708277162063309E+02
              0.383394377514102E+02
              0.463557591494726E+02
              0.375297034036715E+02
              0.724855938373392E+02
              0.291426909570877E+02
              0.839193227607143E+02
             -0.251759061987256E+02
             -0.283618729637339E+02
              0.411852027853401E+02
              0.414827356413336E+02
              0.115733169632767E+01
              0.661991736334897E+01
              0.448034226760861E+02
              0.343526061664433E+02
             -0.216971812136467E+02
             -0.425661301019096E+01
             -0.745937648686481E+01
             -0.750470995125102E+01
             -0.789864138481378E+02
             -0.249762391975843E+02
              0.380354120203687E+02
              0.218028246279070E+02
              0.321153015019610E+02
             -0.603514305767092E+02
             -0.856946002821810E+02
              0.213147985617619E+02
              0.843489326556615E+02
              0.437085153782832E+02
             -0.431555146901197E+02
             -0.843642134266518E+02
             -0.459961477150716E+01
              0.277263083553081E+02
              0.279376936819399E+02
             -0.109370706880321E+02
              0.737591188816856E+02
              0.225970850970646E+02
             -0.515983258957295E+02
              0.563638170807156E+02
              0.302753974900407E+02
              0.422930359917675E+01
             -0.176479821521973E+02
             -0.374153065732421E+02
             -0.575441739859951E+02
              0.184455811078934E+02
             -0.115140042717951E+02
             -0.372190904778271E+02
              0.277713664446652E+01
             -0.344429254664325E+02
              0.210509021039754E+02
             -0.916120509202585E+02
              0.216927988393574E+02
             -0.994677725512372E+01
             -0.439683384994012E+01
              0.279107661155894E+02
              0.266001112810533E+02
              0.116777873031596E+03
              0.300847450296385E+01
             -0.379541195665449E+02
             -0.864040545618953E+02
              0.448567474207225E+02
             -0.464664563271833E+01
              0.312426926912265E+02
              0.188530685597461E+02
             -0.110513371492549E+02
              0.713573476513959E+02
              0.588683028165188E+02
             -0.147903490145350E+02
              0.619665372501362E+02
             -0.777369786093042E+02
              0.187173466305042E+02
              0.453298945513739E+02
             -0.554260115013719E+02
             -0.719398061413625E+02
             -0.787615494389095E+02
             -0.778457321436352E+02
              0.743058478504585E+02
             -0.601608879350401E+02
             -0.973925427192842E+01
              0.372045316423953E+02
             -0.301507693516756E+02
              0.119549729947193E+02
              0.188578852382542E+02
              0.416245643395655E+02
             -0.671121393201057E+02
              0.473943656642313E+02
             -0.232828015822498E+02
             -0.992141692399341E+02
              0.366296854236641E+02
             -0.238094724623729E+02
             -0.554955826991911E+02
             -0.259025495694345E+02
              0.465730462251465E+02
              0.361055853113761E+02
              0.125124530998181E+02
              0.217588583949406E+02
             -0.136565966819592E+01
              0.192520074869901E+02
             -0.609845984233441E+02
              0.111967984384670E+02
             -0.129248316744117E+02
             -0.499147032573942E+02
              0.139940322489537E+02
             -0.759627569481125E+01
              0.715032086049455E+02
              0.118191889477361E+02
              0.796910431282929E+02
              0.111397894927852E+02
              0.225050901090579E+02
             -0.215812407008054E+02
             -0.196947869275538E+02
              0.456789464630752E+02
              0.176846289743280E+02
             -0.395929305077223E+02
              0.894200371163568E+02
              0.660875126001264E+02
              0.667697880456635E+02
              0.448142819082429E+02
             -0.161715439919050E+02
             -0.110763558106217E+03
             -0.799288042085516E+01
             -0.309653846808804E+02
             -0.424405324069253E+02
              0.474093579175217E+02
             -0.103533846558679E+03
              0.441139298391764E+02
              0.355876802023862E+02
             -0.353175894848619E+02
             -0.590677676318967E+01
             -0.144415952604136E+02
             -0.316181776720035E+02
              0.336451431252883E+02
              0.414765564211293E+02
             -0.596136212061720E+01
             -0.243726694482308E+02
              0.930460460980771E+01
             -0.107394829856565E+01
             -0.649855632190460E+02
             -0.453826932607378E+02
             -0.343951178179566E+01
             -0.505727439803816E+02
             -0.271932785511366E+02
              0.168558693834416E+01
             -0.842137293743519E+02
             -0.441135275857380E+02
              0.275667098220802E+01
             -0.106893924454889E+03
              0.139623840920398E+02
             -0.102443983741157E+03
              0.557721971011866E+02
             -0.443387910034053E+02
              0.594376385720117E+02
             -0.211107958425293E+02
             -0.845292720221095E+02
             -0.466605783384129E+01
             -0.454425518260550E+02
             -0.250925961450732E+02
              0.163701213332852E+02
             -0.943462300085245E+02
              0.161150336413421E+02
              0.459236201604242E+02
             -0.906331229878618E+02
             -0.105719885411297E+02
             -0.837852507406383E+02
             -0.933330191611486E+02
             -0.597299493057185E+02
             -0.904484873363157E+01
             -0.460294415458941E+02
              0.455273553003319E+02
              0.506519644148656E+02
             -0.373029558249963E+02
              0.257803204852444E+02
             -0.362589140431841E+02
              0.323488930680726E+02
             -0.488669572211916E+02
             -0.489560036898561E+02
              0.457973131040768E+02
              0.348991355216849E+02
              0.132892001108131E+02
              0.508642759825864E+02
              0.112579633229683E+03
             -0.184010984892452E+02
              0.347947180907389E+02
             -0.991998286884433E+02
             -0.913737249571905E+02
             -0.440068713339707E+01
              0.983529718585730E+01
              0.286861632010241E+02
             -0.735689692597437E+02
              0.142655206653908E+02
              0.887833556921941E+02
             -0.701619578881799E+02
             -0.128847252608099E+02
             -0.972749177914533E+02
             -0.100161561667040E+02
              0.522418901498469E+01
             -0.674789202331391E+02
              0.206820881185253E+02
             -0.100153765852125E+03
             -0.430390995001608E+01
             -0.743546473381861E+01
              0.966353016548490E+01
             -0.611216263366526E+02
              0.455568558093918E+02
             -0.744609258144544E+01
             -0.845142794452431E+01
              0.791639970034686E+01
              0.311999514022531E+02
              0.642388073719239E+02
             -0.178124202362011E+02
              0.489798097966861E+02
              0.838913912850043E+02
              0.159031261159008E+02
             -0.340703545134761E+01
              0.257324895069638E+02
              0.770494272384791E+01
             -0.100900314677956E+02
              0.388596791753972E+02
             -0.110966001367310E+02
             -0.550634009204364E+02
              0.306613065289053E+02
             -0.391370196761168E+02
             -0.314626882900399E+02
             -0.512792172901662E+00
             -0.716867770308294E+02
             -0.182543669233588E+02
             -0.785288455022521E+02
             -0.429425061268747E+01
             -0.211414330711140E+02
              0.394749126011623E+02
             -0.835614320509076E+02
              0.763859772459341E+01
              0.252328164618581E+01
             -0.675515563493270E+02
              0.395597485236864E+02
              0.747466152481720E+02
              0.197783050709234E+02
             -0.646180463087393E+02
             -0.714750392614569E+02
              0.961177541488247E+02
              0.725346392769222E+02
              0.313305373796045E+02
             -0.239461160901959E+02
             -0.447877238268022E+02
              0.422241056540483E+02
              0.177519743613236E+02
              0.830892091196762E+02
              0.761562389986584E+02
              0.645450243979706E+02
              0.337654071400752E+02
             -0.134087092433259E+03
             -0.360487430085104E+02
              0.170849145837971E+02
             -0.283173801806088E+02
              0.776691247778241E+02
              0.333183993931344E+02
             -0.308272910281748E+02
             -0.935950899302713E+01
              0.899605398292389E+02
              0.876728381876842E+01
             -0.985918107807822E+01
             -0.152160739296538E+03
              0.372926537239738E+02
             -0.331433836164643E+02
              0.682686441113302E+02
             -0.588625455505221E+02
             -0.906356583908911E+01
              0.237607543850927E+02
             -0.516664129743241E+02
             -0.855687114749297E+02
              0.388427947624484E+01
              0.292501553866305E+02
             -0.344417093503864E+01
             -0.223891674170726E+02
             -0.124811597987137E+02
             -0.514057960853418E+02
             -0.971930174291734E+02
              0.121080203545759E+01
             -0.365611992105655E+02
             -0.901346121351506E+01
             -0.388720787532748E+02
              0.155270505892494E+03
              0.326289835870449E+02
             -0.522644458130693E+02
             -0.490108097863510E+02
              0.206682443323392E+02
              0.378112591834722E+02
              0.595539527026363E+02
             -0.427137377952390E+02
             -0.939798631703950E+02
             -0.273689605288607E+02
             -0.512341536250131E+02
              0.526242907617905E+02
              0.601799611849161E+02
              0.812515322527565E+01
              0.234579982200429E+02
              0.410071090183455E+02
              0.497176412928180E+02
             -0.944529785615484E+02
             -0.199889850090617E+02
              0.623906952115385E+01
             -0.142238248265823E+02
             -0.410734061308583E+02
              0.170141788027581E+01
             -0.157868023341904E+02
             -0.379291828951275E+02
             -0.382730035628230E+02
              0.157502920792584E+02
             -0.118488394744392E+03
             -0.604608597861384E+02
             -0.513076844508186E+02
              0.106424427592453E+03
             -0.186922432965323E+02
             -0.110311427601680E+02
              0.115038245046436E+03
             -0.564817519249035E+02
              0.698678916934462E+02
             -0.439815762404276E+02
             -0.137127530659343E+01
              0.206085575444581E+01
             -0.967264622832892E+01
             -0.527993666700251E+02
              0.148535636108235E+02
              0.825773469547516E+01
             -0.407580757220347E+02
              0.370871396843987E+02
             -0.402852795422482E+02
             -0.112651497588897E+02
              0.111843502966959E+02
              0.510962348334391E+01
             -0.265224178127557E+02
             -0.203049424612519E+02
              0.532042141712183E+02
              0.123324126137965E+02
              0.215624394514971E+02
             -0.476414587023960E+02
             -0.423635565521573E+01
             -0.178743216712075E+02
             -0.177142672616712E+02
              0.907980594284294E+01
             -0.464591778474157E+02
             -0.332140312164488E+02
             -0.263996536289185E+02
             -0.229335045455332E+01
              0.552474390032138E+02
              0.104657899203756E+03
              0.183344555163944E+01
              0.577560456689610E+02
             -0.578274650768196E+01
             -0.511583405365632E+02
              0.238224301238688E+01
             -0.509425183598978E+02
             -0.288788736702866E+02
              0.210068599325157E+02
              0.941004577528935E+02
              0.355499859482029E+01
             -0.525529448518660E+02
              0.422571686483109E+02
              0.144332654570272E+02
              0.202401853174359E+01
             -0.212174938699645E+02
             -0.522753160996236E+02
              0.615804875241759E+01
              0.783365025452422E+02
              0.478900377565182E+02
              0.146087322121973E+02
              0.112208093258738E+03
              0.449728135178772E+02
             -0.403423109011666E+02
              0.779159106407363E+02
              0.378176576063950E+02
              0.400959757096820E+02
              0.309827179526650E+02
[...]
              0.358136018953783E+02
             -0.200127672220095E+01
              0.110061541265510E+03
              0.184470225080933E+02
             -0.169770785399177E+02
              0.199845861566212E+01
             -0.111502048365347E+02
              0.903829908631187E+02
             -0.518935617388294E+01
              0.194460397402871E+02
              0.651775737472097E+02
              0.142973883276629E+02
             -0.514389228193222E+02
             -0.749672550529261E+02
              0.784401486082288E+00
             -0.843186348007889E+02
              0.286102340473693E+02
             -0.170681847957632E+02
             -0.396071913420271E+02
              0.356087300667908E+02
              0.136544317407563E+02
              0.321195700989907E+02
              0.284573000344193E+01
              0.511636448572712E+02
             -0.836044772504755E+02
             -0.766349080393849E+01
             -0.729184537962998E+02
              0.131463204165790E+02
              0.394921631879024E+02
             -0.729199900611212E+01
             -0.274671978231839E+02
              0.587500968033784E+02
             -0.272334043875053E+02
              0.191405959758025E+02
             -0.170812757489871E+02
              0.419400341839382E+02
              0.506540974456441E+02
             -0.218482330661892E+02
              0.435726118208798E+02
              0.167236818892355E+02
             -0.449331624054952E+02
             -0.268807739949957E+02
              0.724606106340200E+02
              0.343492813704272E+02
             -0.331539007322073E+01
             -0.975091841991457E+01
              0.106509375008309E+03
              0.638739757677368E+02
              0.234106473820897E+02
             -0.682549723610090E+02
              0.106900658731907E+03
             -0.483400154332379E+02
             -0.599411633192383E+02
             -0.928488001095124E+02
              0.447505246357985E+02
             -0.849472177297823E+02
              0.368364719510573E+02
              0.604768386917017E+02
              0.448191725433293E+02
              0.950849854796180E+01
              0.267298618176232E+02
             -0.669548643791235E+02
             -0.238063672069817E+02
             -0.215982052554227E+02
              0.323476855903616E+02
              0.722054526976441E+02
              0.711826285943505E+02
              0.544823015645326E+02
             -0.134564029355582E+02
              0.193487275056647E+02
              0.271214014413664E+01
             -0.213949895567656E+02
              0.319172251031899E+02
              0.305720157843683E+02
             -0.436032755193225E+02
             -0.441498394993068E+02
             -0.202422527625839E+02
              0.468958114931138E+02
              0.238593889622760E+02
             -0.319325493958390E+02
             -0.556276344949503E+02
             -0.764311103556360E+02
              0.159584236665376E+01
              0.217599324098434E+02
             -0.295710639243718E+02
              0.108571177187090E+03
              0.102596809897381E+01
             -0.126125816068761E+03
              0.316302179441585E+02
              0.520521897855649E+02
             -0.189061472834750E+02
              0.199606077925887E+01
             -0.285205479139388E+02
              0.484325886378054E+02
              0.239028097040940E+02
             -0.637333285112245E+02
              0.756828502445993E+02
              0.515921851240907E+01
             -0.302241508842775E+02
             -0.372606926876880E+02
              0.151725360731746E+03
              0.678178611323496E+02
             -0.170177184918317E+02
              0.374125359235674E+02
             -0.739440114193466E+02
             -0.160413851193289E+02
             -0.657167667019302E+02
              0.253821972581073E+02
              0.471662267415229E+02
              0.518823876000379E+02
             -0.227409873776924E+02
              0.393904815590076E+01
              0.646441046885884E+02
              0.206741646755189E+02
              0.385406234841805E+02
              0.156776587435165E+02
             -0.867702949577625E+01
              0.161054531315017E+00
             -0.120145942314172E+02
              0.133950035680288E+02
              0.449953425574250E+01
             -0.587195617682829E+02
              0.899656540512611E+02
              0.346223742037711E+02
             -0.637514266956737E+02
             -0.468484317796315E+02
             -0.661322814439426E+02
             -0.286689704196929E+02
             -0.207913592868190E+02
             -0.523127149763927E+02
             -0.516396173746115E+02
              0.621666897723011E+02
              0.494832510554617E+02
             -0.683596654573353E+01
              0.742837798877450E+02
              0.107079456673966E+02
             -0.119380206583828E+03
              0.641015100246065E+02
              0.109373679188418E+02
              0.503378743160977E+02
              0.680644603973150E+01
              0.567448691159908E+01
              0.102581083535560E+02
              0.271974234950908E+02
             -0.498120234479503E+02
             -0.235008560795048E+02
             -0.471067702512979E+02
             -0.389791214648086E+02
              0.162485396264657E+02
             -0.432518488874115E+02
              0.208368476595737E+02
              0.286128927746044E+02
             -0.265112399569701E+02
             -0.169335575533833E+02
              0.111739716671062E+01
              0.742152556681587E+02
              0.112241595351792E+02
              0.712416593442458E+02
              0.255419144026194E+02
             -0.941809643556655E+02
             -0.312338124914918E+02
              0.321143135675389E+02
              0.741061010615434E+02
              0.122302956106067E+02
              0.304629444926045E+02
              0.681961378588703E+02
             -0.394866043842561E+02
             -0.606177446867615E+02
              0.840558280983222E+02
              0.489598791815968E+01
             -0.888370692628321E+02
              0.324585965103493E+02
              0.562345305341597E+02
             -0.143871299033510E+02
             -0.585660568085150E+02
              0.122060207971717E+02
              0.252905989925910E+01
             -0.284554702983543E+02
              0.108871105161863E+02
             -0.947960368014820E+01
              0.132179305814607E+03
              0.384796729529000E+02
             -0.559833822026334E+02
              0.165332031430007E+02
              0.804783985621260E+02
             -0.544071982899383E+02
             -0.141684622336379E+02
             -0.514536220816763E+02
              0.412332947998770E+02
              0.130377236497908E+02
              0.272629042288947E+02
              0.493641135283326E+01
              0.934864065610468E+02
             -0.531750378806989E+02
             -0.419903753056987E+02
             -0.405374871819489E+02
              0.356150971453908E+02
              0.928996713871671E+02
             -0.155299141682119E+02
              0.380137813691687E+02
             -0.539873886988284E+02
              0.103680701791428E+02
             -0.172801189145732E+02
              0.378943425639795E+01
             -0.209353170107552E+02
             -0.170652188864193E+02
             -0.167676530846217E+02
              0.138066786005347E+02
              0.269869373367537E+02
             -0.588722722233756E+02
              0.435960038715173E+02
             -0.701719007208525E+02
              0.529409441835570E+02
             -0.559535067851052E+02
              0.907079514768085E+02
              0.498339425692613E+02
              0.573623561018868E+02
              0.142433499797132E+02
              0.167442485894854E+02
             -0.125309282035724E+03
              0.203276735985000E+02
              0.459793236553207E+01
              0.119506224975844E+02
             -0.204574639347358E+02
              0.968784247694783E+02
             -0.224942328529562E+02
             -0.400457628117576E+02
             -0.937475185502722E+02
             -0.325322512605653E+02
             -0.449810685520101E+02
             -0.391017376497543E+02
             -0.882506351489354E+01
             -0.214106502263526E+02
             -0.272280480412279E+02
             -0.417193599258106E+02
              0.319275092389693E+02
              0.100663965793031E+03
              0.850425015504107E+02
             -0.150897548479387E+02
             -0.102230171833688E+03
             -0.435882048207942E+02
              0.208982720723351E+02
              0.209193726002440E+02
              0.334233099443104E+02
              0.234885572126823E+02
              0.414841798685876E+01
              0.998861771745298E+02
             -0.242796464198104E+02
              0.490720531655639E+02
              0.252465886854683E+02
             -0.340213450136774E+02
             -0.163065418500215E+02
              0.452538992182854E+02
             -0.241811965658998E+02
             -0.148483733601405E+02
             -0.110059003859908E+02
              0.582739214528929E+02
             -0.766528576690365E+02
             -0.615959822979255E+01
             -0.591535015364002E+02
             -0.125686670395761E+03
             -0.336924623306118E+00
             -0.185483186770037E+02
              0.488484240082589E+02
              0.543082198628977E+02
              0.742754215622172E+02
             -0.483033781901970E+02
              0.751018617870075E+02
              0.187743111075534E+02
             -0.278835210699537E+02
              0.100259711583744E+02
             -0.237120447877772E+02
             -0.140225606714976E+02
              0.433760801684008E+02
             -0.359235598024860E+02
              0.963592991013365E+02
             -0.256911104236491E+02
             -0.532620067756173E+02
              0.100771175766966E+03
             -0.545465044283868E+02
             -0.438930047744304E+01
              0.530122863880797E+01
              0.290785485802114E+02
             -0.425686769744805E+02
             -0.324363349317018E+02
              0.517570318100587E+02
             -0.778648692447957E+02
              0.642133533697194E+02
              0.949074516572954E+01
              0.460130267141576E+02
              0.666682488919890E+02
              0.170811536912406E+02
             -0.926521254985919E+02
             -0.400926424616447E+02
             -0.668836558955944E+02
             -0.397875132355903E+02
             -0.106029141203035E+02
              0.143546428740108E+02
             -0.311981511467706E+02
             -0.538895155020214E+00
             -0.930237636056585E+02
              0.519984156564988E+01
             -0.599928277675218E+02
              0.581538446218507E+02
             -0.340835003153552E+02
             -0.821661442992442E+01
              0.438959332025659E+02
              0.868370953730195E+01
              0.407945461539596E+02
             -0.777744986316826E+02
              0.129215857063855E+02
              0.531664941398394E+01
              0.334803201102162E+02
              0.536637674812038E+02
             -0.991609385853303E+01
             -0.610918672288414E+02
             -0.353297506254069E+02
             -0.249286915578309E+02
             -0.734560731870874E+01
              0.569738069036837E+02
              0.369861005619514E+02
             -0.374697249180095E+02
             -0.351523091283107E+02
              0.258112424374407E+02
              0.281135982184355E+02
             -0.759512652199355E+02
              0.177082363709191E+02
              0.544654778414200E+02
             -0.242419504030053E+01
              0.686123343491349E+02
              0.316862670318747E+02
              0.539858708150877E+02
              0.820720578185336E+02
              0.123720465935741E+02
             -0.111839450152381E+03
              0.154282250883509E+02
              0.120911925098755E+03
              0.878931075622236E+02
             -0.606003725587304E+02
              0.547072258974534E+01
              0.786584618740984E+02
              0.681698034627361E+02
              0.299654490600020E+02
             -0.181299754244531E+02
              0.300928855482868E+02
              0.623146369623764E+02
             -0.288075508671870E+02
             -0.185405912464356E+02
              0.422038843366120E+02
             -0.253802245607716E+01
              0.378877802238477E+02
             -0.117224363855912E+02
              0.790151994269758E+02
             -0.301448720999238E+02
              0.181333287917197E+02
             -0.334837933955213E+02
              0.391090913856242E+02
             -0.530392630109122E+01
              0.582680322291491E+02
              0.415825029409018E+01
              0.260881636264520E+02
             -0.370549340319266E+02
             -0.259169448740598E+02
             -0.132167344175900E+02
             -0.120395496936331E+02
              0.634409529877147E+02
              0.312241379033684E+02
              0.769902954537227E+02
              0.710527283388523E+02
              0.199323310865441E+02
              0.357805815068097E+01
              0.757254813241920E+02
              0.425603010592430E+02
              0.716318884829548E-01
              0.737561435842409E+02
             -0.605326094168647E+02
              0.212220055791180E+02
             -0.394440464236718E+02
             -0.106955891698038E+02
              0.101979586283331E+03
             -0.142815996173118E+02
             -0.425403572202583E+01
             -0.110983990476969E+02
              0.837790473062682E+02
             -0.179892369240053E+02
             -0.153792332346222E+01
              0.169022808270777E+03
             -0.500261325062381E+02
             -0.624453436278909E+02
             -0.625015430143263E+02
             -0.399255362201870E+02
              0.364027811533138E+02
             -0.163407233201601E+02
              0.926135375736163E+01
             -0.423619847489772E+01
              0.214197100881722E+02
              0.344002016671285E+02
              0.400907045993606E+02
              0.577023418756912E+02
              0.369647091871292E+02
              0.376829284678407E+02
             -0.697407868418209E+02
             -0.720231212699789E+02
             -0.162361722988216E+02
             -0.643775982015929E+02
              0.102212128590119E+03
              0.861007907784986E+02
              0.406125790999258E+02
              0.111945944743676E+03
             -0.559404702079870E+02
             -0.240964492682527E+02
             -0.347344464867007E+02
              0.968499621094181E+02
 
 BEEF-vdW xc energy contributions
            1 :    -875.4207748395403     
            2 :     802.1470325403827     
            3 :    -677.2347132288756     
            4 :     533.9969440564773     
            5 :    -403.7677732177909     
            6 :     305.8216370363789     
            7 :    -244.2516987966980     
            8 :     210.8643084351298     
            9 :    -191.3785813336045     
           10 :     172.2885064327567     
           11 :    -146.0273640941879     
           12 :     112.6205785471781     
           13 :    -77.55435124829580     
           14 :     47.55293837354827     
           15 :    -26.82036983096316     
           16 :     15.46826481813878     
           17 :    -10.26472302512514     
           18 :     6.745000483239323     
           19 :    -1.475287509945815     
           20 :    -6.512033901890277     
           21 :     15.66860441042365     
           22 :    -23.19606964259037     
           23 :     26.87356972296595     
           24 :    -26.38752790592764     
           25 :     23.45903969425433     
           26 :    -20.82394217430613     
           27 :     20.73861768303721     
           28 :    -23.83200150756807     
           29 :     28.85323276253018     
           30 :    -33.39264672715296     
           31 :    -75.36161298516652     
           32 :    -54.21832370282971     

     Writing all to output data dir ./PbI2.save/
 
     init_run     :      3.64s CPU      5.99s WALL (       1 calls)
     electrons    :     18.72s CPU     20.31s WALL (       1 calls)
     forces       :      0.75s CPU      0.76s WALL (       1 calls)
     stress       :      2.09s CPU      2.12s WALL (       1 calls)

     Called by init_run:
     wfcinit      :      2.68s CPU      4.90s WALL (       1 calls)
     potinit      :      0.46s CPU      0.52s WALL (       1 calls)
     hinit0       :      0.24s CPU      0.26s WALL (       1 calls)

     Called by electrons:
     c_bands      :     16.95s CPU     18.37s WALL (       2 calls)
     sum_band     :      1.28s CPU      1.30s WALL (       2 calls)
     v_of_rho     :      0.47s CPU      0.49s WALL (       2 calls)
     v_h          :      0.00s CPU      0.00s WALL (       2 calls)
     v_xc         :      4.05s CPU      4.15s WALL (      38 calls)
     newd         :      0.10s CPU      0.11s WALL (       2 calls)
     PAW_pot      :      0.16s CPU      0.16s WALL (       2 calls)
     mix_rho      :      0.00s CPU      0.00s WALL (       2 calls)
     vdW_kernel   :      0.25s CPU      0.26s WALL (       1 calls)

     Called by c_bands:
     init_us_2    :      0.05s CPU      0.06s WALL (      24 calls)
     init_us_2:cp :      0.05s CPU      0.06s WALL (      24 calls)
     cegterg      :     16.75s CPU     17.02s WALL (       8 calls)

     Called by sum_band:
     sum_band:wei :      0.00s CPU      0.00s WALL (       2 calls)
     sum_band:loo :      1.10s CPU      1.12s WALL (       2 calls)
     sum_band:buf :      0.02s CPU      0.02s WALL (       8 calls)
     sum_band:ini :      0.02s CPU      0.02s WALL (       8 calls)
     sum_band:cal :      0.15s CPU      0.15s WALL (       8 calls)
     sum_band:bec :      0.01s CPU      0.01s WALL (       8 calls)
     addusdens    :      0.16s CPU      0.16s WALL (       2 calls)
     addusd:skk   :      0.00s CPU      0.00s WALL (       4 calls)
     addusd:dgemm :      0.11s CPU      0.11s WALL (       4 calls)
     addusd:qvan2 :      0.04s CPU      0.05s WALL (       4 calls)

     Called by *egterg:
     cdiaghg      :      9.26s CPU      9.32s WALL (      70 calls)
     cegterg:over :      0.69s CPU      0.75s WALL (      70 calls)
     cegterg:upda :      0.47s CPU      0.48s WALL (      70 calls)
     cegterg:last :      0.13s CPU      0.13s WALL (       8 calls)
     h_psi        :      5.43s CPU      5.52s WALL (      78 calls)
     s_psi        :      0.33s CPU      0.34s WALL (      78 calls)
     g_psi        :      0.00s CPU      0.00s WALL (      70 calls)

     Called by h_psi:
     h_psi:calbec :      0.51s CPU      0.52s WALL (      78 calls)
     vloc_psi     :      4.54s CPU      4.61s WALL (      78 calls)
     add_vuspsi   :      0.36s CPU      0.36s WALL (      78 calls)

     General routines
     calbec       :      1.07s CPU      1.09s WALL (     106 calls)
     fft          :      2.55s CPU      2.60s WALL (    2232 calls)
     ffts         :      0.01s CPU      0.01s WALL (       4 calls)
     fftw         :      5.33s CPU      5.41s WALL (    9016 calls)
     interpolate  :      0.01s CPU      0.01s WALL (       2 calls)
 
     Parallel routines

     PAW routines
     PAW_pot      :      0.16s CPU      0.16s WALL (       2 calls)
     PAW_symme    :      0.00s CPU      0.00s WALL (       3 calls)
 
     PWSCF        :     31.58s CPU     39.13s WALL

 
   This run was terminated on:   7:50:32  21Feb2024            

=------------------------------------------------------------------------------=
   JOB DONE.
=------------------------------------------------------------------------------=
