
     Program PWSCF v.7.1 starts on 19Mar2024 at 23: 8:28 

     This program is part of the open-source Quantum ESPRESSO suite
     for quantum simulation of materials; please cite
         "P. Giannozzi et al., J. Phys.:Condens. Matter 21 395502 (2009);
         "P. Giannozzi et al., J. Phys.:Condens. Matter 29 465901 (2017);
         "P. Giannozzi et al., J. Chem. Phys. 152 154105 (2020);
          URL http://www.quantum-espresso.org", 
     in publications or presentations arising from this work. More details at
     http://www.quantum-espresso.org/quote

     Parallel version (MPI & OpenMP), running on     180 processor cores
     Number of MPI processes:               180
     Threads/MPI process:                     1

     MPI processes distributed on     2 nodes
     2010000 MiB available memory on the printing compute node when the environment starts
 
     Reading input from espresso.pwi
Warning: card &CELL ignored
Warning: card    CELL_DYNAMICS    = 'BFGS' ignored
Warning: card / ignored

     Current dimensions of program PWSCF are:
     Max number of different atomic species (ntypx) = 10
     Max number of k-points (npk) =  40000
     Max angular momentum in pseudopotentials (lmaxx) =  4
     file Ga.pbe-dn-kjpaw_psl.1.0.0.UPF: wavefunction(s)  4S renormalized
     file N.pbe-n-kjpaw_psl.1.0.0.UPF: wavefunction(s)  2S renormalized

     **************************************************************************
     Initializing libbeef V0.1.2 with the BEEF-vdW functional.
     Citation: Wellendorff et al., PRB 85, 235149 (2012).
     **************************************************************************


     IMPORTANT: XC functional enforced from input :
     Exchange-correlation= BEEF-VDW
                           (   1   4  43  14   2   0   0)
     Any further DFT definition will be discarded
     Please, verify this is what you really want

 
     K-points division:     npool     =       3
     R & G space division:  proc/nbgrp/npool/nimage =      60
     Subspace diagonalization in iterative solution of the eigenvalue problem:
     a serial algorithm will be used

 
     Parallelization info
     --------------------
     sticks:   dense  smooth     PW     G-vecs:    dense   smooth      PW
     Min         378     302     78                44970    32176    4254
     Max         379     303     79                44974    32181    4259
     Sum       22693   18145   4705              2698283  1930731  255309
 
     Using Slab Decomposition
 


     bravais-lattice index     =            4
     lattice parameter (alat)  =      30.6565  a.u.
     unit-cell volume          =   24400.9461 (a.u.)^3
     number of atoms/cell      =          299
     number of atomic types    =            2
     number of electrons       =      2689.00
     number of Kohn-Sham states=         1614
     kinetic-energy cutoff     =      70.0000  Ry
     charge density cutoff     =     350.0000  Ry
     scf convergence threshold =      1.0E-07
     mixing beta               =       0.7000
     number of iterations used =            8  plain     mixing
     energy convergence thresh.=      1.0E-04
     force convergence thresh. =      1.0E-03
     Exchange-correlation= BEEF-VDW
                           (   1   4  43  14   2   0   0)
     nstep                     =           50


     celldm(1)=  30.656540  celldm(2)=   0.000000  celldm(3)=   0.977927
     celldm(4)=   0.000000  celldm(5)=   0.000000  celldm(6)=   0.000000

     crystal axes: (cart. coord. in units of alat)
               a(1) = (   1.000000   0.000000   0.000000 )  
               a(2) = (  -0.500000   0.866025   0.000000 )  
               a(3) = (   0.000000   0.000000   0.977927 )  

     reciprocal axes: (cart. coord. in units 2 pi/alat)
               b(1) = (  1.000000  0.577350 -0.000000 )  
               b(2) = (  0.000000  1.154701  0.000000 )  
               b(3) = (  0.000000 -0.000000  1.022571 )  


     PseudoPot. # 1 for Ga read from file:
     /trace/group/acmegroup/atimmins/packages/espresso/pseudo/psl_1.0.0/pslibrary.1.0.0/pbe/PSEUDOPOTENTIALS/Ga.pbe-dn-kjpaw_psl.1.0.0.UPF
     MD5 check sum: cd2a01e492f15b435d17032472d8505c
     Pseudo is Projector augmented-wave + core cor, Zval = 13.0
     Generated using 'atomic' code by A. Dal Corso  v.7.1
     Shape of augmentation charge: PSQ
     Using radial grid of 1205 points,  6 beta functions with: 
                l(1) =   0
                l(2) =   0
                l(3) =   1
                l(4) =   1
                l(5) =   2
                l(6) =   2
     Q(r) pseudized with 0 coefficients 


     PseudoPot. # 2 for N  read from file:
     /trace/group/acmegroup/atimmins/packages/espresso/pseudo/psl_1.0.0/pslibrary.1.0.0/pbe/PSEUDOPOTENTIALS/N.pbe-n-kjpaw_psl.1.0.0.UPF
     MD5 check sum: f77f775694dac7e2c3fe1c82443d1a16
     Pseudo is Projector augmented-wave + core cor, Zval =  5.0
     Generated using 'atomic' code by A. Dal Corso  v.7.1
     Shape of augmentation charge: PSQ
     Using radial grid of 1085 points,  4 beta functions with: 
                l(1) =   0
                l(2) =   0
                l(3) =   1
                l(4) =   1
     Q(r) pseudized with 0 coefficients 


     atomic species   valence    mass     pseudopotential
        Ga            13.00    69.72300     Ga( 1.00)
        N              5.00    14.00700     N ( 1.00)

      2 Sym. Ops. (no inversion) found


                                    s                        frac. trans.

      isym =  1     identity                                     

 cryst.   s( 1) = (     1          0          0      )
                  (     0          1          0      )
                  (     0          0          1      )

 cart.    s( 1) = (  1.0000000  0.0000000  0.0000000 )
                  (  0.0000000  1.0000000  0.0000000 )
                  (  0.0000000  0.0000000  1.0000000 )


      isym =  2     inv. 180 deg rotation - cryst. axis [0,1,0]  

 cryst.   s( 2) = (     1          1          0      )
                  (     0         -1          0      )
                  (     0          0          1      )

 cart.    s( 2) = (  0.5000000  0.8660254  0.0000000 )
                  (  0.8660254 -0.5000000  0.0000000 )
                  (  0.0000000  0.0000000  1.0000000 )


     point group C_s (m)    
     there are  2 classes
     the character table:

       E     s    
A'     1.00  1.00
A''    1.00 -1.00

     the symmetry operations in each class and the name of the first element:

     E        1
          identity                                               
     s        2
          inv. 180 deg rotation - cryst. axis [0,1,0]            

   Cartesian axes

     site n.     atom                  positions (alat units)
         1           Ga  tau(   1) = (   0.1000001   0.0577350   0.4886906  )
         2           Ga  tau(   2) = (   0.1000001   0.0577350   0.8146665  )
         3           Ga  tau(   3) = (   0.0000001   0.2309401   0.1627148  )
         4           Ga  tau(   4) = (   0.0000001   0.2309401   0.4886906  )
         5           Ga  tau(   5) = (   0.0000001   0.2309401   0.8146665  )
         6           Ga  tau(   6) = (  -0.0999999   0.4041451   0.1627148  )
         7           Ga  tau(   7) = (  -0.0999999   0.4041451   0.4886906  )
         8           Ga  tau(   8) = (  -0.0999999   0.4041451   0.8146665  )
         9           Ga  tau(   9) = (  -0.1999999   0.5773502   0.1627148  )
        10           Ga  tau(  10) = (  -0.1999999   0.5773502   0.4886906  )
        11           Ga  tau(  11) = (  -0.1999999   0.5773502   0.8146665  )
        12           Ga  tau(  12) = (  -0.2999999   0.7505553   0.1627148  )
        13           Ga  tau(  13) = (  -0.2999999   0.7505553   0.4886906  )
        14           Ga  tau(  14) = (  -0.2999999   0.7505553   0.8146665  )
        15           Ga  tau(  15) = (   0.3000001   0.0577350   0.1627148  )
        16           Ga  tau(  16) = (   0.3000001   0.0577350   0.4886906  )
        17           Ga  tau(  17) = (   0.3000001   0.0577350   0.8146665  )
        18           Ga  tau(  18) = (   0.2000001   0.2309401   0.1627148  )
        19           Ga  tau(  19) = (   0.2000001   0.2309401   0.4886906  )
        20           Ga  tau(  20) = (   0.2000001   0.2309401   0.8146665  )
        21           Ga  tau(  21) = (   0.1000001   0.4041451   0.1627148  )
        22           Ga  tau(  22) = (   0.1000001   0.4041451   0.4886906  )
        23           Ga  tau(  23) = (   0.1000001   0.4041451   0.8146665  )
        24           Ga  tau(  24) = (   0.0000001   0.5773502   0.1627148  )
        25           Ga  tau(  25) = (   0.0000001   0.5773502   0.4886906  )
        26           Ga  tau(  26) = (   0.0000001   0.5773502   0.8146665  )
        27           Ga  tau(  27) = (  -0.0999999   0.7505553   0.1627148  )
        28           Ga  tau(  28) = (  -0.0999999   0.7505553   0.4886906  )
        29           Ga  tau(  29) = (  -0.0999999   0.7505553   0.8146665  )
        30           Ga  tau(  30) = (   0.5000001   0.0577350   0.1627148  )
        31           Ga  tau(  31) = (   0.5000001   0.0577350   0.4886906  )
        32           Ga  tau(  32) = (   0.5000001   0.0577350   0.8146665  )
        33           Ga  tau(  33) = (   0.4000001   0.2309401   0.1627148  )
        34           Ga  tau(  34) = (   0.4000001   0.2309401   0.4886906  )
        35           Ga  tau(  35) = (   0.4000001   0.2309401   0.8146665  )
        36           Ga  tau(  36) = (   0.3000001   0.4041451   0.1627148  )
        37           Ga  tau(  37) = (   0.3000001   0.4041451   0.4886906  )
        38           Ga  tau(  38) = (   0.3000001   0.4041451   0.8146665  )
        39           Ga  tau(  39) = (   0.2000001   0.5773502   0.1627148  )
        40           Ga  tau(  40) = (   0.2000001   0.5773502   0.4886906  )
        41           Ga  tau(  41) = (   0.2000001   0.5773502   0.8146665  )
        42           Ga  tau(  42) = (   0.1000001   0.7505553   0.1627148  )
        43           Ga  tau(  43) = (   0.1000001   0.7505553   0.4886906  )
        44           Ga  tau(  44) = (   0.1000001   0.7505553   0.8146665  )
        45           Ga  tau(  45) = (   0.7000001   0.0577350   0.1627148  )
        46           Ga  tau(  46) = (   0.7000001   0.0577350   0.4886906  )
        47           Ga  tau(  47) = (   0.7000001   0.0577350   0.8146665  )
        48           Ga  tau(  48) = (   0.6000001   0.2309401   0.1627148  )
        49           Ga  tau(  49) = (   0.6000001   0.2309401   0.4886906  )
        50           Ga  tau(  50) = (   0.6000001   0.2309401   0.8146665  )
        51           Ga  tau(  51) = (   0.5000001   0.4041451   0.1627148  )
        52           Ga  tau(  52) = (   0.5000001   0.4041451   0.4886906  )
        53           Ga  tau(  53) = (   0.5000001   0.4041451   0.8146665  )
        54           Ga  tau(  54) = (   0.4000001   0.5773502   0.1627148  )
        55           Ga  tau(  55) = (   0.4000001   0.5773502   0.4886906  )
        56           Ga  tau(  56) = (   0.4000001   0.5773502   0.8146665  )
        57           Ga  tau(  57) = (   0.3000001   0.7505553   0.1627148  )
        58           Ga  tau(  58) = (   0.3000001   0.7505553   0.4886906  )
        59           Ga  tau(  59) = (   0.3000001   0.7505553   0.8146665  )
        60           Ga  tau(  60) = (   0.9000001   0.0577350   0.1627148  )
        61           Ga  tau(  61) = (   0.9000001   0.0577350   0.4886906  )
        62           Ga  tau(  62) = (   0.9000001   0.0577350   0.8146665  )
        63           Ga  tau(  63) = (   0.8000001   0.2309401   0.1627148  )
        64           Ga  tau(  64) = (   0.8000001   0.2309401   0.4886906  )
        65           Ga  tau(  65) = (   0.8000001   0.2309401   0.8146665  )
        66           Ga  tau(  66) = (   0.7000001   0.4041451   0.1627148  )
        67           Ga  tau(  67) = (   0.7000001   0.4041451   0.4886906  )
        68           Ga  tau(  68) = (   0.7000001   0.4041451   0.8146665  )
        69           Ga  tau(  69) = (   0.6000001   0.5773502   0.1627148  )
        70           Ga  tau(  70) = (   0.6000001   0.5773502   0.4886906  )
        71           Ga  tau(  71) = (   0.6000001   0.5773502   0.8146665  )
        72           Ga  tau(  72) = (   0.5000001   0.7505553   0.1627148  )
        73           Ga  tau(  73) = (   0.5000001   0.7505553   0.4886906  )
        74           Ga  tau(  74) = (   0.5000001   0.7505553   0.8146665  )
        75           Ga  tau(  75) = (  -0.0000001   0.1154701   0.3257027  )
        76           Ga  tau(  76) = (  -0.0000001   0.1154701   0.6516786  )
        77           Ga  tau(  77) = (  -0.0000001   0.1154701   0.9776544  )
        78           Ga  tau(  78) = (  -0.1000001   0.2886752   0.3257027  )
        79           Ga  tau(  79) = (  -0.1000001   0.2886752   0.6516786  )
        80           Ga  tau(  80) = (  -0.1000001   0.2886752   0.9776544  )
        81           Ga  tau(  81) = (  -0.2000001   0.4618803   0.3257027  )
        82           Ga  tau(  82) = (  -0.2000001   0.4618803   0.6516786  )
        83           Ga  tau(  83) = (  -0.2000001   0.4618803   0.9776544  )
        84           Ga  tau(  84) = (  -0.3000001   0.6350854   0.3257027  )
        85           Ga  tau(  85) = (  -0.3000001   0.6350854   0.6516786  )
        86           Ga  tau(  86) = (  -0.3000001   0.6350854   0.9776544  )
        87           Ga  tau(  87) = (  -0.4000001   0.8082905   0.3257027  )
        88           Ga  tau(  88) = (  -0.4000001   0.8082905   0.6516786  )
        89           Ga  tau(  89) = (  -0.4000001   0.8082905   0.9776544  )
        90           Ga  tau(  90) = (   0.1999999   0.1154701   0.3257027  )
        91           Ga  tau(  91) = (   0.1999999   0.1154701   0.6516786  )
        92           Ga  tau(  92) = (   0.1999999   0.1154701   0.9776544  )
        93           Ga  tau(  93) = (   0.0999999   0.2886752   0.3257027  )
        94           Ga  tau(  94) = (   0.0999999   0.2886752   0.6516786  )
        95           Ga  tau(  95) = (   0.0999999   0.2886752   0.9776544  )
        96           Ga  tau(  96) = (  -0.0000001   0.4618803   0.3257027  )
        97           Ga  tau(  97) = (  -0.0000001   0.4618803   0.6516786  )
        98           Ga  tau(  98) = (  -0.0000001   0.4618803   0.9776544  )
        99           Ga  tau(  99) = (  -0.1000001   0.6350854   0.3257027  )
       100           Ga  tau( 100) = (  -0.1000001   0.6350854   0.6516786  )
       101           Ga  tau( 101) = (  -0.1000001   0.6350854   0.9776544  )
       102           Ga  tau( 102) = (  -0.2000001   0.8082905   0.3257027  )
       103           Ga  tau( 103) = (  -0.2000001   0.8082905   0.6516786  )
       104           Ga  tau( 104) = (  -0.2000001   0.8082905   0.9776544  )
       105           Ga  tau( 105) = (   0.3999999   0.1154701   0.3257027  )
       106           Ga  tau( 106) = (   0.3999999   0.1154701   0.6516786  )
       107           Ga  tau( 107) = (   0.3999999   0.1154701   0.9776544  )
       108           Ga  tau( 108) = (   0.2999999   0.2886752   0.3257027  )
       109           Ga  tau( 109) = (   0.2999999   0.2886752   0.6516786  )
       110           Ga  tau( 110) = (   0.2999999   0.2886752   0.9776544  )
       111           Ga  tau( 111) = (   0.1999999   0.4618803   0.3257027  )
       112           Ga  tau( 112) = (   0.1999999   0.4618803   0.6516786  )
       113           Ga  tau( 113) = (   0.1999999   0.4618803   0.9776544  )
       114           Ga  tau( 114) = (   0.0999999   0.6350854   0.3257027  )
       115           Ga  tau( 115) = (   0.0999999   0.6350854   0.6516786  )
       116           Ga  tau( 116) = (   0.0999999   0.6350854   0.9776544  )
       117           Ga  tau( 117) = (  -0.0000001   0.8082905   0.3257027  )
       118           Ga  tau( 118) = (  -0.0000001   0.8082905   0.6516786  )
       119           Ga  tau( 119) = (  -0.0000001   0.8082905   0.9776544  )
       120           Ga  tau( 120) = (   0.5999999   0.1154701   0.3257027  )
       121           Ga  tau( 121) = (   0.5999999   0.1154701   0.6516786  )
       122           Ga  tau( 122) = (   0.5999999   0.1154701   0.9776544  )
       123           Ga  tau( 123) = (   0.4999999   0.2886752   0.3257027  )
       124           Ga  tau( 124) = (   0.4999999   0.2886752   0.6516786  )
       125           Ga  tau( 125) = (   0.4999999   0.2886752   0.9776544  )
       126           Ga  tau( 126) = (   0.3999999   0.4618803   0.3257027  )
       127           Ga  tau( 127) = (   0.3999999   0.4618803   0.6516786  )
       128           Ga  tau( 128) = (   0.3999999   0.4618803   0.9776544  )
       129           Ga  tau( 129) = (   0.2999999   0.6350854   0.3257027  )
       130           Ga  tau( 130) = (   0.2999999   0.6350854   0.6516786  )
       131           Ga  tau( 131) = (   0.2999999   0.6350854   0.9776544  )
       132           Ga  tau( 132) = (   0.1999999   0.8082905   0.3257027  )
       133           Ga  tau( 133) = (   0.1999999   0.8082905   0.6516786  )
       134           Ga  tau( 134) = (   0.1999999   0.8082905   0.9776544  )
       135           Ga  tau( 135) = (   0.7999999   0.1154701   0.3257027  )
       136           Ga  tau( 136) = (   0.7999999   0.1154701   0.6516786  )
       137           Ga  tau( 137) = (   0.7999999   0.1154701   0.9776544  )
       138           Ga  tau( 138) = (   0.6999999   0.2886752   0.3257027  )
       139           Ga  tau( 139) = (   0.6999999   0.2886752   0.6516786  )
       140           Ga  tau( 140) = (   0.6999999   0.2886752   0.9776544  )
       141           Ga  tau( 141) = (   0.5999999   0.4618803   0.3257027  )
       142           Ga  tau( 142) = (   0.5999999   0.4618803   0.6516786  )
       143           Ga  tau( 143) = (   0.5999999   0.4618803   0.9776544  )
       144           Ga  tau( 144) = (   0.4999999   0.6350854   0.3257027  )
       145           Ga  tau( 145) = (   0.4999999   0.6350854   0.6516786  )
       146           Ga  tau( 146) = (   0.4999999   0.6350854   0.9776544  )
       147           Ga  tau( 147) = (   0.3999999   0.8082905   0.3257027  )
       148           Ga  tau( 148) = (   0.3999999   0.8082905   0.6516786  )
       149           Ga  tau( 149) = (   0.3999999   0.8082905   0.9776544  )
       150           N   tau( 150) = (   0.1000001   0.0577350   0.2855019  )
       151           N   tau( 151) = (   0.1000001   0.0577350   0.6114777  )
       152           N   tau( 152) = (   0.1000001   0.0577350   0.9374535  )
       153           N   tau( 153) = (   0.0000001   0.2309401   0.2855019  )
       154           N   tau( 154) = (   0.0000001   0.2309401   0.6114777  )
       155           N   tau( 155) = (   0.0000001   0.2309401   0.9374535  )
       156           N   tau( 156) = (  -0.0999999   0.4041451   0.2855019  )
       157           N   tau( 157) = (  -0.0999999   0.4041451   0.6114777  )
       158           N   tau( 158) = (  -0.0999999   0.4041451   0.9374535  )
       159           N   tau( 159) = (  -0.1999999   0.5773502   0.2855019  )
       160           N   tau( 160) = (  -0.1999999   0.5773502   0.6114777  )
       161           N   tau( 161) = (  -0.1999999   0.5773502   0.9374535  )
       162           N   tau( 162) = (  -0.2999999   0.7505553   0.2855019  )
       163           N   tau( 163) = (  -0.2999999   0.7505553   0.6114777  )
       164           N   tau( 164) = (  -0.2999999   0.7505553   0.9374535  )
       165           N   tau( 165) = (   0.3000001   0.0577350   0.2855019  )
       166           N   tau( 166) = (   0.3000001   0.0577350   0.6114777  )
       167           N   tau( 167) = (   0.3000001   0.0577350   0.9374535  )
       168           N   tau( 168) = (   0.2000001   0.2309401   0.2855019  )
       169           N   tau( 169) = (   0.2000001   0.2309401   0.6114777  )
       170           N   tau( 170) = (   0.2000001   0.2309401   0.9374535  )
       171           N   tau( 171) = (   0.1000001   0.4041451   0.2855019  )
       172           N   tau( 172) = (   0.1000001   0.4041451   0.6114777  )
       173           N   tau( 173) = (   0.1000001   0.4041451   0.9374535  )
       174           N   tau( 174) = (   0.0000001   0.5773502   0.2855019  )
       175           N   tau( 175) = (   0.0000001   0.5773502   0.6114777  )
       176           N   tau( 176) = (   0.0000001   0.5773502   0.9374535  )
       177           N   tau( 177) = (  -0.0999999   0.7505553   0.2855019  )
       178           N   tau( 178) = (  -0.0999999   0.7505553   0.6114777  )
       179           N   tau( 179) = (  -0.0999999   0.7505553   0.9374535  )
       180           N   tau( 180) = (   0.5000001   0.0577350   0.2855019  )
       181           N   tau( 181) = (   0.5000001   0.0577350   0.6114777  )
       182           N   tau( 182) = (   0.5000001   0.0577350   0.9374535  )
       183           N   tau( 183) = (   0.4000001   0.2309401   0.2855019  )
       184           N   tau( 184) = (   0.4000001   0.2309401   0.6114777  )
       185           N   tau( 185) = (   0.4000001   0.2309401   0.9374535  )
       186           N   tau( 186) = (   0.3000001   0.4041451   0.2855019  )
       187           N   tau( 187) = (   0.3000001   0.4041451   0.6114777  )
       188           N   tau( 188) = (   0.3000001   0.4041451   0.9374535  )
       189           N   tau( 189) = (   0.2000001   0.5773502   0.2855019  )
       190           N   tau( 190) = (   0.2000001   0.5773502   0.6114777  )
       191           N   tau( 191) = (   0.2000001   0.5773502   0.9374535  )
       192           N   tau( 192) = (   0.1000001   0.7505553   0.2855019  )
       193           N   tau( 193) = (   0.1000001   0.7505553   0.6114777  )
       194           N   tau( 194) = (   0.1000001   0.7505553   0.9374535  )
       195           N   tau( 195) = (   0.7000001   0.0577350   0.2855019  )
       196           N   tau( 196) = (   0.7000001   0.0577350   0.6114777  )
       197           N   tau( 197) = (   0.7000001   0.0577350   0.9374535  )
       198           N   tau( 198) = (   0.6000001   0.2309401   0.2855019  )
       199           N   tau( 199) = (   0.6000001   0.2309401   0.6114777  )
       200           N   tau( 200) = (   0.6000001   0.2309401   0.9374535  )
       201           N   tau( 201) = (   0.5000001   0.4041451   0.2855019  )
       202           N   tau( 202) = (   0.5000001   0.4041451   0.6114777  )
       203           N   tau( 203) = (   0.5000001   0.4041451   0.9374535  )
       204           N   tau( 204) = (   0.4000001   0.5773502   0.2855019  )
       205           N   tau( 205) = (   0.4000001   0.5773502   0.6114777  )
       206           N   tau( 206) = (   0.4000001   0.5773502   0.9374535  )
       207           N   tau( 207) = (   0.3000001   0.7505553   0.2855019  )
       208           N   tau( 208) = (   0.3000001   0.7505553   0.6114777  )
       209           N   tau( 209) = (   0.3000001   0.7505553   0.9374535  )
       210           N   tau( 210) = (   0.9000001   0.0577350   0.2855019  )
       211           N   tau( 211) = (   0.9000001   0.0577350   0.6114777  )
       212           N   tau( 212) = (   0.9000001   0.0577350   0.9374535  )
       213           N   tau( 213) = (   0.8000001   0.2309401   0.2855019  )
       214           N   tau( 214) = (   0.8000001   0.2309401   0.6114777  )
       215           N   tau( 215) = (   0.8000001   0.2309401   0.9374535  )
       216           N   tau( 216) = (   0.7000001   0.4041451   0.2855019  )
       217           N   tau( 217) = (   0.7000001   0.4041451   0.6114777  )
       218           N   tau( 218) = (   0.7000001   0.4041451   0.9374535  )
       219           N   tau( 219) = (   0.6000001   0.5773502   0.2855019  )
       220           N   tau( 220) = (   0.6000001   0.5773502   0.6114777  )
       221           N   tau( 221) = (   0.6000001   0.5773502   0.9374535  )
       222           N   tau( 222) = (   0.5000001   0.7505553   0.2855019  )
       223           N   tau( 223) = (   0.5000001   0.7505553   0.6114777  )
       224           N   tau( 224) = (   0.5000001   0.7505553   0.9374535  )
       225           N   tau( 225) = (  -0.0000001   0.1154701   0.1225140  )
       226           N   tau( 226) = (  -0.0000001   0.1154701   0.4484898  )
       227           N   tau( 227) = (  -0.0000001   0.1154701   0.7744656  )
       228           N   tau( 228) = (  -0.1000001   0.2886752   0.1225140  )
       229           N   tau( 229) = (  -0.1000001   0.2886752   0.4484898  )
       230           N   tau( 230) = (  -0.1000001   0.2886752   0.7744656  )
       231           N   tau( 231) = (  -0.2000001   0.4618803   0.1225140  )
       232           N   tau( 232) = (  -0.2000001   0.4618803   0.4484898  )
       233           N   tau( 233) = (  -0.2000001   0.4618803   0.7744656  )
       234           N   tau( 234) = (  -0.3000001   0.6350854   0.1225140  )
       235           N   tau( 235) = (  -0.3000001   0.6350854   0.4484898  )
       236           N   tau( 236) = (  -0.3000001   0.6350854   0.7744656  )
       237           N   tau( 237) = (  -0.4000001   0.8082905   0.1225140  )
       238           N   tau( 238) = (  -0.4000001   0.8082905   0.4484898  )
       239           N   tau( 239) = (  -0.4000001   0.8082905   0.7744656  )
       240           N   tau( 240) = (   0.1999999   0.1154701   0.1225140  )
       241           N   tau( 241) = (   0.1999999   0.1154701   0.4484898  )
       242           N   tau( 242) = (   0.1999999   0.1154701   0.7744656  )
       243           N   tau( 243) = (   0.0999999   0.2886752   0.1225140  )
       244           N   tau( 244) = (   0.0999999   0.2886752   0.4484898  )
       245           N   tau( 245) = (   0.0999999   0.2886752   0.7744656  )
       246           N   tau( 246) = (  -0.0000001   0.4618803   0.1225140  )
       247           N   tau( 247) = (  -0.0000001   0.4618803   0.4484898  )
       248           N   tau( 248) = (  -0.0000001   0.4618803   0.7744656  )
       249           N   tau( 249) = (  -0.1000001   0.6350854   0.1225140  )
       250           N   tau( 250) = (  -0.1000001   0.6350854   0.4484898  )
       251           N   tau( 251) = (  -0.1000001   0.6350854   0.7744656  )
       252           N   tau( 252) = (  -0.2000001   0.8082905   0.1225140  )
       253           N   tau( 253) = (  -0.2000001   0.8082905   0.4484898  )
       254           N   tau( 254) = (  -0.2000001   0.8082905   0.7744656  )
       255           N   tau( 255) = (   0.3999999   0.1154701   0.1225140  )
       256           N   tau( 256) = (   0.3999999   0.1154701   0.4484898  )
       257           N   tau( 257) = (   0.3999999   0.1154701   0.7744656  )
       258           N   tau( 258) = (   0.2999999   0.2886752   0.1225140  )
       259           N   tau( 259) = (   0.2999999   0.2886752   0.4484898  )
       260           N   tau( 260) = (   0.2999999   0.2886752   0.7744656  )
       261           N   tau( 261) = (   0.1999999   0.4618803   0.1225140  )
       262           N   tau( 262) = (   0.1999999   0.4618803   0.4484898  )
       263           N   tau( 263) = (   0.1999999   0.4618803   0.7744656  )
       264           N   tau( 264) = (   0.0999999   0.6350854   0.1225140  )
       265           N   tau( 265) = (   0.0999999   0.6350854   0.4484898  )
       266           N   tau( 266) = (   0.0999999   0.6350854   0.7744656  )
       267           N   tau( 267) = (  -0.0000001   0.8082905   0.1225140  )
       268           N   tau( 268) = (  -0.0000001   0.8082905   0.4484898  )
       269           N   tau( 269) = (  -0.0000001   0.8082905   0.7744656  )
       270           N   tau( 270) = (   0.5999999   0.1154701   0.1225140  )
       271           N   tau( 271) = (   0.5999999   0.1154701   0.4484898  )
       272           N   tau( 272) = (   0.5999999   0.1154701   0.7744656  )
       273           N   tau( 273) = (   0.4999999   0.2886752   0.1225140  )
       274           N   tau( 274) = (   0.4999999   0.2886752   0.4484898  )
       275           N   tau( 275) = (   0.4999999   0.2886752   0.7744656  )
       276           N   tau( 276) = (   0.3999999   0.4618803   0.1225140  )
       277           N   tau( 277) = (   0.3999999   0.4618803   0.4484898  )
       278           N   tau( 278) = (   0.3999999   0.4618803   0.7744656  )
       279           N   tau( 279) = (   0.2999999   0.6350854   0.1225140  )
       280           N   tau( 280) = (   0.2999999   0.6350854   0.4484898  )
       281           N   tau( 281) = (   0.2999999   0.6350854   0.7744656  )
       282           N   tau( 282) = (   0.1999999   0.8082905   0.1225140  )
       283           N   tau( 283) = (   0.1999999   0.8082905   0.4484898  )
       284           N   tau( 284) = (   0.1999999   0.8082905   0.7744656  )
       285           N   tau( 285) = (   0.7999999   0.1154701   0.1225140  )
       286           N   tau( 286) = (   0.7999999   0.1154701   0.4484898  )
       287           N   tau( 287) = (   0.7999999   0.1154701   0.7744656  )
       288           N   tau( 288) = (   0.6999999   0.2886752   0.1225140  )
       289           N   tau( 289) = (   0.6999999   0.2886752   0.4484898  )
       290           N   tau( 290) = (   0.6999999   0.2886752   0.7744656  )
       291           N   tau( 291) = (   0.5999999   0.4618803   0.1225140  )
       292           N   tau( 292) = (   0.5999999   0.4618803   0.4484898  )
       293           N   tau( 293) = (   0.5999999   0.4618803   0.7744656  )
       294           N   tau( 294) = (   0.4999999   0.6350854   0.1225140  )
       295           N   tau( 295) = (   0.4999999   0.6350854   0.4484898  )
       296           N   tau( 296) = (   0.4999999   0.6350854   0.7744656  )
       297           N   tau( 297) = (   0.3999999   0.8082905   0.1225140  )
       298           N   tau( 298) = (   0.3999999   0.8082905   0.4484898  )
       299           N   tau( 299) = (   0.3999999   0.8082905   0.7744656  )

   Crystallographic axes

     site n.     atom                  positions (cryst. coord.)
         1           Ga  tau(   1) = (  0.1333334  0.0666666  0.4997208  )
         2           Ga  tau(   2) = (  0.1333334  0.0666666  0.8330541  )
         3           Ga  tau(   3) = (  0.1333334  0.2666666  0.1663874  )
         4           Ga  tau(   4) = (  0.1333334  0.2666666  0.4997208  )
         5           Ga  tau(   5) = (  0.1333334  0.2666666  0.8330541  )
         6           Ga  tau(   6) = (  0.1333334  0.4666666  0.1663874  )
         7           Ga  tau(   7) = (  0.1333334  0.4666666  0.4997208  )
         8           Ga  tau(   8) = (  0.1333334  0.4666666  0.8330541  )
         9           Ga  tau(   9) = (  0.1333334  0.6666666  0.1663874  )
        10           Ga  tau(  10) = (  0.1333334  0.6666666  0.4997208  )
        11           Ga  tau(  11) = (  0.1333334  0.6666666  0.8330541  )
        12           Ga  tau(  12) = (  0.1333334  0.8666666  0.1663874  )
        13           Ga  tau(  13) = (  0.1333334  0.8666666  0.4997208  )
        14           Ga  tau(  14) = (  0.1333334  0.8666666  0.8330541  )
        15           Ga  tau(  15) = (  0.3333334  0.0666666  0.1663874  )
        16           Ga  tau(  16) = (  0.3333334  0.0666666  0.4997208  )
        17           Ga  tau(  17) = (  0.3333334  0.0666666  0.8330541  )
        18           Ga  tau(  18) = (  0.3333334  0.2666666  0.1663874  )
        19           Ga  tau(  19) = (  0.3333334  0.2666666  0.4997208  )
        20           Ga  tau(  20) = (  0.3333334  0.2666666  0.8330541  )
        21           Ga  tau(  21) = (  0.3333334  0.4666666  0.1663874  )
        22           Ga  tau(  22) = (  0.3333334  0.4666666  0.4997208  )
        23           Ga  tau(  23) = (  0.3333334  0.4666666  0.8330541  )
        24           Ga  tau(  24) = (  0.3333334  0.6666666  0.1663874  )
        25           Ga  tau(  25) = (  0.3333334  0.6666666  0.4997208  )
        26           Ga  tau(  26) = (  0.3333334  0.6666666  0.8330541  )
        27           Ga  tau(  27) = (  0.3333334  0.8666666  0.1663874  )
        28           Ga  tau(  28) = (  0.3333334  0.8666666  0.4997208  )
        29           Ga  tau(  29) = (  0.3333334  0.8666666  0.8330541  )
        30           Ga  tau(  30) = (  0.5333334  0.0666666  0.1663874  )
        31           Ga  tau(  31) = (  0.5333334  0.0666666  0.4997208  )
        32           Ga  tau(  32) = (  0.5333334  0.0666666  0.8330541  )
        33           Ga  tau(  33) = (  0.5333334  0.2666666  0.1663874  )
        34           Ga  tau(  34) = (  0.5333334  0.2666666  0.4997208  )
        35           Ga  tau(  35) = (  0.5333334  0.2666666  0.8330541  )
        36           Ga  tau(  36) = (  0.5333334  0.4666666  0.1663874  )
        37           Ga  tau(  37) = (  0.5333334  0.4666666  0.4997208  )
        38           Ga  tau(  38) = (  0.5333334  0.4666666  0.8330541  )
        39           Ga  tau(  39) = (  0.5333334  0.6666666  0.1663874  )
        40           Ga  tau(  40) = (  0.5333334  0.6666666  0.4997208  )
        41           Ga  tau(  41) = (  0.5333334  0.6666666  0.8330541  )
        42           Ga  tau(  42) = (  0.5333334  0.8666666  0.1663874  )
        43           Ga  tau(  43) = (  0.5333334  0.8666666  0.4997208  )
        44           Ga  tau(  44) = (  0.5333334  0.8666666  0.8330541  )
        45           Ga  tau(  45) = (  0.7333334  0.0666666  0.1663874  )
        46           Ga  tau(  46) = (  0.7333334  0.0666666  0.4997208  )
        47           Ga  tau(  47) = (  0.7333334  0.0666666  0.8330541  )
        48           Ga  tau(  48) = (  0.7333334  0.2666666  0.1663874  )
        49           Ga  tau(  49) = (  0.7333334  0.2666666  0.4997208  )
        50           Ga  tau(  50) = (  0.7333334  0.2666666  0.8330541  )
        51           Ga  tau(  51) = (  0.7333334  0.4666666  0.1663874  )
        52           Ga  tau(  52) = (  0.7333334  0.4666666  0.4997208  )
        53           Ga  tau(  53) = (  0.7333334  0.4666666  0.8330541  )
        54           Ga  tau(  54) = (  0.7333334  0.6666666  0.1663874  )
        55           Ga  tau(  55) = (  0.7333334  0.6666666  0.4997208  )
        56           Ga  tau(  56) = (  0.7333334  0.6666666  0.8330541  )
        57           Ga  tau(  57) = (  0.7333334  0.8666666  0.1663874  )
        58           Ga  tau(  58) = (  0.7333334  0.8666666  0.4997208  )
        59           Ga  tau(  59) = (  0.7333334  0.8666666  0.8330541  )
        60           Ga  tau(  60) = (  0.9333334  0.0666666  0.1663874  )
        61           Ga  tau(  61) = (  0.9333334  0.0666666  0.4997208  )
        62           Ga  tau(  62) = (  0.9333334  0.0666666  0.8330541  )
        63           Ga  tau(  63) = (  0.9333334  0.2666666  0.1663874  )
        64           Ga  tau(  64) = (  0.9333334  0.2666666  0.4997208  )
        65           Ga  tau(  65) = (  0.9333334  0.2666666  0.8330541  )
        66           Ga  tau(  66) = (  0.9333334  0.4666666  0.1663874  )
        67           Ga  tau(  67) = (  0.9333334  0.4666666  0.4997208  )
        68           Ga  tau(  68) = (  0.9333334  0.4666666  0.8330541  )
        69           Ga  tau(  69) = (  0.9333334  0.6666666  0.1663874  )
        70           Ga  tau(  70) = (  0.9333334  0.6666666  0.4997208  )
        71           Ga  tau(  71) = (  0.9333334  0.6666666  0.8330541  )
        72           Ga  tau(  72) = (  0.9333334  0.8666666  0.1663874  )
        73           Ga  tau(  73) = (  0.9333334  0.8666666  0.4997208  )
        74           Ga  tau(  74) = (  0.9333334  0.8666666  0.8330541  )
        75           Ga  tau(  75) = (  0.0666666  0.1333334  0.3330541  )
        76           Ga  tau(  76) = (  0.0666666  0.1333334  0.6663874  )
        77           Ga  tau(  77) = (  0.0666666  0.1333334  0.9997208  )
        78           Ga  tau(  78) = (  0.0666666  0.3333334  0.3330541  )
        79           Ga  tau(  79) = (  0.0666666  0.3333334  0.6663874  )
        80           Ga  tau(  80) = (  0.0666666  0.3333334  0.9997208  )
        81           Ga  tau(  81) = (  0.0666666  0.5333334  0.3330541  )
        82           Ga  tau(  82) = (  0.0666666  0.5333334  0.6663874  )
        83           Ga  tau(  83) = (  0.0666666  0.5333334  0.9997208  )
        84           Ga  tau(  84) = (  0.0666666  0.7333334  0.3330541  )
        85           Ga  tau(  85) = (  0.0666666  0.7333334  0.6663874  )
        86           Ga  tau(  86) = (  0.0666666  0.7333334  0.9997208  )
        87           Ga  tau(  87) = (  0.0666666  0.9333334  0.3330541  )
        88           Ga  tau(  88) = (  0.0666666  0.9333334  0.6663874  )
        89           Ga  tau(  89) = (  0.0666666  0.9333334  0.9997208  )
        90           Ga  tau(  90) = (  0.2666666  0.1333334  0.3330541  )
        91           Ga  tau(  91) = (  0.2666666  0.1333334  0.6663874  )
        92           Ga  tau(  92) = (  0.2666666  0.1333334  0.9997208  )
        93           Ga  tau(  93) = (  0.2666666  0.3333334  0.3330541  )
        94           Ga  tau(  94) = (  0.2666666  0.3333334  0.6663874  )
        95           Ga  tau(  95) = (  0.2666666  0.3333334  0.9997208  )
        96           Ga  tau(  96) = (  0.2666666  0.5333334  0.3330541  )
        97           Ga  tau(  97) = (  0.2666666  0.5333334  0.6663874  )
        98           Ga  tau(  98) = (  0.2666666  0.5333334  0.9997208  )
        99           Ga  tau(  99) = (  0.2666666  0.7333334  0.3330541  )
       100           Ga  tau( 100) = (  0.2666666  0.7333334  0.6663874  )
       101           Ga  tau( 101) = (  0.2666666  0.7333334  0.9997208  )
       102           Ga  tau( 102) = (  0.2666666  0.9333334  0.3330541  )
       103           Ga  tau( 103) = (  0.2666666  0.9333334  0.6663874  )
       104           Ga  tau( 104) = (  0.2666666  0.9333334  0.9997208  )
       105           Ga  tau( 105) = (  0.4666666  0.1333334  0.3330541  )
       106           Ga  tau( 106) = (  0.4666666  0.1333334  0.6663874  )
       107           Ga  tau( 107) = (  0.4666666  0.1333334  0.9997208  )
       108           Ga  tau( 108) = (  0.4666666  0.3333334  0.3330541  )
       109           Ga  tau( 109) = (  0.4666666  0.3333334  0.6663874  )
       110           Ga  tau( 110) = (  0.4666666  0.3333334  0.9997208  )
       111           Ga  tau( 111) = (  0.4666666  0.5333334  0.3330541  )
       112           Ga  tau( 112) = (  0.4666666  0.5333334  0.6663874  )
       113           Ga  tau( 113) = (  0.4666666  0.5333334  0.9997208  )
       114           Ga  tau( 114) = (  0.4666666  0.7333334  0.3330541  )
       115           Ga  tau( 115) = (  0.4666666  0.7333334  0.6663874  )
       116           Ga  tau( 116) = (  0.4666666  0.7333334  0.9997208  )
       117           Ga  tau( 117) = (  0.4666666  0.9333334  0.3330541  )
       118           Ga  tau( 118) = (  0.4666666  0.9333334  0.6663874  )
       119           Ga  tau( 119) = (  0.4666666  0.9333334  0.9997208  )
       120           Ga  tau( 120) = (  0.6666666  0.1333334  0.3330541  )
       121           Ga  tau( 121) = (  0.6666666  0.1333334  0.6663874  )
       122           Ga  tau( 122) = (  0.6666666  0.1333334  0.9997208  )
       123           Ga  tau( 123) = (  0.6666666  0.3333334  0.3330541  )
       124           Ga  tau( 124) = (  0.6666666  0.3333334  0.6663874  )
       125           Ga  tau( 125) = (  0.6666666  0.3333334  0.9997208  )
       126           Ga  tau( 126) = (  0.6666666  0.5333334  0.3330541  )
       127           Ga  tau( 127) = (  0.6666666  0.5333334  0.6663874  )
       128           Ga  tau( 128) = (  0.6666666  0.5333334  0.9997208  )
       129           Ga  tau( 129) = (  0.6666666  0.7333334  0.3330541  )
       130           Ga  tau( 130) = (  0.6666666  0.7333334  0.6663874  )
       131           Ga  tau( 131) = (  0.6666666  0.7333334  0.9997208  )
       132           Ga  tau( 132) = (  0.6666666  0.9333334  0.3330541  )
       133           Ga  tau( 133) = (  0.6666666  0.9333334  0.6663874  )
       134           Ga  tau( 134) = (  0.6666666  0.9333334  0.9997208  )
       135           Ga  tau( 135) = (  0.8666666  0.1333334  0.3330541  )
       136           Ga  tau( 136) = (  0.8666666  0.1333334  0.6663874  )
       137           Ga  tau( 137) = (  0.8666666  0.1333334  0.9997208  )
       138           Ga  tau( 138) = (  0.8666666  0.3333334  0.3330541  )
       139           Ga  tau( 139) = (  0.8666666  0.3333334  0.6663874  )
       140           Ga  tau( 140) = (  0.8666666  0.3333334  0.9997208  )
       141           Ga  tau( 141) = (  0.8666666  0.5333334  0.3330541  )
       142           Ga  tau( 142) = (  0.8666666  0.5333334  0.6663874  )
       143           Ga  tau( 143) = (  0.8666666  0.5333334  0.9997208  )
       144           Ga  tau( 144) = (  0.8666666  0.7333334  0.3330541  )
       145           Ga  tau( 145) = (  0.8666666  0.7333334  0.6663874  )
       146           Ga  tau( 146) = (  0.8666666  0.7333334  0.9997208  )
       147           Ga  tau( 147) = (  0.8666666  0.9333334  0.3330541  )
       148           Ga  tau( 148) = (  0.8666666  0.9333334  0.6663874  )
       149           Ga  tau( 149) = (  0.8666666  0.9333334  0.9997208  )
       150           N   tau( 150) = (  0.1333334  0.0666666  0.2919459  )
       151           N   tau( 151) = (  0.1333334  0.0666666  0.6252792  )
       152           N   tau( 152) = (  0.1333334  0.0666666  0.9586126  )
       153           N   tau( 153) = (  0.1333334  0.2666666  0.2919459  )
       154           N   tau( 154) = (  0.1333334  0.2666666  0.6252792  )
       155           N   tau( 155) = (  0.1333334  0.2666666  0.9586126  )
       156           N   tau( 156) = (  0.1333334  0.4666666  0.2919459  )
       157           N   tau( 157) = (  0.1333334  0.4666666  0.6252792  )
       158           N   tau( 158) = (  0.1333334  0.4666666  0.9586126  )
       159           N   tau( 159) = (  0.1333334  0.6666666  0.2919459  )
       160           N   tau( 160) = (  0.1333334  0.6666666  0.6252792  )
       161           N   tau( 161) = (  0.1333334  0.6666666  0.9586126  )
       162           N   tau( 162) = (  0.1333334  0.8666666  0.2919459  )
       163           N   tau( 163) = (  0.1333334  0.8666666  0.6252792  )
       164           N   tau( 164) = (  0.1333334  0.8666666  0.9586126  )
       165           N   tau( 165) = (  0.3333334  0.0666666  0.2919459  )
       166           N   tau( 166) = (  0.3333334  0.0666666  0.6252792  )
       167           N   tau( 167) = (  0.3333334  0.0666666  0.9586126  )
       168           N   tau( 168) = (  0.3333334  0.2666666  0.2919459  )
       169           N   tau( 169) = (  0.3333334  0.2666666  0.6252792  )
       170           N   tau( 170) = (  0.3333334  0.2666666  0.9586126  )
       171           N   tau( 171) = (  0.3333334  0.4666666  0.2919459  )
       172           N   tau( 172) = (  0.3333334  0.4666666  0.6252792  )
       173           N   tau( 173) = (  0.3333334  0.4666666  0.9586126  )
       174           N   tau( 174) = (  0.3333334  0.6666666  0.2919459  )
       175           N   tau( 175) = (  0.3333334  0.6666666  0.6252792  )
       176           N   tau( 176) = (  0.3333334  0.6666666  0.9586126  )
       177           N   tau( 177) = (  0.3333334  0.8666666  0.2919459  )
       178           N   tau( 178) = (  0.3333334  0.8666666  0.6252792  )
       179           N   tau( 179) = (  0.3333334  0.8666666  0.9586126  )
       180           N   tau( 180) = (  0.5333334  0.0666666  0.2919459  )
       181           N   tau( 181) = (  0.5333334  0.0666666  0.6252792  )
       182           N   tau( 182) = (  0.5333334  0.0666666  0.9586126  )
       183           N   tau( 183) = (  0.5333334  0.2666666  0.2919459  )
       184           N   tau( 184) = (  0.5333334  0.2666666  0.6252792  )
       185           N   tau( 185) = (  0.5333334  0.2666666  0.9586126  )
       186           N   tau( 186) = (  0.5333334  0.4666666  0.2919459  )
       187           N   tau( 187) = (  0.5333334  0.4666666  0.6252792  )
       188           N   tau( 188) = (  0.5333334  0.4666666  0.9586126  )
       189           N   tau( 189) = (  0.5333334  0.6666666  0.2919459  )
       190           N   tau( 190) = (  0.5333334  0.6666666  0.6252792  )
       191           N   tau( 191) = (  0.5333334  0.6666666  0.9586126  )
       192           N   tau( 192) = (  0.5333334  0.8666666  0.2919459  )
       193           N   tau( 193) = (  0.5333334  0.8666666  0.6252792  )
       194           N   tau( 194) = (  0.5333334  0.8666666  0.9586126  )
       195           N   tau( 195) = (  0.7333334  0.0666666  0.2919459  )
       196           N   tau( 196) = (  0.7333334  0.0666666  0.6252792  )
       197           N   tau( 197) = (  0.7333334  0.0666666  0.9586126  )
       198           N   tau( 198) = (  0.7333334  0.2666666  0.2919459  )
       199           N   tau( 199) = (  0.7333334  0.2666666  0.6252792  )
       200           N   tau( 200) = (  0.7333334  0.2666666  0.9586126  )
       201           N   tau( 201) = (  0.7333334  0.4666666  0.2919459  )
       202           N   tau( 202) = (  0.7333334  0.4666666  0.6252792  )
       203           N   tau( 203) = (  0.7333334  0.4666666  0.9586126  )
       204           N   tau( 204) = (  0.7333334  0.6666666  0.2919459  )
       205           N   tau( 205) = (  0.7333334  0.6666666  0.6252792  )
       206           N   tau( 206) = (  0.7333334  0.6666666  0.9586126  )
       207           N   tau( 207) = (  0.7333334  0.8666666  0.2919459  )
       208           N   tau( 208) = (  0.7333334  0.8666666  0.6252792  )
       209           N   tau( 209) = (  0.7333334  0.8666666  0.9586126  )
       210           N   tau( 210) = (  0.9333334  0.0666666  0.2919459  )
       211           N   tau( 211) = (  0.9333334  0.0666666  0.6252792  )
       212           N   tau( 212) = (  0.9333334  0.0666666  0.9586126  )
       213           N   tau( 213) = (  0.9333334  0.2666666  0.2919459  )
       214           N   tau( 214) = (  0.9333334  0.2666666  0.6252792  )
       215           N   tau( 215) = (  0.9333334  0.2666666  0.9586126  )
       216           N   tau( 216) = (  0.9333334  0.4666666  0.2919459  )
       217           N   tau( 217) = (  0.9333334  0.4666666  0.6252792  )
       218           N   tau( 218) = (  0.9333334  0.4666666  0.9586126  )
       219           N   tau( 219) = (  0.9333334  0.6666666  0.2919459  )
       220           N   tau( 220) = (  0.9333334  0.6666666  0.6252792  )
       221           N   tau( 221) = (  0.9333334  0.6666666  0.9586126  )
       222           N   tau( 222) = (  0.9333334  0.8666666  0.2919459  )
       223           N   tau( 223) = (  0.9333334  0.8666666  0.6252792  )
       224           N   tau( 224) = (  0.9333334  0.8666666  0.9586126  )
       225           N   tau( 225) = (  0.0666666  0.1333334  0.1252792  )
       226           N   tau( 226) = (  0.0666666  0.1333334  0.4586126  )
       227           N   tau( 227) = (  0.0666666  0.1333334  0.7919459  )
       228           N   tau( 228) = (  0.0666666  0.3333334  0.1252792  )
       229           N   tau( 229) = (  0.0666666  0.3333334  0.4586126  )
       230           N   tau( 230) = (  0.0666666  0.3333334  0.7919459  )
       231           N   tau( 231) = (  0.0666666  0.5333334  0.1252792  )
       232           N   tau( 232) = (  0.0666666  0.5333334  0.4586126  )
       233           N   tau( 233) = (  0.0666666  0.5333334  0.7919459  )
       234           N   tau( 234) = (  0.0666666  0.7333334  0.1252792  )
       235           N   tau( 235) = (  0.0666666  0.7333334  0.4586126  )
       236           N   tau( 236) = (  0.0666666  0.7333334  0.7919459  )
       237           N   tau( 237) = (  0.0666666  0.9333334  0.1252792  )
       238           N   tau( 238) = (  0.0666666  0.9333334  0.4586126  )
       239           N   tau( 239) = (  0.0666666  0.9333334  0.7919459  )
       240           N   tau( 240) = (  0.2666666  0.1333334  0.1252792  )
       241           N   tau( 241) = (  0.2666666  0.1333334  0.4586126  )
       242           N   tau( 242) = (  0.2666666  0.1333334  0.7919459  )
       243           N   tau( 243) = (  0.2666666  0.3333334  0.1252792  )
       244           N   tau( 244) = (  0.2666666  0.3333334  0.4586126  )
       245           N   tau( 245) = (  0.2666666  0.3333334  0.7919459  )
       246           N   tau( 246) = (  0.2666666  0.5333334  0.1252792  )
       247           N   tau( 247) = (  0.2666666  0.5333334  0.4586126  )
       248           N   tau( 248) = (  0.2666666  0.5333334  0.7919459  )
       249           N   tau( 249) = (  0.2666666  0.7333334  0.1252792  )
       250           N   tau( 250) = (  0.2666666  0.7333334  0.4586126  )
       251           N   tau( 251) = (  0.2666666  0.7333334  0.7919459  )
       252           N   tau( 252) = (  0.2666666  0.9333334  0.1252792  )
       253           N   tau( 253) = (  0.2666666  0.9333334  0.4586126  )
       254           N   tau( 254) = (  0.2666666  0.9333334  0.7919459  )
       255           N   tau( 255) = (  0.4666666  0.1333334  0.1252792  )
       256           N   tau( 256) = (  0.4666666  0.1333334  0.4586126  )
       257           N   tau( 257) = (  0.4666666  0.1333334  0.7919459  )
       258           N   tau( 258) = (  0.4666666  0.3333334  0.1252792  )
       259           N   tau( 259) = (  0.4666666  0.3333334  0.4586126  )
       260           N   tau( 260) = (  0.4666666  0.3333334  0.7919459  )
       261           N   tau( 261) = (  0.4666666  0.5333334  0.1252792  )
       262           N   tau( 262) = (  0.4666666  0.5333334  0.4586126  )
       263           N   tau( 263) = (  0.4666666  0.5333334  0.7919459  )
       264           N   tau( 264) = (  0.4666666  0.7333334  0.1252792  )
       265           N   tau( 265) = (  0.4666666  0.7333334  0.4586126  )
       266           N   tau( 266) = (  0.4666666  0.7333334  0.7919459  )
       267           N   tau( 267) = (  0.4666666  0.9333334  0.1252792  )
       268           N   tau( 268) = (  0.4666666  0.9333334  0.4586126  )
       269           N   tau( 269) = (  0.4666666  0.9333334  0.7919459  )
       270           N   tau( 270) = (  0.6666666  0.1333334  0.1252792  )
       271           N   tau( 271) = (  0.6666666  0.1333334  0.4586126  )
       272           N   tau( 272) = (  0.6666666  0.1333334  0.7919459  )
       273           N   tau( 273) = (  0.6666666  0.3333334  0.1252792  )
       274           N   tau( 274) = (  0.6666666  0.3333334  0.4586126  )
       275           N   tau( 275) = (  0.6666666  0.3333334  0.7919459  )
       276           N   tau( 276) = (  0.6666666  0.5333334  0.1252792  )
       277           N   tau( 277) = (  0.6666666  0.5333334  0.4586126  )
       278           N   tau( 278) = (  0.6666666  0.5333334  0.7919459  )
       279           N   tau( 279) = (  0.6666666  0.7333334  0.1252792  )
       280           N   tau( 280) = (  0.6666666  0.7333334  0.4586126  )
       281           N   tau( 281) = (  0.6666666  0.7333334  0.7919459  )
       282           N   tau( 282) = (  0.6666666  0.9333334  0.1252792  )
       283           N   tau( 283) = (  0.6666666  0.9333334  0.4586126  )
       284           N   tau( 284) = (  0.6666666  0.9333334  0.7919459  )
       285           N   tau( 285) = (  0.8666666  0.1333334  0.1252792  )
       286           N   tau( 286) = (  0.8666666  0.1333334  0.4586126  )
       287           N   tau( 287) = (  0.8666666  0.1333334  0.7919459  )
       288           N   tau( 288) = (  0.8666666  0.3333334  0.1252792  )
       289           N   tau( 289) = (  0.8666666  0.3333334  0.4586126  )
       290           N   tau( 290) = (  0.8666666  0.3333334  0.7919459  )
       291           N   tau( 291) = (  0.8666666  0.5333334  0.1252792  )
       292           N   tau( 292) = (  0.8666666  0.5333334  0.4586126  )
       293           N   tau( 293) = (  0.8666666  0.5333334  0.7919459  )
       294           N   tau( 294) = (  0.8666666  0.7333334  0.1252792  )
       295           N   tau( 295) = (  0.8666666  0.7333334  0.4586126  )
       296           N   tau( 296) = (  0.8666666  0.7333334  0.7919459  )
       297           N   tau( 297) = (  0.8666666  0.9333334  0.1252792  )
       298           N   tau( 298) = (  0.8666666  0.9333334  0.4586126  )
       299           N   tau( 299) = (  0.8666666  0.9333334  0.7919459  )

     number of k points=     6  Gaussian smearing, width (Ry)=  0.0100
                       cart. coord. in units 2pi/alat
        k(    1) = (   0.0000000   0.0000000   0.0000000), wk =   0.2500000
        k(    2) = (   0.0000000   0.0000000  -0.5112854), wk =   0.2500000
        k(    3) = (   0.0000000  -0.5773503   0.0000000), wk =   0.5000000
        k(    4) = (   0.0000000  -0.5773503  -0.5112854), wk =   0.5000000
        k(    5) = (  -0.5000000  -0.2886751   0.0000000), wk =   0.2500000
        k(    6) = (  -0.5000000  -0.2886751  -0.5112854), wk =   0.2500000

                       cryst. coord.
        k(    1) = (   0.0000000   0.0000000   0.0000000), wk =   0.2500000
        k(    2) = (   0.0000000   0.0000000  -0.5000000), wk =   0.2500000
        k(    3) = (   0.0000000  -0.5000000   0.0000000), wk =   0.5000000
        k(    4) = (   0.0000000  -0.5000000  -0.5000000), wk =   0.5000000
        k(    5) = (  -0.5000000  -0.0000000   0.0000000), wk =   0.2500000
        k(    6) = (  -0.5000000  -0.0000000  -0.5000000), wk =   0.2500000

     Dense  grid:  2698283 G-vectors     FFT dimensions: ( 192, 192, 180)

     Smooth grid:  1930731 G-vectors     FFT dimensions: ( 180, 180, 160)

     Dynamical RAM for                 wfc:      99.05 MB

     Dynamical RAM for     wfc (w. buffer):     297.16 MB

     Dynamical RAM for           str. fact:       1.37 MB

     Dynamical RAM for           local pot:       0.00 MB

     Dynamical RAM for          nlocal pot:     238.24 MB

     Dynamical RAM for                qrad:       3.00 MB

     Dynamical RAM for          rho,v,vnew:       4.59 MB

     Dynamical RAM for               rhoin:       1.53 MB

     Dynamical RAM for            rho*nmix:      10.98 MB

     Dynamical RAM for           G-vectors:       2.82 MB

     Dynamical RAM for          h,s,v(r/c):    1907.96 MB

     Dynamical RAM for          <psi|beta>:      95.60 MB

     Dynamical RAM for                 psi:     396.21 MB

     Dynamical RAM for                hpsi:     396.21 MB

     Dynamical RAM for                spsi:     396.21 MB

     Dynamical RAM for      wfcinit/wfcrot:     257.74 MB

     Dynamical RAM for           addusdens:      77.31 MB

     Dynamical RAM for          addusforce:     145.94 MB

     Dynamical RAM for         addusstress:      46.20 MB

     Estimated static dynamical RAM per process >     554.99 MB

     Estimated max dynamical RAM per process >       3.67 GB

     Estimated total dynamical RAM >     659.33 GB

     Atomic positions and unit cell read from directory:
     ./GaN.save/
     Atomic positions from file used, from input discarded
 

     Check: negative core charge=   -0.000003

     The initial density is read from file :
     ./GaN.save/charge-density



     %%%%%%%%%%%%%%%%%%%%%%%%%%%%%%%%%%%%%%%%%%%%%%%%%%%%%%%%%%%%%%%%%%%%%%%%
     %                                                                      %
     % You are using vdW-DF, which was implemented by the Thonhauser group. %
     % Please cite the following two papers that made this development      %
     % possible and the two reviews that describe the various versions:     %
     %                                                                      %
     %   T. Thonhauser et al., PRL 115, 136402 (2015).                      %
     %   T. Thonhauser et al., PRB 76, 125112 (2007).                       %
     %   K. Berland et al., Rep. Prog. Phys. 78, 066501 (2015).             %
     %   D.C. Langreth et al., J. Phys.: Condens. Matter 21, 084203 (2009). %
     %                                                                      %
     % If you are calculating stress with vdW-DF, please also cite:         %
     %                                                                      %
     %   R. Sabatini et al., J. Phys.: Condens. Matter 24, 424209 (2012).   %
     %                                                                      %
     %%%%%%%%%%%%%%%%%%%%%%%%%%%%%%%%%%%%%%%%%%%%%%%%%%%%%%%%%%%%%%%%%%%%%%%%

     %%%%%%%%%%%%%%%%%%%%%%%%%%%%%%%%%%%%%%%%%%%%%%%%%%%%%%%%%%%%%%%%%%%%%%%%
     %                                                                      %
     %  vdW-DF NEWS:                                                        %
     %                                                                      %
     %  * vdW-DF3 is now available. DOI: 10.1021/acs.jctc.0c00471           %
     %    use with input_dft = 'vdW-DF3-opt1' or 'vdW-DF3-opt2'             %
     %                                                                      %
     %  * Unscreened and range-separated vdW-DF hybrid functionals          %
     %    DOI: 10.1063/1.4986522 and 10.1088/1361-648X/ac2ad2               %
     %    use with input_dft = 'vdW-DF-cx0' (etc) and 'vdW-DF-ahcx'         %
     %                                                                      %
     %%%%%%%%%%%%%%%%%%%%%%%%%%%%%%%%%%%%%%%%%%%%%%%%%%%%%%%%%%%%%%%%%%%%%%%%


     Carrying out vdW-DF run using the following parameters:
     Nqs    =  20  Npoints =  1024  r_max =  100.000
     q_mesh =  0.00001000  0.04494208  0.09755937  0.15916263
               0.23128650  0.31572767  0.41458969  0.53033537
               0.66584808  0.82450364  1.01025438  1.22772762
               1.48234092  1.78043706  2.12944203  2.53805004
               3.01644009  3.57652955  4.23227104  5.00000000


     -----------------------------------------------
     Non-local corr. energy    =      81.30731628 Ry
     -----------------------------------------------

     Cannot read wfcs: file not found
     Starting wfcs are 1941 randomized atomic wfcs
     Checking if some PAW data can be deallocated... 
       PAW data deallocated on  105 nodes for type:  1
       PAW data deallocated on   74 nodes for type:  2

     total cpu time spent up to now is      128.6 secs

     Self-consistent Calculation

     iteration #  1     ecut=    70.00 Ry     beta= 0.70
     Davidson diagonalization with overlap

---- Real-time Memory Report at c_bands before calling an iterative solver
          1269 MiB given to the printing process from OS
             0 MiB allocation reported by mallinfo(arena+hblkhd)
       1950100 MiB available memory on the node where the printing process lives
------------------
     ethr =  1.00E-05,  avg # of iterations = 27.2


     -----------------------------------------------
     Non-local corr. energy    =      81.29683828 Ry
     -----------------------------------------------


     total cpu time spent up to now is     3931.3 secs

     total energy              =  -46557.34622454 Ry
     estimated scf accuracy    <       2.70530751 Ry

     iteration #  2     ecut=    70.00 Ry     beta= 0.70
     Davidson diagonalization with overlap

---- Real-time Memory Report at c_bands before calling an iterative solver
          3694 MiB given to the printing process from OS
             0 MiB allocation reported by mallinfo(arena+hblkhd)
       1952250 MiB available memory on the node where the printing process lives
------------------
     ethr =  1.01E-04,  avg # of iterations = 10.8


     -----------------------------------------------
     Non-local corr. energy    =      81.28093900 Ry
     -----------------------------------------------


     total cpu time spent up to now is     5949.5 secs

     total energy              =  -46552.77507448 Ry
     estimated scf accuracy    <      41.90414191 Ry

     iteration #  3     ecut=    70.00 Ry     beta= 0.70
     Davidson diagonalization with overlap

---- Real-time Memory Report at c_bands before calling an iterative solver
          3694 MiB given to the printing process from OS
             0 MiB allocation reported by mallinfo(arena+hblkhd)
       1946661 MiB available memory on the node where the printing process lives
------------------
     ethr =  1.01E-04,  avg # of iterations =  9.0


     -----------------------------------------------
     Non-local corr. energy    =      81.28239867 Ry
     -----------------------------------------------


     total cpu time spent up to now is     7818.7 secs

     total energy              =  -46558.20651998 Ry
     estimated scf accuracy    <       1.84245564 Ry

     iteration #  4     ecut=    70.00 Ry     beta= 0.70
     Davidson diagonalization with overlap

---- Real-time Memory Report at c_bands before calling an iterative solver
          3694 MiB given to the printing process from OS
             0 MiB allocation reported by mallinfo(arena+hblkhd)
       1936710 MiB available memory on the node where the printing process lives
------------------
     ethr =  6.85E-05,  avg # of iterations = 11.7


     -----------------------------------------------
     Non-local corr. energy    =      81.28622324 Ry
     -----------------------------------------------


     total cpu time spent up to now is     9404.9 secs

     total energy              =  -46558.27949347 Ry
     estimated scf accuracy    <       0.66967253 Ry

     iteration #  5     ecut=    70.00 Ry     beta= 0.70
     Davidson diagonalization with overlap

---- Real-time Memory Report at c_bands before calling an iterative solver
          3694 MiB given to the printing process from OS
             0 MiB allocation reported by mallinfo(arena+hblkhd)
       1939604 MiB available memory on the node where the printing process lives
------------------
     ethr =  2.49E-05,  avg # of iterations = 12.8


     -----------------------------------------------
     Non-local corr. energy    =      81.29504409 Ry
     -----------------------------------------------


     total cpu time spent up to now is    11073.9 secs

     total energy              =  -46558.34487777 Ry
     estimated scf accuracy    <       0.13615459 Ry

     iteration #  6     ecut=    70.00 Ry     beta= 0.70
     Davidson diagonalization with overlap

---- Real-time Memory Report at c_bands before calling an iterative solver
          3694 MiB given to the printing process from OS
             0 MiB allocation reported by mallinfo(arena+hblkhd)
       1943467 MiB available memory on the node where the printing process lives
------------------
     ethr =  5.06E-06,  avg # of iterations = 15.5


     -----------------------------------------------
     Non-local corr. energy    =      81.30163545 Ry
     -----------------------------------------------


     total cpu time spent up to now is    12821.6 secs

     total energy              =  -46558.32653514 Ry
     estimated scf accuracy    <       0.36976210 Ry

     iteration #  7     ecut=    70.00 Ry     beta= 0.70
     Davidson diagonalization with overlap

---- Real-time Memory Report at c_bands before calling an iterative solver
          3694 MiB given to the printing process from OS
             0 MiB allocation reported by mallinfo(arena+hblkhd)
       1944099 MiB available memory on the node where the printing process lives
------------------
     ethr =  5.06E-06,  avg # of iterations = 14.8


     -----------------------------------------------
     Non-local corr. energy    =      81.31006538 Ry
     -----------------------------------------------


     total cpu time spent up to now is    14448.4 secs

     total energy              =  -46558.34375854 Ry
     estimated scf accuracy    <       0.08451312 Ry

     iteration #  8     ecut=    70.00 Ry     beta= 0.70
     Davidson diagonalization with overlap

---- Real-time Memory Report at c_bands before calling an iterative solver
          3694 MiB given to the printing process from OS
             0 MiB allocation reported by mallinfo(arena+hblkhd)
       1942154 MiB available memory on the node where the printing process lives
------------------
     ethr =  3.14E-06,  avg # of iterations = 16.0


     -----------------------------------------------
     Non-local corr. energy    =      81.31051690 Ry
     -----------------------------------------------


     total cpu time spent up to now is    16438.0 secs

     total energy              =  -46558.34250060 Ry
     estimated scf accuracy    <       0.17936511 Ry

     iteration #  9     ecut=    70.00 Ry     beta= 0.70
     Davidson diagonalization with overlap

---- Real-time Memory Report at c_bands before calling an iterative solver
          3694 MiB given to the printing process from OS
             0 MiB allocation reported by mallinfo(arena+hblkhd)
       1942438 MiB available memory on the node where the printing process lives
------------------
     c_bands:  1 eigenvalues not converged
     ethr =  3.14E-06,  avg # of iterations = 17.3


     -----------------------------------------------
     Non-local corr. energy    =      81.30982167 Ry
     -----------------------------------------------


     total cpu time spent up to now is    17910.7 secs

     total energy              =  -46558.34869999 Ry
     estimated scf accuracy    <       0.04491747 Ry

     iteration # 10     ecut=    70.00 Ry     beta= 0.70
     Davidson diagonalization with overlap

---- Real-time Memory Report at c_bands before calling an iterative solver
          3694 MiB given to the printing process from OS
             0 MiB allocation reported by mallinfo(arena+hblkhd)
       1940014 MiB available memory on the node where the printing process lives
------------------
     ethr =  1.67E-06,  avg # of iterations = 15.0


     -----------------------------------------------
     Non-local corr. energy    =      81.31012303 Ry
     -----------------------------------------------


     total cpu time spent up to now is    19573.8 secs

     total energy              =  -46558.34982186 Ry
     estimated scf accuracy    <       0.00912322 Ry

     iteration # 11     ecut=    70.00 Ry     beta= 0.70
     Davidson diagonalization with overlap

---- Real-time Memory Report at c_bands before calling an iterative solver
          3694 MiB given to the printing process from OS
             0 MiB allocation reported by mallinfo(arena+hblkhd)
       1943228 MiB available memory on the node where the printing process lives
------------------
     ethr =  3.39E-07,  avg # of iterations = 14.8


     -----------------------------------------------
     Non-local corr. energy    =      81.30953682 Ry
     -----------------------------------------------


     total cpu time spent up to now is    21190.1 secs

     total energy              =  -46558.35014322 Ry
     estimated scf accuracy    <       0.00081860 Ry

     iteration # 12     ecut=    70.00 Ry     beta= 0.70
     Davidson diagonalization with overlap

---- Real-time Memory Report at c_bands before calling an iterative solver
          3694 MiB given to the printing process from OS
             0 MiB allocation reported by mallinfo(arena+hblkhd)
       1939515 MiB available memory on the node where the printing process lives
------------------
     ethr =  3.04E-08,  avg # of iterations = 14.0


     -----------------------------------------------
     Non-local corr. energy    =      81.30944264 Ry
     -----------------------------------------------


     total cpu time spent up to now is    24111.4 secs

     total energy              =  -46558.35035635 Ry
     estimated scf accuracy    <       0.00025275 Ry

     iteration # 13     ecut=    70.00 Ry     beta= 0.70
     Davidson diagonalization with overlap

---- Real-time Memory Report at c_bands before calling an iterative solver
          3694 MiB given to the printing process from OS
             0 MiB allocation reported by mallinfo(arena+hblkhd)
       1935979 MiB available memory on the node where the printing process lives
------------------
     ethr =  9.40E-09,  avg # of iterations = 15.2


     -----------------------------------------------
     Non-local corr. energy    =      81.30955604 Ry
     -----------------------------------------------


     total cpu time spent up to now is    25847.7 secs

     total energy              =  -46558.35037306 Ry
     estimated scf accuracy    <       0.00002209 Ry

     iteration # 14     ecut=    70.00 Ry     beta= 0.70
     Davidson diagonalization with overlap

---- Real-time Memory Report at c_bands before calling an iterative solver
          3694 MiB given to the printing process from OS
             0 MiB allocation reported by mallinfo(arena+hblkhd)
       1937911 MiB available memory on the node where the printing process lives
------------------
     ethr =  8.21E-10,  avg # of iterations = 14.2


     -----------------------------------------------
     Non-local corr. energy    =      81.30983251 Ry
     -----------------------------------------------


     total cpu time spent up to now is    29738.4 secs

     total energy              =  -46558.35038323 Ry
     estimated scf accuracy    <       0.00000862 Ry

     iteration # 15     ecut=    70.00 Ry     beta= 0.70
     Davidson diagonalization with overlap

---- Real-time Memory Report at c_bands before calling an iterative solver
          3694 MiB given to the printing process from OS
             0 MiB allocation reported by mallinfo(arena+hblkhd)
       1938372 MiB available memory on the node where the printing process lives
------------------
     c_bands:  1 eigenvalues not converged
     ethr =  3.21E-10,  avg # of iterations = 16.7


     -----------------------------------------------
     Non-local corr. energy    =      81.30997956 Ry
     -----------------------------------------------


     total cpu time spent up to now is    32344.5 secs

     total energy              =  -46558.35038460 Ry
     estimated scf accuracy    <       0.00000210 Ry

     iteration # 16     ecut=    70.00 Ry     beta= 0.70
     Davidson diagonalization with overlap

---- Real-time Memory Report at c_bands before calling an iterative solver
          3694 MiB given to the printing process from OS
             0 MiB allocation reported by mallinfo(arena+hblkhd)
       1937883 MiB available memory on the node where the printing process lives
------------------
     ethr =  7.82E-11,  avg # of iterations = 14.5


     -----------------------------------------------
     Non-local corr. energy    =      81.31002894 Ry
     -----------------------------------------------


     total cpu time spent up to now is    34497.2 secs

     total energy              =  -46558.35038489 Ry
     estimated scf accuracy    <       0.00000035 Ry

     iteration # 17     ecut=    70.00 Ry     beta= 0.70
     Davidson diagonalization with overlap

---- Real-time Memory Report at c_bands before calling an iterative solver
          3694 MiB given to the printing process from OS
             0 MiB allocation reported by mallinfo(arena+hblkhd)
       1940132 MiB available memory on the node where the printing process lives
------------------
     ethr =  1.29E-11,  avg # of iterations = 15.0


     -----------------------------------------------
     Non-local corr. energy    =      81.31006372 Ry
     -----------------------------------------------


     total cpu time spent up to now is    37097.2 secs

     total energy              =  -46558.35038499 Ry
     estimated scf accuracy    <       0.00000015 Ry

     iteration # 18     ecut=    70.00 Ry     beta= 0.70
     Davidson diagonalization with overlap

---- Real-time Memory Report at c_bands before calling an iterative solver
          3694 MiB given to the printing process from OS
             0 MiB allocation reported by mallinfo(arena+hblkhd)
       1938984 MiB available memory on the node where the printing process lives
------------------
     c_bands:  1 eigenvalues not converged
     ethr =  5.44E-12,  avg # of iterations = 16.0


     -----------------------------------------------
     Non-local corr. energy    =      81.31007850 Ry
     -----------------------------------------------


     total cpu time spent up to now is    39562.0 secs

     End of self-consistent calculation

          k = 0.0000 0.0000 0.0000 (241213 PWs)   bands (ev):

    -6.9662  -6.7691  -6.7621  -6.7522  -6.7521  -6.7475  -6.7150  -6.7149
    -6.6712  -6.6330  -6.6220  -6.6169  -6.6167  -6.6025  -6.6023  -6.5822
    -6.5820  -6.5720  -6.5710  -6.5685  -6.5667  -6.5601  -6.5600  -6.5550
    -6.5545  -6.5540  -6.5481  -6.5452  -6.5438  -6.5359  -6.5351  -6.5332
    -6.5248  -6.5244  -6.5237  -6.5205  -6.5202  -6.5188  -6.5122  -6.5110
    -6.5109  -6.5101  -6.5092  -6.5080  -6.5058  -6.5048  -6.5011  -6.5009
    -6.5004  -6.4996  -6.4993  -6.4969  -6.4958  -6.4945  -6.4932  -6.4927
    -6.4927  -6.4922  -6.4921  -6.4904  -6.4883  -6.4880  -6.4844  -6.4838
    -6.4810  -6.4803  -6.4802  -6.4788  -6.4699  -6.4694  -6.4692  -6.4684
    -6.4682  -6.4655  -6.4653  -6.4652  -6.4650  -6.4634  -6.4587  -6.4566
    -6.4557  -6.4540  -6.4537  -6.4530  -6.4518  -6.4516  -6.4478  -6.4473
    -6.4469  -6.4462  -6.4458  -6.4414  -6.4409  -6.4393  -6.4370  -6.4368
    -6.4347  -6.4346  -6.4314  -6.4314  -6.4309  -6.4289  -6.4282  -6.4270
    -6.4241  -6.4239  -6.4172  -6.4171  -6.4162  -6.4145  -6.4111  -6.4110
    -6.4107  -6.4066  -6.4060  -6.4058  -6.4056  -6.4052  -6.3849  -6.3834
    -6.3803  -6.3788  -6.3494  -6.3494  -6.3400  -6.3106  -6.3095  -6.3093
    -6.3038  -6.3030  -6.2895  -6.2877  -6.2874  -6.2797  -6.2713  -6.2704
    -6.2582  -6.2535  -6.2530  -6.2411  -6.2401  -6.2336  -6.2293  -6.2246
    -6.2243  -6.1328  -5.7740  -5.7558  -5.7445  -5.7434  -5.4239  -5.4239
    -5.4143  -5.4079  -5.4078  -5.4077  -5.4061  -5.4018  -5.4018  -5.4015
    -5.4015  -5.4013  -5.3952  -5.3951  -5.3949  -5.3949  -5.3911  -5.3894
    -5.3891  -5.3891  -5.3864  -5.3850  -5.3849  -5.3840  -5.3829  -5.3828
    -5.3782  -5.3781  -5.3780  -5.3766  -5.3766  -5.3739  -5.3732  -5.3732
    -5.3723  -5.3723  -5.3703  -5.3694  -5.3694  -5.3675  -5.3663  -5.3628
    -5.3627  -5.3622  -5.3605  -5.3604  -5.3598  -5.3598  -5.3583  -5.3582
    -5.3572  -5.3572  -5.3553  -5.3550  -5.3538  -5.3538  -5.3521  -5.3521
    -5.3502  -5.3502  -5.3501  -5.3475  -5.3475  -5.3466  -5.3454  -5.3454
    -5.3453  -5.3441  -5.3440  -5.3430  -5.3429  -5.3429  -5.3410  -5.3410
    -5.3402  -5.3402  -5.3401  -5.3362  -5.3361  -5.3354  -5.3352  -5.3352
    -5.3350  -5.3337  -5.3333  -5.3332  -5.3332  -5.3303  -5.3302  -5.3302
    -5.3289  -5.3289  -5.3285  -5.3279  -5.3278  -5.3278  -5.3273  -5.3273
    -5.3265  -5.3249  -5.3240  -5.3239  -5.3230  -5.3230  -5.3220  -5.3189
    -5.3189  -5.3184  -5.3172  -5.3171  -5.3161  -5.3159  -5.3140  -5.3139
    -5.3118  -5.3118  -5.3102  -5.3100  -5.3099  -5.3099  -5.3089  -5.3089
    -5.3079  -5.3078  -5.3072  -5.3070  -5.3056  -5.3053  -5.3053  -5.3050
    -5.3026  -5.3015  -5.3015  -5.3008  -5.3007  -5.3006  -5.2980  -5.2979
    -5.2979  -5.2967  -5.2967  -5.2947  -5.2930  -5.2926  -5.2926  -5.2925
    -5.2923  -5.2923  -5.2898  -5.2897  -5.2875  -5.2875  -5.2863  -5.2863
    -5.2858  -5.2831  -5.2829  -5.2827  -5.2827  -5.2811  -5.2810  -5.2802
    -5.2801  -5.2793  -5.2793  -5.2787  -5.2770  -5.2760  -5.2760  -5.2750
    -5.2747  -5.2739  -5.2739  -5.2736  -5.2736  -5.2735  -5.2710  -5.2710
    -5.2695  -5.2694  -5.2689  -5.2685  -5.2661  -5.2661  -5.2652  -5.2652
    -5.2650  -5.2641  -5.2637  -5.2637  -5.2636  -5.2617  -5.2616  -5.2608
    -5.2608  -5.2594  -5.2593  -5.2572  -5.2572  -5.2567  -5.2556  -5.2554
    -5.2553  -5.2548  -5.2534  -5.2534  -5.2530  -5.2529  -5.2512  -5.2512
    -5.2505  -5.2504  -5.2491  -5.2490  -5.2485  -5.2485  -5.2476  -5.2476
    -5.2463  -5.2462  -5.2462  -5.2455  -5.2432  -5.2432  -5.2423  -5.2423
    -5.2413  -5.2412  -5.2391  -5.2391  -5.2387  -5.2382  -5.2381  -5.2379
    -5.2378  -5.2372  -5.2372  -5.2372  -5.2367  -5.2367  -5.2349  -5.2340
    -5.2324  -5.2319  -5.2319  -5.2316  -5.2316  -5.2313  -5.2313  -5.2311
    -5.2306  -5.2305  -5.2286  -5.2278  -5.2278  -5.2269  -5.2262  -5.2261
    -5.2261  -5.2258  -5.2242  -5.2240  -5.2240  -5.2234  -5.2225  -5.2225
    -5.2206  -5.2206  -5.2203  -5.2201  -5.2180  -5.2180  -5.2170  -5.2165
    -5.2165  -5.2149  -5.2146  -5.2143  -5.2143  -5.2138  -5.2138  -5.2129
    -5.2129  -5.2120  -5.2108  -5.2108  -5.2107  -5.2094  -5.2094  -5.2079
    -5.2078  -5.2077  -5.2060  -5.2060  -5.2058  -5.2058  -5.2056  -5.2056
    -5.2036  -5.2035  -5.2032  -5.2023  -5.2023  -5.2011  -5.2010  -5.2010
    -5.1992  -5.1992  -5.1989  -5.1984  -5.1982  -5.1977  -5.1977  -5.1974
    -5.1959  -5.1959  -5.1954  -5.1954  -5.1943  -5.1943  -5.1926  -5.1926
    -5.1920  -5.1914  -5.1913  -5.1907  -5.1906  -5.1906  -5.1888  -5.1888
    -5.1882  -5.1879  -5.1874  -5.1874  -5.1871  -5.1856  -5.1856  -5.1842
    -5.1842  -5.1840  -5.1838  -5.1834  -5.1834  -5.1817  -5.1817  -5.1815
    -5.1808  -5.1805  -5.1803  -5.1803  -5.1802  -5.1791  -5.1776  -5.1776
    -5.1774  -5.1770  -5.1770  -5.1764  -5.1764  -5.1753  -5.1747  -5.1733
    -5.1733  -5.1725  -5.1725  -5.1719  -5.1714  -5.1713  -5.1701  -5.1701
    -5.1698  -5.1692  -5.1691  -5.1690  -5.1678  -5.1671  -5.1671  -5.1665
    -5.1664  -5.1657  -5.1653  -5.1649  -5.1639  -5.1639  -5.1628  -5.1628
    -5.1623  -5.1617  -5.1617  -5.1586  -5.1586  -5.1581  -5.1576  -5.1572
    -5.1572  -5.1571  -5.1569  -5.1569  -5.1558  -5.1558  -5.1547  -5.1545
    -5.1545  -5.1537  -5.1516  -5.1516  -5.1513  -5.1513  -5.1508  -5.1500
    -5.1500  -5.1496  -5.1494  -5.1494  -5.1491  -5.1491  -5.1474  -5.1458
    -5.1457  -5.1457  -5.1443  -5.1443  -5.1440  -5.1435  -5.1424  -5.1419
    -5.1419  -5.1411  -5.1411  -5.1397  -5.1390  -5.1389  -5.1374  -5.1373
    -5.1368  -5.1365  -5.1341  -5.1340  -5.1339  -5.1323  -5.1322  -5.1317
    -5.1309  -5.1309  -5.1306  -5.1297  -5.1294  -5.1294  -5.1287  -5.1277
    -5.1277  -5.1257  -5.1257  -5.1253  -5.1241  -5.1205  -5.1205  -5.1187
    -5.1187  -5.1186  -5.1175  -5.1155  -5.1154  -5.1139  -5.1139  -5.1129
    -5.1123  -5.1107  -5.1091  -5.1091  -5.1072  -5.1068  -5.1067  -5.1059
    -5.1058  -5.1039  -5.1023  -5.1023  -5.1022  -5.1016  -5.1016  -5.1007
    -5.0986  -5.0985  -5.0972  -5.0952  -5.0951  -5.0945  -5.0936  -5.0936
    -5.0924  -5.0924  -5.0905  -5.0904  -5.0903  -5.0902  -5.0901  -5.0855
    -5.0854  -5.0853  -5.0836  -5.0829  -5.0828  -5.0808  -5.0807  -5.0789
    -5.0781  -5.0754  -5.0754  -5.0747  -5.0746  -5.0727  -5.0708  -5.0708
    -5.0707  -5.0677  -5.0677  -5.0676  -5.0674  -5.0665  -5.0650  -5.0650
    -5.0646  -5.0592  -5.0592  -5.0579  -5.0578  -5.0574  -5.0558  -5.0537
    -5.0536  -5.0535  -5.0500  -5.0500  -5.0451  -5.0450  -5.0426  -5.0412
    -5.0411  -5.0379  -5.0351  -5.0342  -5.0342  -5.0313  -5.0274  -5.0223
    -5.0222  -5.0157  -5.0157  -4.9981  -4.9963  -4.9963  -4.9803  -4.9802
    -4.9667  -4.9571  -4.9434  -4.9433  -4.9255  -4.9253  -4.9226  -4.9226
    -4.9086  -4.9047  -4.8797  -4.8773  -4.8773  -4.8755  -4.8755  -4.8698
    -4.8578  -4.8527  -4.8526  -4.8365  -4.8364  -4.8318  -4.8216  -4.8214
    -4.8129  -4.8128  -4.8033  -4.7958  -4.7954  -4.7837  -4.7835  -4.7814
    -4.7641  -4.7639  -4.7590  -4.7589  -4.7527  -4.7468  -4.7424  -4.7264
    -4.7263  -4.7201  -4.7201  -4.7187  -4.7120  -4.7120  -4.7094  -4.7048
    -4.7047  -4.7041  -4.6901  -4.6898  -4.6818  -4.6799  -4.6796  -4.6761
    -4.6760  -4.6674  -4.6671  -4.6632  -4.6586  -4.6579  -4.4172  -4.4170
    -4.4120  -4.4118  -4.4113  -4.3975  -4.3730  -4.3651  -4.1739  -4.1736
    -4.1705  -4.1703  -4.1665  -4.1614  -4.1547  -4.1546  -4.1493  -4.1492
[...]
Ga            4.8606174975        4.6789039176        5.2766216737
Ga            4.8652151649        4.6818586135       10.5727693636
Ga            4.8539277771        4.6738660390       15.8752540750
Ga            3.2439583660        7.4915754229        5.2820983542
Ga            3.2446362831        7.4920507973       10.5729099808
Ga            3.2445937244        7.4906647452       15.8626829046
Ga            1.6219677690       10.3026507171        5.2829773658
Ga            1.6219757646       10.3026553334       10.5732468691
Ga            1.6219441630       10.3026370882       15.8610661994
Ga           -0.0014995492       13.1128734260        5.2820983542
Ga           -0.0007489044       13.1132228323       10.5729099808
Ga           -0.0019705401       13.1138790014       15.8626829046
Ga            9.7336889288        1.8717432601        5.2831337038
Ga            9.7337961515        1.8722649012       10.5736204134
Ga            9.7337202775        1.8706533002       15.8637701857
Ga            8.1083765218        4.6813760465        5.2781470306
Ga            8.1098815069        4.6822449501       10.5733083892
Ga            8.1067766188        4.6804523421       15.8644243704
Ga            6.4878193570        7.4937542733        5.2831337038
Ga            6.4883247228        7.4935863104       10.5736204134
Ga            6.4868910984        7.4943264021       15.8637701857
Ga            4.8679118346       10.3037332994        5.2822034985
Ga            4.8679193253       10.3030183713       10.5729024725
Ga            4.8690211699       10.3036995626       15.8626636607
Ga            3.2458773456       13.1131794462        5.2822034985
Ga            3.2452619450       13.1135433973       10.5729024725
Ga            3.2464027963       13.1141570271       15.8626636607
Ga           12.9848039763        1.8700251605        5.2770673480
Ga           12.9800755851        1.8727122908       10.5728542852
Ga           12.9927305864        1.8661008112       15.8750038724
Ga           11.3590072029        4.6814909498        5.2783106513
Ga           11.3577242814        4.6823306051       10.5735695441
Ga           11.3606941363        4.6804636217       15.8646115668
Ga            9.7337913715        7.4964473432        5.2783106513
Ga            9.7338770736        7.4949164730       10.5735695441
Ga            9.7337451459        7.4984219345       15.8646115668
Ga            8.1118889629       10.3101615449        5.2770673480
Ga            8.1118518904       10.3047230729       10.5728542852
Ga            8.1124536817       10.3189883652       15.8750038724
Ga            6.4973218355       13.1174377000        5.2786441881
Ga            6.4901189670       13.1132791219       10.5696023848
Ga            6.4959599460       13.1166514127       15.8636488599
N             1.6220204595        0.9364724780        4.8119654688
N             1.6223637965        0.9366707037        9.8997909779
N             1.6221348633        0.9365385290       15.2028137235
N            -0.0022529156        3.7544436960        4.6350515339
N            -0.0009706198        3.7513504119        9.9202468950
N             0.0045415164        3.7516975545       15.1931199608
N            -1.6228920951        6.5610729873        4.6350541310
N            -1.6226005586        6.5577507111        9.9195408930
N            -1.6222789645        6.5555654557       15.2084842759
N            -3.2407599334        9.3633022833        4.6350541310
N            -3.2434913408        9.3652158994        9.9195408930
N            -3.2452230304        9.3665870358       15.2084842759
N            -4.8610526089       12.1701316287        4.6350515339
N            -4.8630903236       12.1727887715        9.9202468950
N            -4.8600336211       12.1773888502       15.1931199608
N             4.8743647736        0.9347961161        4.6349234581
N             4.8716274417        0.9353243082        9.9199636499
N             4.8695178618        0.9305621357       15.1929929174
N             3.2467408446        3.7539234568        4.6349234581
N             3.2458296063        3.7512887619        9.9199636499
N             3.2406506540        3.7518428983       15.1929929174
N             1.6223481323        6.5595639703        4.6344470708
N             1.6223899090        6.5598337924        9.9187783546
N             1.6223707173        6.5602325439       15.2074761216
N             0.0012970114        9.3669518691        4.6331050725
N             0.0004341595        9.3664537014        9.9202593196
N             0.0002821940        9.3663659640       15.2076417393
N            -1.6194466669       12.1745172702        4.6344470708
N            -1.6191921057       12.1744185388        9.9187783546
N            -1.6188563726       12.1742025425       15.2074761216
N             8.1157372611        0.9349037167        4.6349243324
N             8.1127766925        0.9363725610        9.9194020435
N             8.1108953162        0.9371556883       15.2082952061
N             6.4900072155        3.7470059421        4.6297582812
N             6.4900731099        3.7470439862        9.9178022516
N             6.4861234384        3.7447636423       15.2110322277
N             4.8675202732        6.5609805740        4.6349243324
N             4.8673120454        6.5576822243        9.9194020435
N             4.8670495654        6.5556613409       15.2082952061
N             3.2433546484        9.3668976878        4.6332740318
N             3.2442632840        9.3664292314        9.9204420855
N             3.2443321019        9.3663539980       15.2077541957
N             1.6222789075       12.1746832341        4.6332740318
N             1.6223275302       12.1757043638        9.9204420855
N             1.6222967851       12.1758015786       15.2077541957
N            11.3515143605        0.9349634062        4.6349970090
N            11.3546622248        0.9364506544        9.9194317976
N            11.3564227645        0.9370842001       15.2082025001
N             9.7336672124        3.7460986442        4.6313625479
N             9.7337649631        3.7467923486        9.9198693818
N             9.7337056216        3.7465362198       15.2089302816
N             8.1110514709        6.5565515497        4.6313625479
N             8.1117011119        6.5562893520        9.9198693818
N             8.1114496271        6.5563660252       15.2089302816
N             6.4854605155        9.3632158983        4.6349970090
N             6.4883224424        9.3651984047        9.9194317976
N             6.4897513789        9.3664063039       15.2082025001
N             4.8639598412       12.1744115630        4.6345690132
N             4.8640370640       12.1744561476        9.9189851627
N             4.8634475061       12.1741157661       15.2074660982
N            14.5925204307        0.9346642930        4.6349371398
N            14.5958358972        0.9352487093        9.9199786586
N            14.5980343449        0.9302580828       15.1930380075
N            12.9772749337        3.7469192032        4.6296819507
N            12.9772457571        3.7470354219        9.9177020036
N            12.9814645512        3.7444875310       15.2111273780
N            11.3562755547        6.5565472777        4.6311922855
N            11.3557532629        6.5562457324        9.9197149168
N            11.3558665140        6.5563111180       15.2088244718
N             9.7335659566        9.3651879568        4.6296819507
N             9.7336520166        9.3651045798        9.9177020036
N             9.7335548754        9.3700321080       15.2111273780
N             8.1057045109       12.1701590456        4.6349371398
N             8.1078683635       12.1727381157        9.9199786586
N             8.1046455780       12.1771373405       15.1930380075
N            -0.1496395487        1.9586024224        1.9343989987
N            -0.0197732904        1.8849086838        7.2887668908
N             0.0004837100        1.8730277065       12.5523027913
N            -1.6293587275        4.7084896857        1.9935019391
N            -1.6260544322        4.6883412554        7.2753142941
N            -1.6240562490        4.6839662023       12.5607411128
N            -3.2437546266        7.4934245823        1.9881386556
N            -3.2451707706        7.4926069711        7.2771980163
N            -3.2442904295        7.4931152363       12.5639800990
N            -4.8483810453       10.2839998908        1.9935019391
N            -4.8641779501       10.2969357096        7.2753142941
N            -4.8669677656       10.3008537136       12.5607411128
N            -6.4899936833       12.9404179218        1.9343989987
N            -6.4888812038       13.0897322699        7.2887668908
N            -6.4890419318       13.1132158355       12.5523027913
N             3.3925845203        1.9587122649        1.9338384408
N             3.2644645731        1.8847421789        7.2891690153
N             3.2439786981        1.8729146535       12.5525791515
N             1.6217099005        4.6914127157        1.9870398611
N             1.6223689408        4.6856405403        7.2788260551
N             1.6221997041        4.6860396435       12.5553960186
N             0.0011100550        7.4979908494        1.9890796889
N            -0.0001097129        7.4945264914        7.2771521437
N            -0.0002343592        7.4931807413       12.5633198429
N            -1.6173677823       10.3012766947        1.9890796889
N            -1.6209778884       10.3019525237        7.2771521437
N            -1.6222056653       10.3025174519       12.5633198429
N            -3.2376358211       13.1080463972        1.9870398611
N            -3.2423051515       13.1115032306        7.2788260551
N            -3.2420441363       13.1111571157       12.5553960186
N             6.5140884675        1.8664575927        1.9937768647
N             6.4957287711        1.8742444130        7.2752808536
N             6.4908092045        1.8745556348       12.5608843779
N             4.8734416041        4.7081413175        1.9937768647
N             4.8710053402        4.6883479438        7.2752808536
N             4.8688150828        4.6839318633       12.5608843779
N             3.2432683387        7.4979350571        1.9888969278
N             3.2448277565        7.4945829600        7.2770019166
N             3.2449212684        7.4932086287       12.5631769247
N             1.6223469491       10.3028696369        1.9874986858
N             1.6224089890       10.3029054556        7.2771266321
N             1.6223632458       10.3028790458       12.5639112108
N             0.0036630418       13.1090960278        1.9888969278
N             0.0015397495       13.1121225717        7.2770019166
N             0.0003962996       13.1128907210       12.5631769247
N             9.7333170316        1.8723175636        1.9882422262
N             9.7336754518        1.8741490031        7.2773213594
N             9.7337236483        1.8731450502       12.5640029781
N             8.1117419076        4.6833190529        1.9890171255
N             8.1127466907        4.6838991647        7.2744097864
N             8.1111623182        4.6829844268       12.5643838688
N             6.4881307699        7.4931450492        1.9882422262
N             6.4898960531        7.4925397304        7.2773213594
N             6.4890507026        7.4930834463       12.5640029781
N             4.8617056149       10.3012790040        1.9888741702
N             4.8655915943       10.3019805067        7.2770698255
N             4.8667969706       10.3025646539       12.5631503744
N             3.2406487536       13.1090318500        1.9888741702
N             3.2431992624       13.1120464555        7.2770698255
N             3.2443078369       13.1127982684       12.5631503744
N            12.9520402520        1.8663747098        1.9935940973
N            12.9718235411        1.8741770381        7.2756038953
N            12.9766947964        1.8745528456       12.5609847378
N            11.3555235167        4.6832763667        1.9892507081
N            11.3547390493        4.6839139579        7.2745646287
N            11.3563567524        4.6829774446       12.5646318108
N             9.7335957448        7.4925376741        1.9892507081
N             9.7337556812        7.4915395098        7.2745646287
N             9.7337534885        7.4934087384       12.5646318108
N             8.0923457177       10.2836125527        1.9935940973
N             8.1089943768       10.2968442195        7.2756038953
N             8.1117554633       10.3008749466       12.5609847378
N             6.4811163058       13.1080814330        1.9868383254
N             6.4870176608       13.1114885819        7.2788870862
N             6.4867199916       13.1113167225       12.5554241682



     Writing config-only to output data dir ./GaN.save/
     NEW-OLD atomic charge density approx. for the potential

     Check: negative core charge=   -0.000003


     -----------------------------------------------
     Non-local corr. energy    =      81.31063058 Ry
     -----------------------------------------------


     total cpu time spent up to now is   150194.2 secs

     Self-consistent Calculation

     iteration #  1     ecut=    70.00 Ry     beta= 0.70
     Davidson diagonalization with overlap

---- Real-time Memory Report at c_bands before calling an iterative solver
          3694 MiB given to the printing process from OS
             0 MiB allocation reported by mallinfo(arena+hblkhd)
       1940314 MiB available memory on the node where the printing process lives
------------------
     ethr =  1.00E-06,  avg # of iterations =  3.0

     Threshold (ethr) on eigenvalues was too large:
     Diagonalizing with lowered threshold

     Davidson diagonalization with overlap

---- Real-time Memory Report at c_bands before calling an iterative solver
          3694 MiB given to the printing process from OS
             0 MiB allocation reported by mallinfo(arena+hblkhd)
       1945938 MiB available memory on the node where the printing process lives
------------------
     ethr =  8.96E-08,  avg # of iterations =  5.7


     -----------------------------------------------
     Non-local corr. energy    =      81.31038939 Ry
     -----------------------------------------------


     total cpu time spent up to now is   151719.5 secs

     total energy              =  -46558.35063125 Ry
     estimated scf accuracy    <       0.00247520 Ry

     iteration #  2     ecut=    70.00 Ry     beta= 0.70
     Davidson diagonalization with overlap

---- Real-time Memory Report at c_bands before calling an iterative solver
          3694 MiB given to the printing process from OS
             0 MiB allocation reported by mallinfo(arena+hblkhd)
       1932121 MiB available memory on the node where the printing process lives
------------------
     ethr =  9.20E-08,  avg # of iterations = 11.8


     -----------------------------------------------
     Non-local corr. energy    =      81.31045370 Ry
     -----------------------------------------------


     total cpu time spent up to now is   153473.2 secs

     total energy              =  -46558.35125191 Ry
     estimated scf accuracy    <       0.00060284 Ry

     iteration #  3     ecut=    70.00 Ry     beta= 0.70
     Davidson diagonalization with overlap

---- Real-time Memory Report at c_bands before calling an iterative solver
          3694 MiB given to the printing process from OS
             0 MiB allocation reported by mallinfo(arena+hblkhd)
       1935159 MiB available memory on the node where the printing process lives
------------------
     c_bands:  1 eigenvalues not converged

     Maximum CPU time exceeded

     max_seconds     =  154800.00
     elapsed seconds =  155821.72
     Calculation stopped in k-point loop, point #     2
     Calculation stopped in scf loop at iteration #     2

     Writing config to output data dir ./GaN.save/
 
     init_run     :    122.88s CPU    127.06s WALL (       1 calls)
     electrons    : 147249.45s CPU 148691.20s WALL (       6 calls)
     update_pot   :     13.83s CPU     14.12s WALL (       5 calls)
     forces       :    338.28s CPU    343.78s WALL (       5 calls)
     stress       :   6641.57s CPU   6708.62s WALL (       5 calls)

     Called by init_run:
     wfcinit      :    111.27s CPU    114.90s WALL (       1 calls)
     wfcinit:atom :      0.25s CPU      0.46s WALL (       2 calls)
     wfcinit:wfcr :    109.24s CPU    112.16s WALL (       2 calls)
     potinit      :      1.94s CPU      2.20s WALL (       1 calls)
     hinit0       :      1.32s CPU      1.40s WALL (       1 calls)

     Called by electrons:
     c_bands      : 145069.82s CPU 146479.44s WALL (      82 calls)
     sum_band     :   2013.23s CPU   2043.97s WALL (      81 calls)
     v_of_rho     :     78.41s CPU     82.40s WALL (      83 calls)
     v_h          :      0.76s CPU      0.77s WALL (      83 calls)
     v_xc         :     86.89s CPU     91.29s WALL (      93 calls)
     newd         :     22.01s CPU     25.53s WALL (      83 calls)
     PAW_pot      :     62.68s CPU     63.32s WALL (      88 calls)
     mix_rho      :      4.31s CPU      4.52s WALL (      81 calls)
     vdW_kernel   :      0.27s CPU      0.28s WALL (       1 calls)

     Called by c_bands:
     init_us_2    :     89.59s CPU     91.11s WALL (     358 calls)
     init_us_2:cp :     89.58s CPU     91.11s WALL (     358 calls)
     cegterg      : 124548.84s CPU 125800.40s WALL (     166 calls)

     Called by sum_band:
     sum_band:wei :      0.36s CPU      0.36s WALL (      81 calls)
     sum_band:loo :   1745.64s CPU   1761.47s WALL (      81 calls)
     sum_band:buf :     21.34s CPU     21.67s WALL (     162 calls)
     sum_band:ini :     43.50s CPU     44.09s WALL (     162 calls)
     sum_band:cal :   1285.12s CPU   1295.35s WALL (     172 calls)
     sum_band:bec :     10.08s CPU     10.27s WALL (     172 calls)
     addusdens    :     20.49s CPU     24.63s WALL (      81 calls)
     addusd:skk   :      3.46s CPU      4.52s WALL (     162 calls)
     addusd:dgemm :      9.48s CPU     12.41s WALL (     162 calls)
     addusd:qvan2 :      2.81s CPU      2.86s WALL (     162 calls)

     Called by *egterg:
     cdiaghg      : 101675.03s CPU 102321.16s WALL (    2073 calls)
     cegterg:over :   4520.80s CPU   4633.82s WALL (    1927 calls)
     cegterg:upda :   2896.72s CPU   2945.47s WALL (    1927 calls)
     cegterg:last :   1502.08s CPU   1513.50s WALL (     172 calls)
     h_psi        :   9389.50s CPU   9541.87s WALL (    2095 calls)
     s_psi        :   3408.83s CPU   3461.83s WALL (    2095 calls)
     g_psi        :     10.13s CPU     10.25s WALL (    1927 calls)

     Called by h_psi:
     h_psi:calbec :   3536.97s CPU   3567.71s WALL (    2095 calls)
     vloc_psi     :   2402.33s CPU   2430.56s WALL (    2095 calls)
     add_vuspsi   :   3410.63s CPU   3472.51s WALL (    2095 calls)

     General routines
     calbec       :   5349.87s CPU   5394.99s WALL (    2317 calls)
     fft          :     38.96s CPU     39.54s WALL (    6073 calls)
     ffts         :      6.22s CPU      6.27s WALL (     164 calls)
     fftw         :   2640.17s CPU   2671.48s WALL ( 1721912 calls)
     interpolate  :      1.08s CPU      1.10s WALL (      83 calls)
     davcio       :      0.00s CPU      0.31s WALL (       6 calls)
 
     Parallel routines

     PAW routines
     PAW_pot      :     62.68s CPU     63.32s WALL (      88 calls)
     PAW_symme    :      1.04s CPU      1.06s WALL (     168 calls)
 
     PWSCF        :   1d18h54m CPU   1d19h19m WALL

 
   This run was terminated on:  18:28:17  21Mar2024            

=------------------------------------------------------------------------------=
   JOB DONE.
=------------------------------------------------------------------------------=
