
     Program PWSCF v.7.1 starts on 19Feb2024 at 11:51:43 

     This program is part of the open-source Quantum ESPRESSO suite
     for quantum simulation of materials; please cite
         "P. Giannozzi et al., J. Phys.:Condens. Matter 21 395502 (2009);
         "P. Giannozzi et al., J. Phys.:Condens. Matter 29 465901 (2017);
         "P. Giannozzi et al., J. Chem. Phys. 152 154105 (2020);
          URL http://www.quantum-espresso.org", 
     in publications or presentations arising from this work. More details at
     http://www.quantum-espresso.org/quote

     Parallel version (MPI & OpenMP), running on     256 processor cores
     Number of MPI processes:               256
     Threads/MPI process:                     1

     MPI processes distributed on     2 nodes
     1878898 MiB available memory on the printing compute node when the environment starts
 
     Reading input from espresso.pwi
Warning: card &CELL ignored
Warning: card    CELL_DYNAMICS    = 'BFGS' ignored
Warning: card / ignored

     Current dimensions of program PWSCF are:
     Max number of different atomic species (ntypx) = 10
     Max number of k-points (npk) =  40000
     Max angular momentum in pseudopotentials (lmaxx) =  4
     file C.pbe-n-kjpaw_psl.1.0.0.UPF: wavefunction(s)  2S 2P renormalized

     **************************************************************************
     Initializing libbeef V0.1.2 with the BEEF-vdW functional.
     Citation: Wellendorff et al., PRB 85, 235149 (2012).
     **************************************************************************


     IMPORTANT: XC functional enforced from input :
     Exchange-correlation= BEEF-VDW
                           (   1   4  43  14   2   0   0)
     Any further DFT definition will be discarded
     Please, verify this is what you really want

 
     R & G space division:  proc/nbgrp/npool/nimage =     256
     WARNING: too many processors for an effective parallelization!
     wavefunctions fft division:  task group distribution
                                  #TG    x Z-proc =       8     32
     Subspace diagonalization in iterative solution of the eigenvalue problem:
     a serial algorithm will be used

 
     Parallelization info
     --------------------
     sticks:   dense  smooth     PW     G-vecs:    dense   smooth      PW
     Min          79      63     15                 8501     6083     751
     Max          80      64     16                 8510     6094     766
     Sum       20305   16237   4049              2177001  1558403  194543
 
     Using Pencil Decomposition
 


     bravais-lattice index     =            1
     lattice parameter (alat)  =      27.0027  a.u.
     unit-cell volume          =   19688.9026 (a.u.)^3
     number of atoms/cell      =          511
     number of atomic types    =            1
     number of electrons       =      2045.00
     number of Kohn-Sham states=         1228
     kinetic-energy cutoff     =      70.0000  Ry
     charge density cutoff     =     350.0000  Ry
     scf convergence threshold =      1.0E-07
     mixing beta               =       0.7000
     number of iterations used =            8  plain     mixing
     Exchange-correlation= BEEF-VDW
                           (   1   4  43  14   2   0   0)

     celldm(1)=  27.002699  celldm(2)=   0.000000  celldm(3)=   0.000000
     celldm(4)=   0.000000  celldm(5)=   0.000000  celldm(6)=   0.000000

     crystal axes: (cart. coord. in units of alat)
               a(1) = (   1.000000   0.000000   0.000000 )  
               a(2) = (   0.000000   1.000000   0.000000 )  
               a(3) = (   0.000000   0.000000   1.000000 )  

     reciprocal axes: (cart. coord. in units 2 pi/alat)
               b(1) = (  1.000000  0.000000  0.000000 )  
               b(2) = (  0.000000  1.000000  0.000000 )  
               b(3) = (  0.000000  0.000000  1.000000 )  


     PseudoPot. # 1 for C  read from file:
     //group///packages/espresso/pseudo/psl_1.0.0/pslibrary.1.0.0/pbe/PSEUDOPOTENTIALS/C.pbe-n-kjpaw_psl.1.0.0.UPF
     MD5 check sum: 5459cf7f2c8c37df2f7cde8914797f4d
     Pseudo is Projector augmented-wave + core cor, Zval =  4.0
     Generated using 'atomic' code by A. Dal Corso  v.7.1
     Shape of augmentation charge: PSQ
     Using radial grid of 1073 points,  4 beta functions with: 
                l(1) =   0
                l(2) =   0
                l(3) =   1
                l(4) =   1
     Q(r) pseudized with 0 coefficients 


     atomic species   valence    mass     pseudopotential
        C              4.00    12.01100     C ( 1.00)

      6 Sym. Ops. (no inversion) found ( 4 have fractional translation)


                                    s                        frac. trans.

      isym =  1     identity                                     

 cryst.   s( 1) = (     1          0          0      )
                  (     0          1          0      )
                  (     0          0          1      )

 cart.    s( 1) = (  1.0000000  0.0000000  0.0000000 )
                  (  0.0000000  1.0000000  0.0000000 )
                  (  0.0000000  0.0000000  1.0000000 )


      isym =  2     120 deg rotation - cart. axis [1,-1,1]       

 cryst.   s( 2) = (     0          0          1      )    f =( -0.2500000 )
                  (    -1          0          0      )       ( -0.2500000 )
                  (     0         -1          0      )       (  0.0000000 )

 cart.    s( 2) = (  0.0000000 -1.0000000  0.0000000 )    f =( -0.2500000 )
                  (  0.0000000  0.0000000 -1.0000000 )       ( -0.2500000 )
                  (  1.0000000  0.0000000  0.0000000 )       (  0.0000000 )


      isym =  3     120 deg rotation - cart. axis [-1,1,-1]      

 cryst.   s( 3) = (     0         -1          0      )    f =(  0.0000000 )
                  (     0          0         -1      )       ( -0.2500000 )
                  (     1          0          0      )       ( -0.2500000 )

 cart.    s( 3) = (  0.0000000  0.0000000  1.0000000 )    f =(  0.0000000 )
                  ( -1.0000000  0.0000000  0.0000000 )       ( -0.2500000 )
                  (  0.0000000 -1.0000000  0.0000000 )       ( -0.2500000 )


      isym =  4     inv. 180 deg rotation - cart. axis [1,1,0]   

 cryst.   s( 4) = (     0         -1          0      )    f =( -0.2500000 )
                  (    -1          0          0      )       ( -0.2500000 )
                  (     0          0          1      )       (  0.0000000 )

 cart.    s( 4) = (  0.0000000 -1.0000000  0.0000000 )    f =( -0.2500000 )
                  ( -1.0000000  0.0000000  0.0000000 )       ( -0.2500000 )
                  (  0.0000000  0.0000000  1.0000000 )       (  0.0000000 )


      isym =  5     inv. 180 deg rotation - cart. axis [-1,0,1]  

 cryst.   s( 5) = (     0          0          1      )
                  (     0          1          0      )
                  (     1          0          0      )

 cart.    s( 5) = (  0.0000000  0.0000000  1.0000000 )
                  (  0.0000000  1.0000000  0.0000000 )
                  (  1.0000000  0.0000000  0.0000000 )


      isym =  6     inv. 180 deg rotation - cart. axis [0,1,1]   

 cryst.   s( 6) = (     1          0          0      )    f =(  0.0000000 )
                  (     0          0         -1      )       ( -0.2500000 )
                  (     0         -1          0      )       ( -0.2500000 )

 cart.    s( 6) = (  1.0000000  0.0000000  0.0000000 )    f =(  0.0000000 )
                  (  0.0000000  0.0000000 -1.0000000 )       ( -0.2500000 )
                  (  0.0000000 -1.0000000  0.0000000 )       ( -0.2500000 )


     point group C_3v (3m)  
     there are  3 classes
     the character table:

       E     2C3   3s_v 
A_1    1.00  1.00  1.00
A_2    1.00  1.00 -1.00
E      2.00 -1.00  0.00

     the symmetry operations in each class and the name of the first element:

     E        1
          identity                                               
     2C3      2    3
          120 deg rotation - cart. axis [1,-1,1]                 
     3s_v     4    5    6
          inv. 180 deg rotation - cart. axis [1,1,0]             

   Cartesian axes

     site n.     atom                  positions (alat units)
         1           C   tau(   1) = (   0.0625015   0.1874985   0.3125015  )
         2           C   tau(   2) = (   0.0625015   0.1874985   0.5625015  )
         3           C   tau(   3) = (   0.0625015   0.1874985   0.8125015  )
         4           C   tau(   4) = (   0.0625015   0.4374985   0.0625015  )
         5           C   tau(   5) = (   0.0625015   0.4374985   0.3125015  )
         6           C   tau(   6) = (   0.0625015   0.4374985   0.5625015  )
         7           C   tau(   7) = (   0.0625015   0.4374985   0.8125015  )
         8           C   tau(   8) = (   0.0625015   0.6874985   0.0625015  )
         9           C   tau(   9) = (   0.0625015   0.6874985   0.3125015  )
        10           C   tau(  10) = (   0.0625015   0.6874985   0.5625015  )
        11           C   tau(  11) = (   0.0625015   0.6874985   0.8125015  )
        12           C   tau(  12) = (   0.0625015   0.9374985   0.0625015  )
        13           C   tau(  13) = (   0.0625015   0.9374985   0.3125015  )
        14           C   tau(  14) = (   0.0625015   0.9374985   0.5625015  )
        15           C   tau(  15) = (   0.0625015   0.9374985   0.8125015  )
        16           C   tau(  16) = (   0.3125015   0.1874985   0.0625015  )
        17           C   tau(  17) = (   0.3125015   0.1874985   0.3125015  )
        18           C   tau(  18) = (   0.3125015   0.1874985   0.5625015  )
        19           C   tau(  19) = (   0.3125015   0.1874985   0.8125015  )
        20           C   tau(  20) = (   0.3125015   0.4374985   0.0625015  )
        21           C   tau(  21) = (   0.3125015   0.4374985   0.3125015  )
        22           C   tau(  22) = (   0.3125015   0.4374985   0.5625015  )
        23           C   tau(  23) = (   0.3125015   0.4374985   0.8125015  )
        24           C   tau(  24) = (   0.3125015   0.6874985   0.0625015  )
        25           C   tau(  25) = (   0.3125015   0.6874985   0.3125015  )
        26           C   tau(  26) = (   0.3125015   0.6874985   0.5625015  )
        27           C   tau(  27) = (   0.3125015   0.6874985   0.8125015  )
        28           C   tau(  28) = (   0.3125015   0.9374985   0.0625015  )
        29           C   tau(  29) = (   0.3125015   0.9374985   0.3125015  )
        30           C   tau(  30) = (   0.3125015   0.9374985   0.5625015  )
        31           C   tau(  31) = (   0.3125015   0.9374985   0.8125015  )
        32           C   tau(  32) = (   0.5625015   0.1874985   0.0625015  )
        33           C   tau(  33) = (   0.5625015   0.1874985   0.3125015  )
        34           C   tau(  34) = (   0.5625015   0.1874985   0.5625015  )
        35           C   tau(  35) = (   0.5625015   0.1874985   0.8125015  )
        36           C   tau(  36) = (   0.5625015   0.4374985   0.0625015  )
        37           C   tau(  37) = (   0.5625015   0.4374985   0.3125015  )
        38           C   tau(  38) = (   0.5625015   0.4374985   0.5625015  )
        39           C   tau(  39) = (   0.5625015   0.4374985   0.8125015  )
        40           C   tau(  40) = (   0.5625015   0.6874985   0.0625015  )
        41           C   tau(  41) = (   0.5625015   0.6874985   0.3125015  )
        42           C   tau(  42) = (   0.5625015   0.6874985   0.5625015  )
        43           C   tau(  43) = (   0.5625015   0.6874985   0.8125015  )
        44           C   tau(  44) = (   0.5625015   0.9374985   0.0625015  )
        45           C   tau(  45) = (   0.5625015   0.9374985   0.3125015  )
        46           C   tau(  46) = (   0.5625015   0.9374985   0.5625015  )
        47           C   tau(  47) = (   0.5625015   0.9374985   0.8125015  )
        48           C   tau(  48) = (   0.8125015   0.1874985   0.0625015  )
        49           C   tau(  49) = (   0.8125015   0.1874985   0.3125015  )
        50           C   tau(  50) = (   0.8125015   0.1874985   0.5625015  )
        51           C   tau(  51) = (   0.8125015   0.1874985   0.8125015  )
        52           C   tau(  52) = (   0.8125015   0.4374985   0.0625015  )
        53           C   tau(  53) = (   0.8125015   0.4374985   0.3125015  )
        54           C   tau(  54) = (   0.8125015   0.4374985   0.5625015  )
        55           C   tau(  55) = (   0.8125015   0.4374985   0.8125015  )
        56           C   tau(  56) = (   0.8125015   0.6874985   0.0625015  )
        57           C   tau(  57) = (   0.8125015   0.6874985   0.3125015  )
        58           C   tau(  58) = (   0.8125015   0.6874985   0.5625015  )
        59           C   tau(  59) = (   0.8125015   0.6874985   0.8125015  )
        60           C   tau(  60) = (   0.8125015   0.9374985   0.0625015  )
        61           C   tau(  61) = (   0.8125015   0.9374985   0.3125015  )
        62           C   tau(  62) = (   0.8125015   0.9374985   0.5625015  )
        63           C   tau(  63) = (   0.8125015   0.9374985   0.8125015  )
        64           C   tau(  64) = (   0.0000000   0.0000000   0.1250000  )
        65           C   tau(  65) = (   0.0000000   0.0000000   0.3750000  )
        66           C   tau(  66) = (   0.0000000   0.0000000   0.6250000  )
        67           C   tau(  67) = (   0.0000000   0.0000000   0.8750000  )
        68           C   tau(  68) = (   0.0000000   0.2500000   0.1250000  )
        69           C   tau(  69) = (   0.0000000   0.2500000   0.3750000  )
        70           C   tau(  70) = (   0.0000000   0.2500000   0.6250000  )
        71           C   tau(  71) = (   0.0000000   0.2500000   0.8750000  )
        72           C   tau(  72) = (   0.0000000   0.5000000   0.1250000  )
        73           C   tau(  73) = (   0.0000000   0.5000000   0.3750000  )
        74           C   tau(  74) = (   0.0000000   0.5000000   0.6250000  )
        75           C   tau(  75) = (   0.0000000   0.5000000   0.8750000  )
        76           C   tau(  76) = (   0.0000000   0.7500000   0.1250000  )
        77           C   tau(  77) = (   0.0000000   0.7500000   0.3750000  )
        78           C   tau(  78) = (   0.0000000   0.7500000   0.6250000  )
        79           C   tau(  79) = (   0.0000000   0.7500000   0.8750000  )
        80           C   tau(  80) = (   0.2500000   0.0000000   0.1250000  )
        81           C   tau(  81) = (   0.2500000   0.0000000   0.3750000  )
        82           C   tau(  82) = (   0.2500000   0.0000000   0.6250000  )
        83           C   tau(  83) = (   0.2500000   0.0000000   0.8750000  )
        84           C   tau(  84) = (   0.2500000   0.2500000   0.1250000  )
        85           C   tau(  85) = (   0.2500000   0.2500000   0.3750000  )
        86           C   tau(  86) = (   0.2500000   0.2500000   0.6250000  )
        87           C   tau(  87) = (   0.2500000   0.2500000   0.8750000  )
        88           C   tau(  88) = (   0.2500000   0.5000000   0.1250000  )
        89           C   tau(  89) = (   0.2500000   0.5000000   0.3750000  )
        90           C   tau(  90) = (   0.2500000   0.5000000   0.6250000  )
        91           C   tau(  91) = (   0.2500000   0.5000000   0.8750000  )
        92           C   tau(  92) = (   0.2500000   0.7500000   0.1250000  )
        93           C   tau(  93) = (   0.2500000   0.7500000   0.3750000  )
        94           C   tau(  94) = (   0.2500000   0.7500000   0.6250000  )
        95           C   tau(  95) = (   0.2500000   0.7500000   0.8750000  )
        96           C   tau(  96) = (   0.5000000   0.0000000   0.1250000  )
        97           C   tau(  97) = (   0.5000000   0.0000000   0.3750000  )
        98           C   tau(  98) = (   0.5000000   0.0000000   0.6250000  )
        99           C   tau(  99) = (   0.5000000   0.0000000   0.8750000  )
       100           C   tau( 100) = (   0.5000000   0.2500000   0.1250000  )
       101           C   tau( 101) = (   0.5000000   0.2500000   0.3750000  )
       102           C   tau( 102) = (   0.5000000   0.2500000   0.6250000  )
       103           C   tau( 103) = (   0.5000000   0.2500000   0.8750000  )
       104           C   tau( 104) = (   0.5000000   0.5000000   0.1250000  )
       105           C   tau( 105) = (   0.5000000   0.5000000   0.3750000  )
       106           C   tau( 106) = (   0.5000000   0.5000000   0.6250000  )
       107           C   tau( 107) = (   0.5000000   0.5000000   0.8750000  )
       108           C   tau( 108) = (   0.5000000   0.7500000   0.1250000  )
       109           C   tau( 109) = (   0.5000000   0.7500000   0.3750000  )
       110           C   tau( 110) = (   0.5000000   0.7500000   0.6250000  )
       111           C   tau( 111) = (   0.5000000   0.7500000   0.8750000  )
       112           C   tau( 112) = (   0.7500000   0.0000000   0.1250000  )
       113           C   tau( 113) = (   0.7500000   0.0000000   0.3750000  )
       114           C   tau( 114) = (   0.7500000   0.0000000   0.6250000  )
       115           C   tau( 115) = (   0.7500000   0.0000000   0.8750000  )
       116           C   tau( 116) = (   0.7500000   0.2500000   0.1250000  )
       117           C   tau( 117) = (   0.7500000   0.2500000   0.3750000  )
       118           C   tau( 118) = (   0.7500000   0.2500000   0.6250000  )
       119           C   tau( 119) = (   0.7500000   0.2500000   0.8750000  )
       120           C   tau( 120) = (   0.7500000   0.5000000   0.1250000  )
       121           C   tau( 121) = (   0.7500000   0.5000000   0.3750000  )
       122           C   tau( 122) = (   0.7500000   0.5000000   0.6250000  )
       123           C   tau( 123) = (   0.7500000   0.5000000   0.8750000  )
       124           C   tau( 124) = (   0.7500000   0.7500000   0.1250000  )
       125           C   tau( 125) = (   0.7500000   0.7500000   0.3750000  )
       126           C   tau( 126) = (   0.7500000   0.7500000   0.6250000  )
       127           C   tau( 127) = (   0.7500000   0.7500000   0.8750000  )
       128           C   tau( 128) = (   0.0625015   0.0625015   0.1874985  )
       129           C   tau( 129) = (   0.0625015   0.0625015   0.4374985  )
       130           C   tau( 130) = (   0.0625015   0.0625015   0.6874985  )
       131           C   tau( 131) = (   0.0625015   0.0625015   0.9374985  )
       132           C   tau( 132) = (   0.0625015   0.3125015   0.1874985  )
       133           C   tau( 133) = (   0.0625015   0.3125015   0.4374985  )
       134           C   tau( 134) = (   0.0625015   0.3125015   0.6874985  )
       135           C   tau( 135) = (   0.0625015   0.3125015   0.9374985  )
       136           C   tau( 136) = (   0.0625015   0.5625015   0.1874985  )
       137           C   tau( 137) = (   0.0625015   0.5625015   0.4374985  )
       138           C   tau( 138) = (   0.0625015   0.5625015   0.6874985  )
       139           C   tau( 139) = (   0.0625015   0.5625015   0.9374985  )
       140           C   tau( 140) = (   0.0625015   0.8125015   0.1874985  )
       141           C   tau( 141) = (   0.0625015   0.8125015   0.4374985  )
       142           C   tau( 142) = (   0.0625015   0.8125015   0.6874985  )
       143           C   tau( 143) = (   0.0625015   0.8125015   0.9374985  )
       144           C   tau( 144) = (   0.3125015   0.0625015   0.1874985  )
       145           C   tau( 145) = (   0.3125015   0.0625015   0.4374985  )
       146           C   tau( 146) = (   0.3125015   0.0625015   0.6874985  )
       147           C   tau( 147) = (   0.3125015   0.0625015   0.9374985  )
       148           C   tau( 148) = (   0.3125015   0.3125015   0.1874985  )
       149           C   tau( 149) = (   0.3125015   0.3125015   0.4374985  )
       150           C   tau( 150) = (   0.3125015   0.3125015   0.6874985  )
       151           C   tau( 151) = (   0.3125015   0.3125015   0.9374985  )
       152           C   tau( 152) = (   0.3125015   0.5625015   0.1874985  )
       153           C   tau( 153) = (   0.3125015   0.5625015   0.4374985  )
       154           C   tau( 154) = (   0.3125015   0.5625015   0.6874985  )
       155           C   tau( 155) = (   0.3125015   0.5625015   0.9374985  )
       156           C   tau( 156) = (   0.3125015   0.8125015   0.1874985  )
       157           C   tau( 157) = (   0.3125015   0.8125015   0.4374985  )
       158           C   tau( 158) = (   0.3125015   0.8125015   0.6874985  )
       159           C   tau( 159) = (   0.3125015   0.8125015   0.9374985  )
       160           C   tau( 160) = (   0.5625015   0.0625015   0.1874985  )
       161           C   tau( 161) = (   0.5625015   0.0625015   0.4374985  )
       162           C   tau( 162) = (   0.5625015   0.0625015   0.6874985  )
       163           C   tau( 163) = (   0.5625015   0.0625015   0.9374985  )
       164           C   tau( 164) = (   0.5625015   0.3125015   0.1874985  )
       165           C   tau( 165) = (   0.5625015   0.3125015   0.4374985  )
       166           C   tau( 166) = (   0.5625015   0.3125015   0.6874985  )
       167           C   tau( 167) = (   0.5625015   0.3125015   0.9374985  )
       168           C   tau( 168) = (   0.5625015   0.5625015   0.1874985  )
       169           C   tau( 169) = (   0.5625015   0.5625015   0.4374985  )
       170           C   tau( 170) = (   0.5625015   0.5625015   0.6874985  )
       171           C   tau( 171) = (   0.5625015   0.5625015   0.9374985  )
       172           C   tau( 172) = (   0.5625015   0.8125015   0.1874985  )
       173           C   tau( 173) = (   0.5625015   0.8125015   0.4374985  )
       174           C   tau( 174) = (   0.5625015   0.8125015   0.6874985  )
       175           C   tau( 175) = (   0.5625015   0.8125015   0.9374985  )
       176           C   tau( 176) = (   0.8125015   0.0625015   0.1874985  )
       177           C   tau( 177) = (   0.8125015   0.0625015   0.4374985  )
       178           C   tau( 178) = (   0.8125015   0.0625015   0.6874985  )
       179           C   tau( 179) = (   0.8125015   0.0625015   0.9374985  )
       180           C   tau( 180) = (   0.8125015   0.3125015   0.1874985  )
       181           C   tau( 181) = (   0.8125015   0.3125015   0.4374985  )
       182           C   tau( 182) = (   0.8125015   0.3125015   0.6874985  )
       183           C   tau( 183) = (   0.8125015   0.3125015   0.9374985  )
       184           C   tau( 184) = (   0.8125015   0.5625015   0.1874985  )
       185           C   tau( 185) = (   0.8125015   0.5625015   0.4374985  )
       186           C   tau( 186) = (   0.8125015   0.5625015   0.6874985  )
       187           C   tau( 187) = (   0.8125015   0.5625015   0.9374985  )
       188           C   tau( 188) = (   0.8125015   0.8125015   0.1874985  )
       189           C   tau( 189) = (   0.8125015   0.8125015   0.4374985  )
       190           C   tau( 190) = (   0.8125015   0.8125015   0.6874985  )
       191           C   tau( 191) = (   0.8125015   0.8125015   0.9374985  )
       192           C   tau( 192) = (   0.0000000   0.1250000   0.0000000  )
       193           C   tau( 193) = (   0.0000000   0.1250000   0.2500000  )
       194           C   tau( 194) = (   0.0000000   0.1250000   0.5000000  )
       195           C   tau( 195) = (   0.0000000   0.1250000   0.7500000  )
       196           C   tau( 196) = (   0.0000000   0.3750000   0.0000000  )
       197           C   tau( 197) = (   0.0000000   0.3750000   0.2500000  )
       198           C   tau( 198) = (   0.0000000   0.3750000   0.5000000  )
       199           C   tau( 199) = (   0.0000000   0.3750000   0.7500000  )
       200           C   tau( 200) = (   0.0000000   0.6250000   0.0000000  )
       201           C   tau( 201) = (   0.0000000   0.6250000   0.2500000  )
       202           C   tau( 202) = (   0.0000000   0.6250000   0.5000000  )
       203           C   tau( 203) = (   0.0000000   0.6250000   0.7500000  )
       204           C   tau( 204) = (   0.0000000   0.8750000   0.0000000  )
       205           C   tau( 205) = (   0.0000000   0.8750000   0.2500000  )
       206           C   tau( 206) = (   0.0000000   0.8750000   0.5000000  )
       207           C   tau( 207) = (   0.0000000   0.8750000   0.7500000  )
       208           C   tau( 208) = (   0.2500000   0.1250000   0.0000000  )
       209           C   tau( 209) = (   0.2500000   0.1250000   0.2500000  )
       210           C   tau( 210) = (   0.2500000   0.1250000   0.5000000  )
       211           C   tau( 211) = (   0.2500000   0.1250000   0.7500000  )
       212           C   tau( 212) = (   0.2500000   0.3750000   0.0000000  )
       213           C   tau( 213) = (   0.2500000   0.3750000   0.2500000  )
       214           C   tau( 214) = (   0.2500000   0.3750000   0.5000000  )
       215           C   tau( 215) = (   0.2500000   0.3750000   0.7500000  )
       216           C   tau( 216) = (   0.2500000   0.6250000   0.0000000  )
       217           C   tau( 217) = (   0.2500000   0.6250000   0.2500000  )
       218           C   tau( 218) = (   0.2500000   0.6250000   0.5000000  )
       219           C   tau( 219) = (   0.2500000   0.6250000   0.7500000  )
       220           C   tau( 220) = (   0.2500000   0.8750000   0.0000000  )
       221           C   tau( 221) = (   0.2500000   0.8750000   0.2500000  )
       222           C   tau( 222) = (   0.2500000   0.8750000   0.5000000  )
       223           C   tau( 223) = (   0.2500000   0.8750000   0.7500000  )
       224           C   tau( 224) = (   0.5000000   0.1250000   0.0000000  )
       225           C   tau( 225) = (   0.5000000   0.1250000   0.2500000  )
       226           C   tau( 226) = (   0.5000000   0.1250000   0.5000000  )
       227           C   tau( 227) = (   0.5000000   0.1250000   0.7500000  )
       228           C   tau( 228) = (   0.5000000   0.3750000   0.0000000  )
       229           C   tau( 229) = (   0.5000000   0.3750000   0.2500000  )
       230           C   tau( 230) = (   0.5000000   0.3750000   0.5000000  )
       231           C   tau( 231) = (   0.5000000   0.3750000   0.7500000  )
       232           C   tau( 232) = (   0.5000000   0.6250000   0.0000000  )
       233           C   tau( 233) = (   0.5000000   0.6250000   0.2500000  )
       234           C   tau( 234) = (   0.5000000   0.6250000   0.5000000  )
       235           C   tau( 235) = (   0.5000000   0.6250000   0.7500000  )
       236           C   tau( 236) = (   0.5000000   0.8750000   0.0000000  )
       237           C   tau( 237) = (   0.5000000   0.8750000   0.2500000  )
       238           C   tau( 238) = (   0.5000000   0.8750000   0.5000000  )
       239           C   tau( 239) = (   0.5000000   0.8750000   0.7500000  )
       240           C   tau( 240) = (   0.7500000   0.1250000   0.0000000  )
       241           C   tau( 241) = (   0.7500000   0.1250000   0.2500000  )
       242           C   tau( 242) = (   0.7500000   0.1250000   0.5000000  )
       243           C   tau( 243) = (   0.7500000   0.1250000   0.7500000  )
       244           C   tau( 244) = (   0.7500000   0.3750000   0.0000000  )
       245           C   tau( 245) = (   0.7500000   0.3750000   0.2500000  )
       246           C   tau( 246) = (   0.7500000   0.3750000   0.5000000  )
       247           C   tau( 247) = (   0.7500000   0.3750000   0.7500000  )
       248           C   tau( 248) = (   0.7500000   0.6250000   0.0000000  )
       249           C   tau( 249) = (   0.7500000   0.6250000   0.2500000  )
       250           C   tau( 250) = (   0.7500000   0.6250000   0.5000000  )
       251           C   tau( 251) = (   0.7500000   0.6250000   0.7500000  )
       252           C   tau( 252) = (   0.7500000   0.8750000   0.0000000  )
       253           C   tau( 253) = (   0.7500000   0.8750000   0.2500000  )
       254           C   tau( 254) = (   0.7500000   0.8750000   0.5000000  )
       255           C   tau( 255) = (   0.7500000   0.8750000   0.7500000  )
       256           C   tau( 256) = (   0.1874985   0.1874985   0.1874985  )
       257           C   tau( 257) = (   0.1874985   0.1874985   0.4374985  )
       258           C   tau( 258) = (   0.1874985   0.1874985   0.6874985  )
       259           C   tau( 259) = (   0.1874985   0.1874985   0.9374985  )
       260           C   tau( 260) = (   0.1874985   0.4374985   0.1874985  )
       261           C   tau( 261) = (   0.1874985   0.4374985   0.4374985  )
       262           C   tau( 262) = (   0.1874985   0.4374985   0.6874985  )
       263           C   tau( 263) = (   0.1874985   0.4374985   0.9374985  )
       264           C   tau( 264) = (   0.1874985   0.6874985   0.1874985  )
       265           C   tau( 265) = (   0.1874985   0.6874985   0.4374985  )
       266           C   tau( 266) = (   0.1874985   0.6874985   0.6874985  )
       267           C   tau( 267) = (   0.1874985   0.6874985   0.9374985  )
       268           C   tau( 268) = (   0.1874985   0.9374985   0.1874985  )
       269           C   tau( 269) = (   0.1874985   0.9374985   0.4374985  )
       270           C   tau( 270) = (   0.1874985   0.9374985   0.6874985  )
       271           C   tau( 271) = (   0.1874985   0.9374985   0.9374985  )
       272           C   tau( 272) = (   0.4374985   0.1874985   0.1874985  )
       273           C   tau( 273) = (   0.4374985   0.1874985   0.4374985  )
       274           C   tau( 274) = (   0.4374985   0.1874985   0.6874985  )
       275           C   tau( 275) = (   0.4374985   0.1874985   0.9374985  )
       276           C   tau( 276) = (   0.4374985   0.4374985   0.1874985  )
       277           C   tau( 277) = (   0.4374985   0.4374985   0.4374985  )
       278           C   tau( 278) = (   0.4374985   0.4374985   0.6874985  )
       279           C   tau( 279) = (   0.4374985   0.4374985   0.9374985  )
       280           C   tau( 280) = (   0.4374985   0.6874985   0.1874985  )
       281           C   tau( 281) = (   0.4374985   0.6874985   0.4374985  )
       282           C   tau( 282) = (   0.4374985   0.6874985   0.6874985  )
       283           C   tau( 283) = (   0.4374985   0.6874985   0.9374985  )
       284           C   tau( 284) = (   0.4374985   0.9374985   0.1874985  )
       285           C   tau( 285) = (   0.4374985   0.9374985   0.4374985  )
       286           C   tau( 286) = (   0.4374985   0.9374985   0.6874985  )
       287           C   tau( 287) = (   0.4374985   0.9374985   0.9374985  )
       288           C   tau( 288) = (   0.6874985   0.1874985   0.1874985  )
       289           C   tau( 289) = (   0.6874985   0.1874985   0.4374985  )
       290           C   tau( 290) = (   0.6874985   0.1874985   0.6874985  )
       291           C   tau( 291) = (   0.6874985   0.1874985   0.9374985  )
       292           C   tau( 292) = (   0.6874985   0.4374985   0.1874985  )
       293           C   tau( 293) = (   0.6874985   0.4374985   0.4374985  )
       294           C   tau( 294) = (   0.6874985   0.4374985   0.6874985  )
       295           C   tau( 295) = (   0.6874985   0.4374985   0.9374985  )
       296           C   tau( 296) = (   0.6874985   0.6874985   0.1874985  )
       297           C   tau( 297) = (   0.6874985   0.6874985   0.4374985  )
       298           C   tau( 298) = (   0.6874985   0.6874985   0.6874985  )
       299           C   tau( 299) = (   0.6874985   0.6874985   0.9374985  )
       300           C   tau( 300) = (   0.6874985   0.9374985   0.1874985  )
       301           C   tau( 301) = (   0.6874985   0.9374985   0.4374985  )
       302           C   tau( 302) = (   0.6874985   0.9374985   0.6874985  )
       303           C   tau( 303) = (   0.6874985   0.9374985   0.9374985  )
       304           C   tau( 304) = (   0.9374985   0.1874985   0.1874985  )
       305           C   tau( 305) = (   0.9374985   0.1874985   0.4374985  )
       306           C   tau( 306) = (   0.9374985   0.1874985   0.6874985  )
       307           C   tau( 307) = (   0.9374985   0.1874985   0.9374985  )
       308           C   tau( 308) = (   0.9374985   0.4374985   0.1874985  )
       309           C   tau( 309) = (   0.9374985   0.4374985   0.4374985  )
       310           C   tau( 310) = (   0.9374985   0.4374985   0.6874985  )
       311           C   tau( 311) = (   0.9374985   0.4374985   0.9374985  )
       312           C   tau( 312) = (   0.9374985   0.6874985   0.1874985  )
       313           C   tau( 313) = (   0.9374985   0.6874985   0.4374985  )
       314           C   tau( 314) = (   0.9374985   0.6874985   0.6874985  )
       315           C   tau( 315) = (   0.9374985   0.6874985   0.9374985  )
       316           C   tau( 316) = (   0.9374985   0.9374985   0.1874985  )
       317           C   tau( 317) = (   0.9374985   0.9374985   0.4374985  )
       318           C   tau( 318) = (   0.9374985   0.9374985   0.6874985  )
       319           C   tau( 319) = (   0.9374985   0.9374985   0.9374985  )
       320           C   tau( 320) = (   0.1250000   0.0000000   0.0000000  )
       321           C   tau( 321) = (   0.1250000   0.0000000   0.2500000  )
       322           C   tau( 322) = (   0.1250000   0.0000000   0.5000000  )
       323           C   tau( 323) = (   0.1250000   0.0000000   0.7500000  )
       324           C   tau( 324) = (   0.1250000   0.2500000   0.0000000  )
       325           C   tau( 325) = (   0.1250000   0.2500000   0.2500000  )
       326           C   tau( 326) = (   0.1250000   0.2500000   0.5000000  )
       327           C   tau( 327) = (   0.1250000   0.2500000   0.7500000  )
       328           C   tau( 328) = (   0.1250000   0.5000000   0.0000000  )
       329           C   tau( 329) = (   0.1250000   0.5000000   0.2500000  )
       330           C   tau( 330) = (   0.1250000   0.5000000   0.5000000  )
       331           C   tau( 331) = (   0.1250000   0.5000000   0.7500000  )
       332           C   tau( 332) = (   0.1250000   0.7500000   0.0000000  )
       333           C   tau( 333) = (   0.1250000   0.7500000   0.2500000  )
       334           C   tau( 334) = (   0.1250000   0.7500000   0.5000000  )
       335           C   tau( 335) = (   0.1250000   0.7500000   0.7500000  )
       336           C   tau( 336) = (   0.3750000   0.0000000   0.0000000  )
       337           C   tau( 337) = (   0.3750000   0.0000000   0.2500000  )
       338           C   tau( 338) = (   0.3750000   0.0000000   0.5000000  )
       339           C   tau( 339) = (   0.3750000   0.0000000   0.7500000  )
       340           C   tau( 340) = (   0.3750000   0.2500000   0.0000000  )
       341           C   tau( 341) = (   0.3750000   0.2500000   0.2500000  )
       342           C   tau( 342) = (   0.3750000   0.2500000   0.5000000  )
       343           C   tau( 343) = (   0.3750000   0.2500000   0.7500000  )
       344           C   tau( 344) = (   0.3750000   0.5000000   0.0000000  )
       345           C   tau( 345) = (   0.3750000   0.5000000   0.2500000  )
       346           C   tau( 346) = (   0.3750000   0.5000000   0.5000000  )
       347           C   tau( 347) = (   0.3750000   0.5000000   0.7500000  )
       348           C   tau( 348) = (   0.3750000   0.7500000   0.0000000  )
       349           C   tau( 349) = (   0.3750000   0.7500000   0.2500000  )
       350           C   tau( 350) = (   0.3750000   0.7500000   0.5000000  )
       351           C   tau( 351) = (   0.3750000   0.7500000   0.7500000  )
       352           C   tau( 352) = (   0.6250000   0.0000000   0.0000000  )
       353           C   tau( 353) = (   0.6250000   0.0000000   0.2500000  )
       354           C   tau( 354) = (   0.6250000   0.0000000   0.5000000  )
       355           C   tau( 355) = (   0.6250000   0.0000000   0.7500000  )
       356           C   tau( 356) = (   0.6250000   0.2500000   0.0000000  )
       357           C   tau( 357) = (   0.6250000   0.2500000   0.2500000  )
       358           C   tau( 358) = (   0.6250000   0.2500000   0.5000000  )
       359           C   tau( 359) = (   0.6250000   0.2500000   0.7500000  )
       360           C   tau( 360) = (   0.6250000   0.5000000   0.0000000  )
       361           C   tau( 361) = (   0.6250000   0.5000000   0.2500000  )
       362           C   tau( 362) = (   0.6250000   0.5000000   0.5000000  )
       363           C   tau( 363) = (   0.6250000   0.5000000   0.7500000  )
       364           C   tau( 364) = (   0.6250000   0.7500000   0.0000000  )
       365           C   tau( 365) = (   0.6250000   0.7500000   0.2500000  )
       366           C   tau( 366) = (   0.6250000   0.7500000   0.5000000  )
       367           C   tau( 367) = (   0.6250000   0.7500000   0.7500000  )
       368           C   tau( 368) = (   0.8750000   0.0000000   0.0000000  )
       369           C   tau( 369) = (   0.8750000   0.0000000   0.2500000  )
       370           C   tau( 370) = (   0.8750000   0.0000000   0.5000000  )
       371           C   tau( 371) = (   0.8750000   0.0000000   0.7500000  )
       372           C   tau( 372) = (   0.8750000   0.2500000   0.0000000  )
       373           C   tau( 373) = (   0.8750000   0.2500000   0.2500000  )
       374           C   tau( 374) = (   0.8750000   0.2500000   0.5000000  )
       375           C   tau( 375) = (   0.8750000   0.2500000   0.7500000  )
       376           C   tau( 376) = (   0.8750000   0.5000000   0.0000000  )
       377           C   tau( 377) = (   0.8750000   0.5000000   0.2500000  )
       378           C   tau( 378) = (   0.8750000   0.5000000   0.5000000  )
       379           C   tau( 379) = (   0.8750000   0.5000000   0.7500000  )
       380           C   tau( 380) = (   0.8750000   0.7500000   0.0000000  )
       381           C   tau( 381) = (   0.8750000   0.7500000   0.2500000  )
       382           C   tau( 382) = (   0.8750000   0.7500000   0.5000000  )
       383           C   tau( 383) = (   0.8750000   0.7500000   0.7500000  )
       384           C   tau( 384) = (   0.1874985   0.0625015   0.0625015  )
       385           C   tau( 385) = (   0.1874985   0.0625015   0.3125015  )
       386           C   tau( 386) = (   0.1874985   0.0625015   0.5625015  )
       387           C   tau( 387) = (   0.1874985   0.0625015   0.8125015  )
       388           C   tau( 388) = (   0.1874985   0.3125015   0.0625015  )
       389           C   tau( 389) = (   0.1874985   0.3125015   0.3125015  )
       390           C   tau( 390) = (   0.1874985   0.3125015   0.5625015  )
       391           C   tau( 391) = (   0.1874985   0.3125015   0.8125015  )
       392           C   tau( 392) = (   0.1874985   0.5625015   0.0625015  )
       393           C   tau( 393) = (   0.1874985   0.5625015   0.3125015  )
       394           C   tau( 394) = (   0.1874985   0.5625015   0.5625015  )
       395           C   tau( 395) = (   0.1874985   0.5625015   0.8125015  )
       396           C   tau( 396) = (   0.1874985   0.8125015   0.0625015  )
       397           C   tau( 397) = (   0.1874985   0.8125015   0.3125015  )
       398           C   tau( 398) = (   0.1874985   0.8125015   0.5625015  )
       399           C   tau( 399) = (   0.1874985   0.8125015   0.8125015  )
       400           C   tau( 400) = (   0.4374985   0.0625015   0.0625015  )
       401           C   tau( 401) = (   0.4374985   0.0625015   0.3125015  )
       402           C   tau( 402) = (   0.4374985   0.0625015   0.5625015  )
       403           C   tau( 403) = (   0.4374985   0.0625015   0.8125015  )
       404           C   tau( 404) = (   0.4374985   0.3125015   0.0625015  )
       405           C   tau( 405) = (   0.4374985   0.3125015   0.3125015  )
       406           C   tau( 406) = (   0.4374985   0.3125015   0.5625015  )
       407           C   tau( 407) = (   0.4374985   0.3125015   0.8125015  )
       408           C   tau( 408) = (   0.4374985   0.5625015   0.0625015  )
       409           C   tau( 409) = (   0.4374985   0.5625015   0.3125015  )
       410           C   tau( 410) = (   0.4374985   0.5625015   0.5625015  )
       411           C   tau( 411) = (   0.4374985   0.5625015   0.8125015  )
       412           C   tau( 412) = (   0.4374985   0.8125015   0.0625015  )
       413           C   tau( 413) = (   0.4374985   0.8125015   0.3125015  )
       414           C   tau( 414) = (   0.4374985   0.8125015   0.5625015  )
       415           C   tau( 415) = (   0.4374985   0.8125015   0.8125015  )
       416           C   tau( 416) = (   0.6874985   0.0625015   0.0625015  )
       417           C   tau( 417) = (   0.6874985   0.0625015   0.3125015  )
       418           C   tau( 418) = (   0.6874985   0.0625015   0.5625015  )
       419           C   tau( 419) = (   0.6874985   0.0625015   0.8125015  )
       420           C   tau( 420) = (   0.6874985   0.3125015   0.0625015  )
       421           C   tau( 421) = (   0.6874985   0.3125015   0.3125015  )
       422           C   tau( 422) = (   0.6874985   0.3125015   0.5625015  )
       423           C   tau( 423) = (   0.6874985   0.3125015   0.8125015  )
       424           C   tau( 424) = (   0.6874985   0.5625015   0.0625015  )
       425           C   tau( 425) = (   0.6874985   0.5625015   0.3125015  )
       426           C   tau( 426) = (   0.6874985   0.5625015   0.5625015  )
       427           C   tau( 427) = (   0.6874985   0.5625015   0.8125015  )
       428           C   tau( 428) = (   0.6874985   0.8125015   0.0625015  )
       429           C   tau( 429) = (   0.6874985   0.8125015   0.3125015  )
       430           C   tau( 430) = (   0.6874985   0.8125015   0.5625015  )
       431           C   tau( 431) = (   0.6874985   0.8125015   0.8125015  )
       432           C   tau( 432) = (   0.9374985   0.0625015   0.0625015  )
       433           C   tau( 433) = (   0.9374985   0.0625015   0.3125015  )
       434           C   tau( 434) = (   0.9374985   0.0625015   0.5625015  )
       435           C   tau( 435) = (   0.9374985   0.0625015   0.8125015  )
       436           C   tau( 436) = (   0.9374985   0.3125015   0.0625015  )
       437           C   tau( 437) = (   0.9374985   0.3125015   0.3125015  )
       438           C   tau( 438) = (   0.9374985   0.3125015   0.5625015  )
       439           C   tau( 439) = (   0.9374985   0.3125015   0.8125015  )
       440           C   tau( 440) = (   0.9374985   0.5625015   0.0625015  )
       441           C   tau( 441) = (   0.9374985   0.5625015   0.3125015  )
       442           C   tau( 442) = (   0.9374985   0.5625015   0.5625015  )
       443           C   tau( 443) = (   0.9374985   0.5625015   0.8125015  )
       444           C   tau( 444) = (   0.9374985   0.8125015   0.0625015  )
       445           C   tau( 445) = (   0.9374985   0.8125015   0.3125015  )
       446           C   tau( 446) = (   0.9374985   0.8125015   0.5625015  )
       447           C   tau( 447) = (   0.9374985   0.8125015   0.8125015  )
       448           C   tau( 448) = (   0.1250000   0.1250000   0.1250000  )
       449           C   tau( 449) = (   0.1250000   0.1250000   0.3750000  )
       450           C   tau( 450) = (   0.1250000   0.1250000   0.6250000  )
       451           C   tau( 451) = (   0.1250000   0.1250000   0.8750000  )
       452           C   tau( 452) = (   0.1250000   0.3750000   0.1250000  )
       453           C   tau( 453) = (   0.1250000   0.3750000   0.3750000  )
       454           C   tau( 454) = (   0.1250000   0.3750000   0.6250000  )
       455           C   tau( 455) = (   0.1250000   0.3750000   0.8750000  )
       456           C   tau( 456) = (   0.1250000   0.6250000   0.1250000  )
       457           C   tau( 457) = (   0.1250000   0.6250000   0.3750000  )
       458           C   tau( 458) = (   0.1250000   0.6250000   0.6250000  )
       459           C   tau( 459) = (   0.1250000   0.6250000   0.8750000  )
       460           C   tau( 460) = (   0.1250000   0.8750000   0.1250000  )
       461           C   tau( 461) = (   0.1250000   0.8750000   0.3750000  )
       462           C   tau( 462) = (   0.1250000   0.8750000   0.6250000  )
       463           C   tau( 463) = (   0.1250000   0.8750000   0.8750000  )
       464           C   tau( 464) = (   0.3750000   0.1250000   0.1250000  )
       465           C   tau( 465) = (   0.3750000   0.1250000   0.3750000  )
       466           C   tau( 466) = (   0.3750000   0.1250000   0.6250000  )
       467           C   tau( 467) = (   0.3750000   0.1250000   0.8750000  )
       468           C   tau( 468) = (   0.3750000   0.3750000   0.1250000  )
       469           C   tau( 469) = (   0.3750000   0.3750000   0.3750000  )
       470           C   tau( 470) = (   0.3750000   0.3750000   0.6250000  )
       471           C   tau( 471) = (   0.3750000   0.3750000   0.8750000  )
       472           C   tau( 472) = (   0.3750000   0.6250000   0.1250000  )
       473           C   tau( 473) = (   0.3750000   0.6250000   0.3750000  )
       474           C   tau( 474) = (   0.3750000   0.6250000   0.6250000  )
       475           C   tau( 475) = (   0.3750000   0.6250000   0.8750000  )
       476           C   tau( 476) = (   0.3750000   0.8750000   0.1250000  )
       477           C   tau( 477) = (   0.3750000   0.8750000   0.3750000  )
       478           C   tau( 478) = (   0.3750000   0.8750000   0.6250000  )
       479           C   tau( 479) = (   0.3750000   0.8750000   0.8750000  )
       480           C   tau( 480) = (   0.6250000   0.1250000   0.1250000  )
       481           C   tau( 481) = (   0.6250000   0.1250000   0.3750000  )
       482           C   tau( 482) = (   0.6250000   0.1250000   0.6250000  )
       483           C   tau( 483) = (   0.6250000   0.1250000   0.8750000  )
       484           C   tau( 484) = (   0.6250000   0.3750000   0.1250000  )
       485           C   tau( 485) = (   0.6250000   0.3750000   0.3750000  )
       486           C   tau( 486) = (   0.6250000   0.3750000   0.6250000  )
       487           C   tau( 487) = (   0.6250000   0.3750000   0.8750000  )
       488           C   tau( 488) = (   0.6250000   0.6250000   0.1250000  )
       489           C   tau( 489) = (   0.6250000   0.6250000   0.3750000  )
       490           C   tau( 490) = (   0.6250000   0.6250000   0.6250000  )
       491           C   tau( 491) = (   0.6250000   0.6250000   0.8750000  )
       492           C   tau( 492) = (   0.6250000   0.8750000   0.1250000  )
       493           C   tau( 493) = (   0.6250000   0.8750000   0.3750000  )
       494           C   tau( 494) = (   0.6250000   0.8750000   0.6250000  )
       495           C   tau( 495) = (   0.6250000   0.8750000   0.8750000  )
       496           C   tau( 496) = (   0.8750000   0.1250000   0.1250000  )
       497           C   tau( 497) = (   0.8750000   0.1250000   0.3750000  )
       498           C   tau( 498) = (   0.8750000   0.1250000   0.6250000  )
       499           C   tau( 499) = (   0.8750000   0.1250000   0.8750000  )
       500           C   tau( 500) = (   0.8750000   0.3750000   0.1250000  )
       501           C   tau( 501) = (   0.8750000   0.3750000   0.3750000  )
       502           C   tau( 502) = (   0.8750000   0.3750000   0.6250000  )
       503           C   tau( 503) = (   0.8750000   0.3750000   0.8750000  )
       504           C   tau( 504) = (   0.8750000   0.6250000   0.1250000  )
       505           C   tau( 505) = (   0.8750000   0.6250000   0.3750000  )
       506           C   tau( 506) = (   0.8750000   0.6250000   0.6250000  )
       507           C   tau( 507) = (   0.8750000   0.6250000   0.8750000  )
       508           C   tau( 508) = (   0.8750000   0.8750000   0.1250000  )
       509           C   tau( 509) = (   0.8750000   0.8750000   0.3750000  )
       510           C   tau( 510) = (   0.8750000   0.8750000   0.6250000  )
       511           C   tau( 511) = (   0.8750000   0.8750000   0.8750000  )

   Crystallographic axes

     site n.     atom                  positions (cryst. coord.)
         1           C   tau(   1) = (  0.0625015  0.1874985  0.3125015  )
         2           C   tau(   2) = (  0.0625015  0.1874985  0.5625015  )
         3           C   tau(   3) = (  0.0625015  0.1874985  0.8125015  )
         4           C   tau(   4) = (  0.0625015  0.4374985  0.0625015  )
         5           C   tau(   5) = (  0.0625015  0.4374985  0.3125015  )
         6           C   tau(   6) = (  0.0625015  0.4374985  0.5625015  )
         7           C   tau(   7) = (  0.0625015  0.4374985  0.8125015  )
         8           C   tau(   8) = (  0.0625015  0.6874985  0.0625015  )
         9           C   tau(   9) = (  0.0625015  0.6874985  0.3125015  )
        10           C   tau(  10) = (  0.0625015  0.6874985  0.5625015  )
        11           C   tau(  11) = (  0.0625015  0.6874985  0.8125015  )
        12           C   tau(  12) = (  0.0625015  0.9374985  0.0625015  )
        13           C   tau(  13) = (  0.0625015  0.9374985  0.3125015  )
        14           C   tau(  14) = (  0.0625015  0.9374985  0.5625015  )
        15           C   tau(  15) = (  0.0625015  0.9374985  0.8125015  )
        16           C   tau(  16) = (  0.3125015  0.1874985  0.0625015  )
        17           C   tau(  17) = (  0.3125015  0.1874985  0.3125015  )
        18           C   tau(  18) = (  0.3125015  0.1874985  0.5625015  )
        19           C   tau(  19) = (  0.3125015  0.1874985  0.8125015  )
        20           C   tau(  20) = (  0.3125015  0.4374985  0.0625015  )
        21           C   tau(  21) = (  0.3125015  0.4374985  0.3125015  )
        22           C   tau(  22) = (  0.3125015  0.4374985  0.5625015  )
        23           C   tau(  23) = (  0.3125015  0.4374985  0.8125015  )
        24           C   tau(  24) = (  0.3125015  0.6874985  0.0625015  )
        25           C   tau(  25) = (  0.3125015  0.6874985  0.3125015  )
        26           C   tau(  26) = (  0.3125015  0.6874985  0.5625015  )
        27           C   tau(  27) = (  0.3125015  0.6874985  0.8125015  )
        28           C   tau(  28) = (  0.3125015  0.9374985  0.0625015  )
        29           C   tau(  29) = (  0.3125015  0.9374985  0.3125015  )
        30           C   tau(  30) = (  0.3125015  0.9374985  0.5625015  )
        31           C   tau(  31) = (  0.3125015  0.9374985  0.8125015  )
        32           C   tau(  32) = (  0.5625015  0.1874985  0.0625015  )
        33           C   tau(  33) = (  0.5625015  0.1874985  0.3125015  )
        34           C   tau(  34) = (  0.5625015  0.1874985  0.5625015  )
        35           C   tau(  35) = (  0.5625015  0.1874985  0.8125015  )
        36           C   tau(  36) = (  0.5625015  0.4374985  0.0625015  )
        37           C   tau(  37) = (  0.5625015  0.4374985  0.3125015  )
        38           C   tau(  38) = (  0.5625015  0.4374985  0.5625015  )
        39           C   tau(  39) = (  0.5625015  0.4374985  0.8125015  )
        40           C   tau(  40) = (  0.5625015  0.6874985  0.0625015  )
        41           C   tau(  41) = (  0.5625015  0.6874985  0.3125015  )
        42           C   tau(  42) = (  0.5625015  0.6874985  0.5625015  )
        43           C   tau(  43) = (  0.5625015  0.6874985  0.8125015  )
        44           C   tau(  44) = (  0.5625015  0.9374985  0.0625015  )
        45           C   tau(  45) = (  0.5625015  0.9374985  0.3125015  )
        46           C   tau(  46) = (  0.5625015  0.9374985  0.5625015  )
        47           C   tau(  47) = (  0.5625015  0.9374985  0.8125015  )
        48           C   tau(  48) = (  0.8125015  0.1874985  0.0625015  )
        49           C   tau(  49) = (  0.8125015  0.1874985  0.3125015  )
        50           C   tau(  50) = (  0.8125015  0.1874985  0.5625015  )
        51           C   tau(  51) = (  0.8125015  0.1874985  0.8125015  )
        52           C   tau(  52) = (  0.8125015  0.4374985  0.0625015  )
        53           C   tau(  53) = (  0.8125015  0.4374985  0.3125015  )
        54           C   tau(  54) = (  0.8125015  0.4374985  0.5625015  )
        55           C   tau(  55) = (  0.8125015  0.4374985  0.8125015  )
        56           C   tau(  56) = (  0.8125015  0.6874985  0.0625015  )
        57           C   tau(  57) = (  0.8125015  0.6874985  0.3125015  )
        58           C   tau(  58) = (  0.8125015  0.6874985  0.5625015  )
        59           C   tau(  59) = (  0.8125015  0.6874985  0.8125015  )
        60           C   tau(  60) = (  0.8125015  0.9374985  0.0625015  )
        61           C   tau(  61) = (  0.8125015  0.9374985  0.3125015  )
        62           C   tau(  62) = (  0.8125015  0.9374985  0.5625015  )
        63           C   tau(  63) = (  0.8125015  0.9374985  0.8125015  )
        64           C   tau(  64) = (  0.0000000  0.0000000  0.1250000  )
        65           C   tau(  65) = (  0.0000000  0.0000000  0.3750000  )
        66           C   tau(  66) = (  0.0000000  0.0000000  0.6250000  )
        67           C   tau(  67) = (  0.0000000  0.0000000  0.8750000  )
        68           C   tau(  68) = (  0.0000000  0.2500000  0.1250000  )
        69           C   tau(  69) = (  0.0000000  0.2500000  0.3750000  )
        70           C   tau(  70) = (  0.0000000  0.2500000  0.6250000  )
        71           C   tau(  71) = (  0.0000000  0.2500000  0.8750000  )
        72           C   tau(  72) = (  0.0000000  0.5000000  0.1250000  )
        73           C   tau(  73) = (  0.0000000  0.5000000  0.3750000  )
        74           C   tau(  74) = (  0.0000000  0.5000000  0.6250000  )
        75           C   tau(  75) = (  0.0000000  0.5000000  0.8750000  )
        76           C   tau(  76) = (  0.0000000  0.7500000  0.1250000  )
        77           C   tau(  77) = (  0.0000000  0.7500000  0.3750000  )
        78           C   tau(  78) = (  0.0000000  0.7500000  0.6250000  )
        79           C   tau(  79) = (  0.0000000  0.7500000  0.8750000  )
        80           C   tau(  80) = (  0.2500000  0.0000000  0.1250000  )
        81           C   tau(  81) = (  0.2500000  0.0000000  0.3750000  )
        82           C   tau(  82) = (  0.2500000  0.0000000  0.6250000  )
        83           C   tau(  83) = (  0.2500000  0.0000000  0.8750000  )
        84           C   tau(  84) = (  0.2500000  0.2500000  0.1250000  )
        85           C   tau(  85) = (  0.2500000  0.2500000  0.3750000  )
        86           C   tau(  86) = (  0.2500000  0.2500000  0.6250000  )
        87           C   tau(  87) = (  0.2500000  0.2500000  0.8750000  )
        88           C   tau(  88) = (  0.2500000  0.5000000  0.1250000  )
        89           C   tau(  89) = (  0.2500000  0.5000000  0.3750000  )
        90           C   tau(  90) = (  0.2500000  0.5000000  0.6250000  )
        91           C   tau(  91) = (  0.2500000  0.5000000  0.8750000  )
        92           C   tau(  92) = (  0.2500000  0.7500000  0.1250000  )
        93           C   tau(  93) = (  0.2500000  0.7500000  0.3750000  )
        94           C   tau(  94) = (  0.2500000  0.7500000  0.6250000  )
        95           C   tau(  95) = (  0.2500000  0.7500000  0.8750000  )
        96           C   tau(  96) = (  0.5000000  0.0000000  0.1250000  )
        97           C   tau(  97) = (  0.5000000  0.0000000  0.3750000  )
        98           C   tau(  98) = (  0.5000000  0.0000000  0.6250000  )
        99           C   tau(  99) = (  0.5000000  0.0000000  0.8750000  )
       100           C   tau( 100) = (  0.5000000  0.2500000  0.1250000  )
       101           C   tau( 101) = (  0.5000000  0.2500000  0.3750000  )
       102           C   tau( 102) = (  0.5000000  0.2500000  0.6250000  )
       103           C   tau( 103) = (  0.5000000  0.2500000  0.8750000  )
       104           C   tau( 104) = (  0.5000000  0.5000000  0.1250000  )
       105           C   tau( 105) = (  0.5000000  0.5000000  0.3750000  )
       106           C   tau( 106) = (  0.5000000  0.5000000  0.6250000  )
       107           C   tau( 107) = (  0.5000000  0.5000000  0.8750000  )
       108           C   tau( 108) = (  0.5000000  0.7500000  0.1250000  )
       109           C   tau( 109) = (  0.5000000  0.7500000  0.3750000  )
       110           C   tau( 110) = (  0.5000000  0.7500000  0.6250000  )
       111           C   tau( 111) = (  0.5000000  0.7500000  0.8750000  )
       112           C   tau( 112) = (  0.7500000  0.0000000  0.1250000  )
       113           C   tau( 113) = (  0.7500000  0.0000000  0.3750000  )
       114           C   tau( 114) = (  0.7500000  0.0000000  0.6250000  )
       115           C   tau( 115) = (  0.7500000  0.0000000  0.8750000  )
       116           C   tau( 116) = (  0.7500000  0.2500000  0.1250000  )
       117           C   tau( 117) = (  0.7500000  0.2500000  0.3750000  )
       118           C   tau( 118) = (  0.7500000  0.2500000  0.6250000  )
       119           C   tau( 119) = (  0.7500000  0.2500000  0.8750000  )
       120           C   tau( 120) = (  0.7500000  0.5000000  0.1250000  )
       121           C   tau( 121) = (  0.7500000  0.5000000  0.3750000  )
       122           C   tau( 122) = (  0.7500000  0.5000000  0.6250000  )
       123           C   tau( 123) = (  0.7500000  0.5000000  0.8750000  )
       124           C   tau( 124) = (  0.7500000  0.7500000  0.1250000  )
       125           C   tau( 125) = (  0.7500000  0.7500000  0.3750000  )
       126           C   tau( 126) = (  0.7500000  0.7500000  0.6250000  )
       127           C   tau( 127) = (  0.7500000  0.7500000  0.8750000  )
       128           C   tau( 128) = (  0.0625015  0.0625015  0.1874985  )
       129           C   tau( 129) = (  0.0625015  0.0625015  0.4374985  )
       130           C   tau( 130) = (  0.0625015  0.0625015  0.6874985  )
       131           C   tau( 131) = (  0.0625015  0.0625015  0.9374985  )
       132           C   tau( 132) = (  0.0625015  0.3125015  0.1874985  )
       133           C   tau( 133) = (  0.0625015  0.3125015  0.4374985  )
       134           C   tau( 134) = (  0.0625015  0.3125015  0.6874985  )
       135           C   tau( 135) = (  0.0625015  0.3125015  0.9374985  )
       136           C   tau( 136) = (  0.0625015  0.5625015  0.1874985  )
       137           C   tau( 137) = (  0.0625015  0.5625015  0.4374985  )
       138           C   tau( 138) = (  0.0625015  0.5625015  0.6874985  )
       139           C   tau( 139) = (  0.0625015  0.5625015  0.9374985  )
       140           C   tau( 140) = (  0.0625015  0.8125015  0.1874985  )
       141           C   tau( 141) = (  0.0625015  0.8125015  0.4374985  )
       142           C   tau( 142) = (  0.0625015  0.8125015  0.6874985  )
       143           C   tau( 143) = (  0.0625015  0.8125015  0.9374985  )
       144           C   tau( 144) = (  0.3125015  0.0625015  0.1874985  )
       145           C   tau( 145) = (  0.3125015  0.0625015  0.4374985  )
       146           C   tau( 146) = (  0.3125015  0.0625015  0.6874985  )
       147           C   tau( 147) = (  0.3125015  0.0625015  0.9374985  )
       148           C   tau( 148) = (  0.3125015  0.3125015  0.1874985  )
       149           C   tau( 149) = (  0.3125015  0.3125015  0.4374985  )
       150           C   tau( 150) = (  0.3125015  0.3125015  0.6874985  )
       151           C   tau( 151) = (  0.3125015  0.3125015  0.9374985  )
       152           C   tau( 152) = (  0.3125015  0.5625015  0.1874985  )
       153           C   tau( 153) = (  0.3125015  0.5625015  0.4374985  )
       154           C   tau( 154) = (  0.3125015  0.5625015  0.6874985  )
       155           C   tau( 155) = (  0.3125015  0.5625015  0.9374985  )
       156           C   tau( 156) = (  0.3125015  0.8125015  0.1874985  )
       157           C   tau( 157) = (  0.3125015  0.8125015  0.4374985  )
       158           C   tau( 158) = (  0.3125015  0.8125015  0.6874985  )
       159           C   tau( 159) = (  0.3125015  0.8125015  0.9374985  )
       160           C   tau( 160) = (  0.5625015  0.0625015  0.1874985  )
       161           C   tau( 161) = (  0.5625015  0.0625015  0.4374985  )
       162           C   tau( 162) = (  0.5625015  0.0625015  0.6874985  )
       163           C   tau( 163) = (  0.5625015  0.0625015  0.9374985  )
       164           C   tau( 164) = (  0.5625015  0.3125015  0.1874985  )
       165           C   tau( 165) = (  0.5625015  0.3125015  0.4374985  )
       166           C   tau( 166) = (  0.5625015  0.3125015  0.6874985  )
       167           C   tau( 167) = (  0.5625015  0.3125015  0.9374985  )
       168           C   tau( 168) = (  0.5625015  0.5625015  0.1874985  )
       169           C   tau( 169) = (  0.5625015  0.5625015  0.4374985  )
       170           C   tau( 170) = (  0.5625015  0.5625015  0.6874985  )
       171           C   tau( 171) = (  0.5625015  0.5625015  0.9374985  )
       172           C   tau( 172) = (  0.5625015  0.8125015  0.1874985  )
       173           C   tau( 173) = (  0.5625015  0.8125015  0.4374985  )
       174           C   tau( 174) = (  0.5625015  0.8125015  0.6874985  )
       175           C   tau( 175) = (  0.5625015  0.8125015  0.9374985  )
       176           C   tau( 176) = (  0.8125015  0.0625015  0.1874985  )
       177           C   tau( 177) = (  0.8125015  0.0625015  0.4374985  )
       178           C   tau( 178) = (  0.8125015  0.0625015  0.6874985  )
       179           C   tau( 179) = (  0.8125015  0.0625015  0.9374985  )
       180           C   tau( 180) = (  0.8125015  0.3125015  0.1874985  )
       181           C   tau( 181) = (  0.8125015  0.3125015  0.4374985  )
       182           C   tau( 182) = (  0.8125015  0.3125015  0.6874985  )
       183           C   tau( 183) = (  0.8125015  0.3125015  0.9374985  )
       184           C   tau( 184) = (  0.8125015  0.5625015  0.1874985  )
       185           C   tau( 185) = (  0.8125015  0.5625015  0.4374985  )
       186           C   tau( 186) = (  0.8125015  0.5625015  0.6874985  )
       187           C   tau( 187) = (  0.8125015  0.5625015  0.9374985  )
       188           C   tau( 188) = (  0.8125015  0.8125015  0.1874985  )
       189           C   tau( 189) = (  0.8125015  0.8125015  0.4374985  )
       190           C   tau( 190) = (  0.8125015  0.8125015  0.6874985  )
       191           C   tau( 191) = (  0.8125015  0.8125015  0.9374985  )
       192           C   tau( 192) = (  0.0000000  0.1250000  0.0000000  )
       193           C   tau( 193) = (  0.0000000  0.1250000  0.2500000  )
       194           C   tau( 194) = (  0.0000000  0.1250000  0.5000000  )
       195           C   tau( 195) = (  0.0000000  0.1250000  0.7500000  )
       196           C   tau( 196) = (  0.0000000  0.3750000  0.0000000  )
       197           C   tau( 197) = (  0.0000000  0.3750000  0.2500000  )
       198           C   tau( 198) = (  0.0000000  0.3750000  0.5000000  )
       199           C   tau( 199) = (  0.0000000  0.3750000  0.7500000  )
       200           C   tau( 200) = (  0.0000000  0.6250000  0.0000000  )
       201           C   tau( 201) = (  0.0000000  0.6250000  0.2500000  )
       202           C   tau( 202) = (  0.0000000  0.6250000  0.5000000  )
       203           C   tau( 203) = (  0.0000000  0.6250000  0.7500000  )
       204           C   tau( 204) = (  0.0000000  0.8750000  0.0000000  )
       205           C   tau( 205) = (  0.0000000  0.8750000  0.2500000  )
       206           C   tau( 206) = (  0.0000000  0.8750000  0.5000000  )
       207           C   tau( 207) = (  0.0000000  0.8750000  0.7500000  )
       208           C   tau( 208) = (  0.2500000  0.1250000  0.0000000  )
       209           C   tau( 209) = (  0.2500000  0.1250000  0.2500000  )
       210           C   tau( 210) = (  0.2500000  0.1250000  0.5000000  )
       211           C   tau( 211) = (  0.2500000  0.1250000  0.7500000  )
       212           C   tau( 212) = (  0.2500000  0.3750000  0.0000000  )
       213           C   tau( 213) = (  0.2500000  0.3750000  0.2500000  )
       214           C   tau( 214) = (  0.2500000  0.3750000  0.5000000  )
       215           C   tau( 215) = (  0.2500000  0.3750000  0.7500000  )
       216           C   tau( 216) = (  0.2500000  0.6250000  0.0000000  )
       217           C   tau( 217) = (  0.2500000  0.6250000  0.2500000  )
       218           C   tau( 218) = (  0.2500000  0.6250000  0.5000000  )
       219           C   tau( 219) = (  0.2500000  0.6250000  0.7500000  )
       220           C   tau( 220) = (  0.2500000  0.8750000  0.0000000  )
       221           C   tau( 221) = (  0.2500000  0.8750000  0.2500000  )
       222           C   tau( 222) = (  0.2500000  0.8750000  0.5000000  )
       223           C   tau( 223) = (  0.2500000  0.8750000  0.7500000  )
       224           C   tau( 224) = (  0.5000000  0.1250000  0.0000000  )
       225           C   tau( 225) = (  0.5000000  0.1250000  0.2500000  )
       226           C   tau( 226) = (  0.5000000  0.1250000  0.5000000  )
       227           C   tau( 227) = (  0.5000000  0.1250000  0.7500000  )
       228           C   tau( 228) = (  0.5000000  0.3750000  0.0000000  )
       229           C   tau( 229) = (  0.5000000  0.3750000  0.2500000  )
       230           C   tau( 230) = (  0.5000000  0.3750000  0.5000000  )
       231           C   tau( 231) = (  0.5000000  0.3750000  0.7500000  )
       232           C   tau( 232) = (  0.5000000  0.6250000  0.0000000  )
       233           C   tau( 233) = (  0.5000000  0.6250000  0.2500000  )
       234           C   tau( 234) = (  0.5000000  0.6250000  0.5000000  )
       235           C   tau( 235) = (  0.5000000  0.6250000  0.7500000  )
       236           C   tau( 236) = (  0.5000000  0.8750000  0.0000000  )
       237           C   tau( 237) = (  0.5000000  0.8750000  0.2500000  )
       238           C   tau( 238) = (  0.5000000  0.8750000  0.5000000  )
       239           C   tau( 239) = (  0.5000000  0.8750000  0.7500000  )
       240           C   tau( 240) = (  0.7500000  0.1250000  0.0000000  )
       241           C   tau( 241) = (  0.7500000  0.1250000  0.2500000  )
       242           C   tau( 242) = (  0.7500000  0.1250000  0.5000000  )
       243           C   tau( 243) = (  0.7500000  0.1250000  0.7500000  )
       244           C   tau( 244) = (  0.7500000  0.3750000  0.0000000  )
       245           C   tau( 245) = (  0.7500000  0.3750000  0.2500000  )
       246           C   tau( 246) = (  0.7500000  0.3750000  0.5000000  )
       247           C   tau( 247) = (  0.7500000  0.3750000  0.7500000  )
       248           C   tau( 248) = (  0.7500000  0.6250000  0.0000000  )
       249           C   tau( 249) = (  0.7500000  0.6250000  0.2500000  )
       250           C   tau( 250) = (  0.7500000  0.6250000  0.5000000  )
       251           C   tau( 251) = (  0.7500000  0.6250000  0.7500000  )
       252           C   tau( 252) = (  0.7500000  0.8750000  0.0000000  )
       253           C   tau( 253) = (  0.7500000  0.8750000  0.2500000  )
       254           C   tau( 254) = (  0.7500000  0.8750000  0.5000000  )
       255           C   tau( 255) = (  0.7500000  0.8750000  0.7500000  )
       256           C   tau( 256) = (  0.1874985  0.1874985  0.1874985  )
       257           C   tau( 257) = (  0.1874985  0.1874985  0.4374985  )
       258           C   tau( 258) = (  0.1874985  0.1874985  0.6874985  )
       259           C   tau( 259) = (  0.1874985  0.1874985  0.9374985  )
       260           C   tau( 260) = (  0.1874985  0.4374985  0.1874985  )
       261           C   tau( 261) = (  0.1874985  0.4374985  0.4374985  )
       262           C   tau( 262) = (  0.1874985  0.4374985  0.6874985  )
       263           C   tau( 263) = (  0.1874985  0.4374985  0.9374985  )
       264           C   tau( 264) = (  0.1874985  0.6874985  0.1874985  )
       265           C   tau( 265) = (  0.1874985  0.6874985  0.4374985  )
       266           C   tau( 266) = (  0.1874985  0.6874985  0.6874985  )
       267           C   tau( 267) = (  0.1874985  0.6874985  0.9374985  )
       268           C   tau( 268) = (  0.1874985  0.9374985  0.1874985  )
       269           C   tau( 269) = (  0.1874985  0.9374985  0.4374985  )
       270           C   tau( 270) = (  0.1874985  0.9374985  0.6874985  )
       271           C   tau( 271) = (  0.1874985  0.9374985  0.9374985  )
       272           C   tau( 272) = (  0.4374985  0.1874985  0.1874985  )
       273           C   tau( 273) = (  0.4374985  0.1874985  0.4374985  )
       274           C   tau( 274) = (  0.4374985  0.1874985  0.6874985  )
       275           C   tau( 275) = (  0.4374985  0.1874985  0.9374985  )
       276           C   tau( 276) = (  0.4374985  0.4374985  0.1874985  )
       277           C   tau( 277) = (  0.4374985  0.4374985  0.4374985  )
       278           C   tau( 278) = (  0.4374985  0.4374985  0.6874985  )
       279           C   tau( 279) = (  0.4374985  0.4374985  0.9374985  )
       280           C   tau( 280) = (  0.4374985  0.6874985  0.1874985  )
       281           C   tau( 281) = (  0.4374985  0.6874985  0.4374985  )
       282           C   tau( 282) = (  0.4374985  0.6874985  0.6874985  )
       283           C   tau( 283) = (  0.4374985  0.6874985  0.9374985  )
       284           C   tau( 284) = (  0.4374985  0.9374985  0.1874985  )
       285           C   tau( 285) = (  0.4374985  0.9374985  0.4374985  )
       286           C   tau( 286) = (  0.4374985  0.9374985  0.6874985  )
       287           C   tau( 287) = (  0.4374985  0.9374985  0.9374985  )
       288           C   tau( 288) = (  0.6874985  0.1874985  0.1874985  )
       289           C   tau( 289) = (  0.6874985  0.1874985  0.4374985  )
       290           C   tau( 290) = (  0.6874985  0.1874985  0.6874985  )
       291           C   tau( 291) = (  0.6874985  0.1874985  0.9374985  )
       292           C   tau( 292) = (  0.6874985  0.4374985  0.1874985  )
       293           C   tau( 293) = (  0.6874985  0.4374985  0.4374985  )
       294           C   tau( 294) = (  0.6874985  0.4374985  0.6874985  )
       295           C   tau( 295) = (  0.6874985  0.4374985  0.9374985  )
       296           C   tau( 296) = (  0.6874985  0.6874985  0.1874985  )
       297           C   tau( 297) = (  0.6874985  0.6874985  0.4374985  )
       298           C   tau( 298) = (  0.6874985  0.6874985  0.6874985  )
       299           C   tau( 299) = (  0.6874985  0.6874985  0.9374985  )
       300           C   tau( 300) = (  0.6874985  0.9374985  0.1874985  )
       301           C   tau( 301) = (  0.6874985  0.9374985  0.4374985  )
       302           C   tau( 302) = (  0.6874985  0.9374985  0.6874985  )
       303           C   tau( 303) = (  0.6874985  0.9374985  0.9374985  )
       304           C   tau( 304) = (  0.9374985  0.1874985  0.1874985  )
       305           C   tau( 305) = (  0.9374985  0.1874985  0.4374985  )
       306           C   tau( 306) = (  0.9374985  0.1874985  0.6874985  )
       307           C   tau( 307) = (  0.9374985  0.1874985  0.9374985  )
       308           C   tau( 308) = (  0.9374985  0.4374985  0.1874985  )
       309           C   tau( 309) = (  0.9374985  0.4374985  0.4374985  )
       310           C   tau( 310) = (  0.9374985  0.4374985  0.6874985  )
       311           C   tau( 311) = (  0.9374985  0.4374985  0.9374985  )
       312           C   tau( 312) = (  0.9374985  0.6874985  0.1874985  )
       313           C   tau( 313) = (  0.9374985  0.6874985  0.4374985  )
       314           C   tau( 314) = (  0.9374985  0.6874985  0.6874985  )
       315           C   tau( 315) = (  0.9374985  0.6874985  0.9374985  )
       316           C   tau( 316) = (  0.9374985  0.9374985  0.1874985  )
       317           C   tau( 317) = (  0.9374985  0.9374985  0.4374985  )
       318           C   tau( 318) = (  0.9374985  0.9374985  0.6874985  )
       319           C   tau( 319) = (  0.9374985  0.9374985  0.9374985  )
       320           C   tau( 320) = (  0.1250000  0.0000000  0.0000000  )
       321           C   tau( 321) = (  0.1250000  0.0000000  0.2500000  )
       322           C   tau( 322) = (  0.1250000  0.0000000  0.5000000  )
       323           C   tau( 323) = (  0.1250000  0.0000000  0.7500000  )
       324           C   tau( 324) = (  0.1250000  0.2500000  0.0000000  )
       325           C   tau( 325) = (  0.1250000  0.2500000  0.2500000  )
       326           C   tau( 326) = (  0.1250000  0.2500000  0.5000000  )
       327           C   tau( 327) = (  0.1250000  0.2500000  0.7500000  )
       328           C   tau( 328) = (  0.1250000  0.5000000  0.0000000  )
       329           C   tau( 329) = (  0.1250000  0.5000000  0.2500000  )
       330           C   tau( 330) = (  0.1250000  0.5000000  0.5000000  )
       331           C   tau( 331) = (  0.1250000  0.5000000  0.7500000  )
       332           C   tau( 332) = (  0.1250000  0.7500000  0.0000000  )
       333           C   tau( 333) = (  0.1250000  0.7500000  0.2500000  )
       334           C   tau( 334) = (  0.1250000  0.7500000  0.5000000  )
       335           C   tau( 335) = (  0.1250000  0.7500000  0.7500000  )
       336           C   tau( 336) = (  0.3750000  0.0000000  0.0000000  )
       337           C   tau( 337) = (  0.3750000  0.0000000  0.2500000  )
       338           C   tau( 338) = (  0.3750000  0.0000000  0.5000000  )
       339           C   tau( 339) = (  0.3750000  0.0000000  0.7500000  )
       340           C   tau( 340) = (  0.3750000  0.2500000  0.0000000  )
       341           C   tau( 341) = (  0.3750000  0.2500000  0.2500000  )
       342           C   tau( 342) = (  0.3750000  0.2500000  0.5000000  )
       343           C   tau( 343) = (  0.3750000  0.2500000  0.7500000  )
       344           C   tau( 344) = (  0.3750000  0.5000000  0.0000000  )
       345           C   tau( 345) = (  0.3750000  0.5000000  0.2500000  )
       346           C   tau( 346) = (  0.3750000  0.5000000  0.5000000  )
       347           C   tau( 347) = (  0.3750000  0.5000000  0.7500000  )
       348           C   tau( 348) = (  0.3750000  0.7500000  0.0000000  )
       349           C   tau( 349) = (  0.3750000  0.7500000  0.2500000  )
       350           C   tau( 350) = (  0.3750000  0.7500000  0.5000000  )
       351           C   tau( 351) = (  0.3750000  0.7500000  0.7500000  )
       352           C   tau( 352) = (  0.6250000  0.0000000  0.0000000  )
       353           C   tau( 353) = (  0.6250000  0.0000000  0.2500000  )
       354           C   tau( 354) = (  0.6250000  0.0000000  0.5000000  )
       355           C   tau( 355) = (  0.6250000  0.0000000  0.7500000  )
       356           C   tau( 356) = (  0.6250000  0.2500000  0.0000000  )
       357           C   tau( 357) = (  0.6250000  0.2500000  0.2500000  )
       358           C   tau( 358) = (  0.6250000  0.2500000  0.5000000  )
       359           C   tau( 359) = (  0.6250000  0.2500000  0.7500000  )
       360           C   tau( 360) = (  0.6250000  0.5000000  0.0000000  )
       361           C   tau( 361) = (  0.6250000  0.5000000  0.2500000  )
       362           C   tau( 362) = (  0.6250000  0.5000000  0.5000000  )
       363           C   tau( 363) = (  0.6250000  0.5000000  0.7500000  )
       364           C   tau( 364) = (  0.6250000  0.7500000  0.0000000  )
       365           C   tau( 365) = (  0.6250000  0.7500000  0.2500000  )
       366           C   tau( 366) = (  0.6250000  0.7500000  0.5000000  )
       367           C   tau( 367) = (  0.6250000  0.7500000  0.7500000  )
       368           C   tau( 368) = (  0.8750000  0.0000000  0.0000000  )
       369           C   tau( 369) = (  0.8750000  0.0000000  0.2500000  )
       370           C   tau( 370) = (  0.8750000  0.0000000  0.5000000  )
       371           C   tau( 371) = (  0.8750000  0.0000000  0.7500000  )
       372           C   tau( 372) = (  0.8750000  0.2500000  0.0000000  )
       373           C   tau( 373) = (  0.8750000  0.2500000  0.2500000  )
       374           C   tau( 374) = (  0.8750000  0.2500000  0.5000000  )
       375           C   tau( 375) = (  0.8750000  0.2500000  0.7500000  )
       376           C   tau( 376) = (  0.8750000  0.5000000  0.0000000  )
       377           C   tau( 377) = (  0.8750000  0.5000000  0.2500000  )
       378           C   tau( 378) = (  0.8750000  0.5000000  0.5000000  )
       379           C   tau( 379) = (  0.8750000  0.5000000  0.7500000  )
       380           C   tau( 380) = (  0.8750000  0.7500000  0.0000000  )
       381           C   tau( 381) = (  0.8750000  0.7500000  0.2500000  )
       382           C   tau( 382) = (  0.8750000  0.7500000  0.5000000  )
       383           C   tau( 383) = (  0.8750000  0.7500000  0.7500000  )
       384           C   tau( 384) = (  0.1874985  0.0625015  0.0625015  )
       385           C   tau( 385) = (  0.1874985  0.0625015  0.3125015  )
       386           C   tau( 386) = (  0.1874985  0.0625015  0.5625015  )
       387           C   tau( 387) = (  0.1874985  0.0625015  0.8125015  )
       388           C   tau( 388) = (  0.1874985  0.3125015  0.0625015  )
       389           C   tau( 389) = (  0.1874985  0.3125015  0.3125015  )
       390           C   tau( 390) = (  0.1874985  0.3125015  0.5625015  )
       391           C   tau( 391) = (  0.1874985  0.3125015  0.8125015  )
       392           C   tau( 392) = (  0.1874985  0.5625015  0.0625015  )
       393           C   tau( 393) = (  0.1874985  0.5625015  0.3125015  )
       394           C   tau( 394) = (  0.1874985  0.5625015  0.5625015  )
       395           C   tau( 395) = (  0.1874985  0.5625015  0.8125015  )
       396           C   tau( 396) = (  0.1874985  0.8125015  0.0625015  )
       397           C   tau( 397) = (  0.1874985  0.8125015  0.3125015  )
       398           C   tau( 398) = (  0.1874985  0.8125015  0.5625015  )
       399           C   tau( 399) = (  0.1874985  0.8125015  0.8125015  )
       400           C   tau( 400) = (  0.4374985  0.0625015  0.0625015  )
       401           C   tau( 401) = (  0.4374985  0.0625015  0.3125015  )
       402           C   tau( 402) = (  0.4374985  0.0625015  0.5625015  )
       403           C   tau( 403) = (  0.4374985  0.0625015  0.8125015  )
       404           C   tau( 404) = (  0.4374985  0.3125015  0.0625015  )
       405           C   tau( 405) = (  0.4374985  0.3125015  0.3125015  )
       406           C   tau( 406) = (  0.4374985  0.3125015  0.5625015  )
       407           C   tau( 407) = (  0.4374985  0.3125015  0.8125015  )
       408           C   tau( 408) = (  0.4374985  0.5625015  0.0625015  )
       409           C   tau( 409) = (  0.4374985  0.5625015  0.3125015  )
       410           C   tau( 410) = (  0.4374985  0.5625015  0.5625015  )
       411           C   tau( 411) = (  0.4374985  0.5625015  0.8125015  )
       412           C   tau( 412) = (  0.4374985  0.8125015  0.0625015  )
       413           C   tau( 413) = (  0.4374985  0.8125015  0.3125015  )
       414           C   tau( 414) = (  0.4374985  0.8125015  0.5625015  )
       415           C   tau( 415) = (  0.4374985  0.8125015  0.8125015  )
       416           C   tau( 416) = (  0.6874985  0.0625015  0.0625015  )
       417           C   tau( 417) = (  0.6874985  0.0625015  0.3125015  )
       418           C   tau( 418) = (  0.6874985  0.0625015  0.5625015  )
       419           C   tau( 419) = (  0.6874985  0.0625015  0.8125015  )
       420           C   tau( 420) = (  0.6874985  0.3125015  0.0625015  )
       421           C   tau( 421) = (  0.6874985  0.3125015  0.3125015  )
       422           C   tau( 422) = (  0.6874985  0.3125015  0.5625015  )
       423           C   tau( 423) = (  0.6874985  0.3125015  0.8125015  )
       424           C   tau( 424) = (  0.6874985  0.5625015  0.0625015  )
[...]
              0.218443599620930E+03
              0.135616441612981E+02
              0.344884449123554E+02
              0.157960542125519E+03
              0.517835720657470E+02
             -0.988261461164991E+02
             -0.185143345459425E+03
              0.101158070003726E+01
             -0.217190567575705E+03
              0.740792514395252E+02
             -0.243603433250656E+02
             -0.747488447431792E+02
              0.683569953637109E+02
              0.330161527773498E+02
              0.780021550355384E+02
             -0.215964058678321E+01
              0.114969762234785E+03
             -0.209821012418834E+03
             -0.986695400886867E+01
             -0.190505415332043E+03
              0.611376723390035E+02
              0.930694929814488E+02
             -0.178217768089460E+02
             -0.553959787770929E+02
              0.162537269423981E+03
             -0.733275468579307E+02
              0.511718588137130E+02
             -0.342562437373258E+02
              0.127925607805095E+03
              0.106257343437473E+03
             -0.482754085679790E+02
              0.109647445679964E+03
              0.410537482744228E+02
             -0.112562392850066E+03
             -0.560081140365600E+02
              0.172127347699407E+03
              0.815712897902195E+02
              0.481197510556512E+00
             -0.224839300299752E+02
              0.272740749414879E+03
              0.156331281754678E+03
              0.504868087720764E+02
             -0.194150204853539E+03
              0.269685244612263E+03
             -0.141966461573628E+03
             -0.166737807776533E+03
             -0.226597727874602E+03
              0.112596588804381E+03
             -0.200210070983611E+03
              0.896092521560781E+02
              0.174933223161372E+03
              0.111074002981412E+03
              0.547739640112952E+02
              0.705014855328941E+02
             -0.178248923524404E+03
             -0.592647063472409E+02
             -0.501910623975531E+02
              0.959349528666090E+02
              0.162572585528445E+03
              0.189276300144619E+03
              0.158189059937621E+03
             -0.387233854979015E+02
              0.383002550525027E+02
             -0.152097470455210E+02
             -0.579051224257191E+02
              0.627494491064431E+02
              0.655918660240684E+02
             -0.919955925692502E+02
             -0.123534788051265E+03
             -0.434843060434563E+02
              0.156850166939225E+03
              0.780220026264053E+02
             -0.101743785692280E+03
             -0.134949048594143E+03
             -0.176065969682675E+03
             -0.784604112091989E+01
              0.378117288141677E+02
             -0.742714794065855E+02
              0.265738967100834E+03
              0.228706695904668E+02
             -0.317480337249693E+03
              0.710589487855402E+02
              0.154718030627156E+03
             -0.669184535486326E+02
              0.146281920622047E+02
             -0.101776978927154E+03
              0.124959487531217E+03
              0.474298973852016E+02
             -0.160061026757797E+03
              0.195696431863758E+03
             -0.175295637838620E+02
             -0.106308649757656E+03
             -0.101795378112040E+03
              0.369059172954009E+03
              0.178555723234104E+03
             -0.394079580379455E+02
              0.105649712300019E+03
             -0.139317385550251E+03
             -0.214807769434897E+02
             -0.166576697635202E+03
              0.717722542345632E+02
              0.954156315381078E+02
              0.129454603740175E+03
             -0.554358119721637E+02
              0.165095818879720E+02
              0.143523405178092E+03
              0.713174262529978E+02
              0.934202687834368E+02
              0.435195297678475E+02
             -0.354127030746990E+02
             -0.390539343077751E+01
             -0.250115862680944E+02
              0.370013025406802E+02
              0.148475389564647E+02
             -0.117784518407915E+03
              0.219281097177040E+03
              0.929797965249015E+02
             -0.142633953166969E+03
             -0.976805563044815E+02
             -0.159865478719575E+03
             -0.812133951556862E+02
             -0.512731870078142E+02
             -0.125524022032560E+03
             -0.127119056861573E+03
              0.196091441994741E+03
              0.132781913329047E+03
             -0.311545438918873E+02
              0.173274965693967E+03
              0.467331024080358E+02
             -0.301361196874013E+03
              0.155125155197721E+03
              0.458056152054277E+02
              0.141675188389985E+03
              0.364594181243432E+02
              0.383206018970110E+02
              0.330116615236154E+02
              0.863327132708712E+02
             -0.111810128073549E+03
             -0.643161656404055E+02
             -0.977465494841583E+02
             -0.688683559154858E+02
              0.415906773113313E+02
             -0.107174852541933E+03
              0.419326860535532E+02
              0.610349544319603E+02
             -0.731268904099843E+02
             -0.294869311358451E+02
             -0.814299629643125E+01
              0.188926854396514E+03
              0.143761734384211E+02
              0.204635343220726E+03
              0.530219653117119E+02
             -0.233462838518325E+03
             -0.905286140766468E+02
              0.793224429915253E+02
              0.154556521863359E+03
              0.581843664403307E+02
              0.608168723728675E+02
              0.164348606526287E+03
             -0.112157899520844E+03
             -0.174157060789347E+03
              0.204213615110610E+03
             -0.210153685582486E+02
             -0.232656234614270E+03
              0.781495238582556E+02
              0.150709938259214E+03
             -0.238707082225881E+02
             -0.118522368739432E+03
             -0.593397968010493E+01
              0.186402411948443E+02
             -0.714106176968743E+02
              0.387537692397332E+02
             -0.279478137048671E+02
              0.309278863320484E+03
              0.702934690131754E+02
             -0.155066557731527E+03
              0.452251713775753E+02
              0.206924406187854E+03
             -0.115477431360324E+03
             -0.611009984017868E+02
             -0.111680089840004E+03
              0.728141998889328E+02
              0.499621473194157E+02
              0.457732969030051E+02
             -0.193262375142160E+01
              0.220729254848209E+03
             -0.144343877694922E+03
             -0.109631448580830E+03
             -0.104760621514944E+03
              0.108792999432028E+03
              0.209815864258200E+03
             -0.659295288782522E+01
              0.901735309459822E+02
             -0.111861869094309E+03
             -0.107945838792257E+02
             -0.304626329907092E+02
             -0.449038154157062E+02
             -0.555879609408718E+02
             -0.578017625612671E+02
             -0.373417956713706E+02
              0.566494641201842E+02
              0.554391470825585E+02
             -0.157116231748187E+03
              0.109954240143380E+03
             -0.174650547509251E+03
              0.126583466919172E+03
             -0.172211090365601E+03
              0.258818879281298E+03
              0.127812875514921E+03
              0.126746908211381E+03
              0.265838134995854E+02
              0.154375562593177E+02
             -0.324696479828677E+03
              0.632679373803350E+02
              0.182654594604533E+02
              0.694206987463986E+01
             -0.405184388308051E+02
              0.232329117279697E+03
             -0.105234506672529E+03
             -0.840392291184235E+02
             -0.253986102812126E+03
             -0.861275719541027E+02
             -0.101199570829895E+03
             -0.106890140017264E+03
             -0.257368439232871E+02
             -0.459103405475296E+02
             -0.665023907373318E+02
             -0.107299519672064E+03
              0.807697767335958E+02
              0.254214973340598E+03
              0.220635748685317E+03
             -0.737166936627384E+02
             -0.275033740895224E+03
             -0.108933371560045E+03
              0.696388738108082E+02
              0.485267421330872E+02
              0.664700139819381E+02
              0.691841503965613E+02
              0.213083727586175E+02
              0.223834677050307E+03
             -0.588781097703342E+02
              0.133176777812038E+03
              0.431777631460652E+02
             -0.835597836912195E+02
             -0.584912074323275E+02
              0.112820665343121E+03
             -0.482132584302024E+02
             -0.560564542721137E+02
             -0.303431772865450E+02
              0.143915325954286E+03
             -0.179584698972513E+03
             -0.415384019035641E+02
             -0.156784578957701E+03
             -0.340389903905746E+03
              0.162212612735897E+02
             -0.348080277577254E+02
              0.119344006923650E+03
              0.127345554172434E+03
              0.193024689515799E+03
             -0.117693873494859E+03
              0.200380269112312E+03
              0.470185575458393E+02
             -0.380002113038313E+02
              0.417783480083354E+02
             -0.795079521406192E+02
             -0.515526243009813E+02
              0.979504469031808E+02
             -0.109474163838847E+03
              0.251895078576970E+03
             -0.620727313850307E+02
             -0.137521519728749E+03
              0.248722419662094E+03
             -0.145373214150362E+03
             -0.343476511305321E+02
              0.256987964645920E+02
              0.721531665236945E+02
             -0.115923780008498E+03
             -0.898027872128678E+02
              0.117454409150161E+03
             -0.224560124179158E+03
              0.148409118847816E+03
              0.266566612110514E+02
              0.117207776044989E+03
              0.161869599428791E+03
              0.215252692582154E+02
             -0.190345783413644E+03
             -0.954982271421007E+02
             -0.161809359988469E+03
             -0.956483897424905E+02
             -0.617946700968394E+02
              0.253123429505919E+02
             -0.528132204493338E+02
              0.141360555361307E+02
             -0.276042961008959E+03
             -0.990255811496240E+01
             -0.161109708686154E+03
              0.146933478667705E+03
             -0.626748691355834E+02
             -0.195571367601680E+02
              0.111861404289673E+03
              0.553828796421467E+01
              0.121823208074790E+03
             -0.189712284831052E+03
              0.469264405028357E+02
              0.265563372766942E+02
              0.627652338550704E+02
              0.152562475367899E+03
             -0.117881948141049E+02
             -0.178393050481647E+03
             -0.890508252530233E+02
             -0.640503077684571E+02
             -0.357485780088723E+02
              0.147170717627412E+03
              0.989218948315752E+02
             -0.771535374643147E+02
             -0.997353974975838E+02
              0.829495248261051E+02
              0.749914693534122E+02
             -0.190552436114951E+03
              0.601637364625302E+02
              0.143188646408663E+03
             -0.112133454858092E+02
              0.162319425566730E+03
              0.954056790215546E+02
              0.124338537886730E+03
              0.176734917462120E+03
              0.642444744967958E+01
             -0.290344465650643E+03
              0.264436745480736E+02
              0.315304137071429E+03
              0.210017924677222E+03
             -0.148072162791414E+03
              0.111239205248540E+02
              0.174849809760884E+03
              0.161476401950734E+03
              0.689440580241892E+02
             -0.495856599645458E+02
              0.765924002005978E+02
              0.189732334620617E+03
             -0.650570315761734E+02
             -0.626550316975898E+02
              0.108861721286297E+03
             -0.164542519903940E+02
              0.877961114526884E+02
              0.272890581602269E+00
              0.208942652513766E+03
             -0.705941893205974E+02
              0.291864388394517E+02
             -0.113204100717751E+03
              0.101894326297213E+03
             -0.126284227605439E+02
              0.162670810394561E+03
              0.114054922766011E+02
              0.452753791003742E+02
             -0.108597246435976E+03
             -0.594057903011436E+02
             -0.333092739030483E+02
             -0.136411821959216E+02
              0.171441824632504E+03
              0.488449409985303E+02
              0.226552631676682E+03
              0.133882416587094E+03
              0.210695927284648E+02
             -0.655475337567850E-01
              0.205752210847463E+03
              0.107652279470283E+03
              0.134297154155252E+02
              0.190213841764806E+03
             -0.169316738633409E+03
              0.708832901982530E+02
             -0.900521724325995E+02
             -0.683920229451114E+02
              0.246783900380438E+03
             -0.401016149581858E+02
              0.235902082813300E+01
             -0.391985160994881E+02
              0.206087984941711E+03
             -0.576909900918286E+02
             -0.577686130366874E+01
              0.427105832124110E+03
             -0.153777022854872E+03
             -0.124988297217057E+03
             -0.160372382289751E+03
             -0.754795198444026E+02
              0.877385799782070E+02
             -0.400474084492259E+02
              0.371067529878135E+02
              0.155110006949963E+01
              0.536994369674640E+02
              0.865147658896337E+02
              0.817522456396694E+02
              0.174058665347401E+03
              0.711999510142402E+02
              0.121332803114755E+03
             -0.173731875097051E+03
             -0.135397399444405E+03
             -0.550920805208128E+02
             -0.148889342898395E+03
              0.268353314859701E+03
              0.230200233962119E+03
              0.100043076300460E+03
              0.271381808756168E+03
             -0.145575180499121E+03
             -0.700272737992209E+02
             -0.722714246004747E+02
              0.214138781582041E+03
 
 BEEF-vdW xc energy contributions
            1 :    -2092.882177426405     
            2 :     1846.697130524453     
            3 :    -1422.128361665697     
            4 :     929.2086111259914     
            5 :    -480.3151109978271     
            6 :     153.0601932215868     
            7 :     29.17168007504097     
            8 :    -93.07028106599682     
            9 :     92.61438305584625     
           10 :    -80.27799568715182     
           11 :     85.79450764936473     
           12 :    -110.4942429656708     
           13 :     136.6002011559294     
           14 :    -143.7781754203534     
           15 :     123.0373396614414     
           16 :    -81.22832188331995     
           17 :     35.52327892353333     
           18 :    -2.748737144092956     
           19 :    -9.552558331368346     
           20 :     5.520361683877127     
           21 :     3.544284163393968     
           22 :    -6.999688315499043     
           23 :    0.9872963346733741     
           24 :     10.45239586948264     
           25 :    -19.20185701044375     
           26 :     18.85599666002190     
           27 :    -8.726349625252169     
           28 :    -6.150025847013239     
           29 :     18.52702710883841     
           30 :    -23.43554486915809     
           31 :    -273.8072233886087     
           32 :    -198.6958660488381     

     Writing all to output data dir ./diamond.save/
 
     init_run     :     19.95s CPU     25.93s WALL (       1 calls)
     electrons    :   1564.28s CPU   1592.10s WALL (       1 calls)
     forces       :      7.91s CPU      8.37s WALL (       1 calls)
     stress       :    100.83s CPU    102.05s WALL (       1 calls)

     Called by init_run:
     wfcinit      :     16.86s CPU     22.52s WALL (       1 calls)
     potinit      :      0.92s CPU      1.07s WALL (       1 calls)
     hinit0       :      0.91s CPU      0.97s WALL (       1 calls)

     Called by electrons:
     c_bands      :   1519.91s CPU   1546.37s WALL (       4 calls)
     sum_band     :     41.66s CPU     42.57s WALL (       4 calls)
     v_of_rho     :      2.46s CPU      2.53s WALL (       4 calls)
     v_h          :      0.04s CPU      0.04s WALL (       4 calls)
     v_xc         :     22.90s CPU     23.20s WALL (      40 calls)
     newd         :      0.33s CPU      0.54s WALL (       4 calls)
     PAW_pot      :      0.48s CPU      0.49s WALL (       4 calls)
     mix_rho      :      0.04s CPU      0.05s WALL (       4 calls)
     vdW_kernel   :      0.15s CPU      0.16s WALL (       1 calls)

     Called by c_bands:
     init_us_2    :      0.24s CPU      0.26s WALL (       8 calls)
     init_us_2:cp :      0.24s CPU      0.26s WALL (       8 calls)
     cegterg      :   1506.62s CPU   1530.26s WALL (       4 calls)

     Called by sum_band:
     sum_band:wei :      0.00s CPU      0.00s WALL (       4 calls)
     sum_band:loo :     41.06s CPU     41.46s WALL (       4 calls)
     sum_band:buf :      0.00s CPU      0.00s WALL (       4 calls)
     sum_band:ini :      0.22s CPU      0.23s WALL (       4 calls)
     sum_band:cal :      5.89s CPU      5.95s WALL (       4 calls)
     sum_band:bec :      0.15s CPU      0.16s WALL (       4 calls)
     addusdens    :      0.33s CPU      0.55s WALL (       4 calls)
     addusd:skk   :      0.10s CPU      0.30s WALL (       4 calls)
     addusd:dgemm :      0.22s CPU      0.23s WALL (       4 calls)
     addusd:qvan2 :      0.01s CPU      0.01s WALL (       4 calls)

     Called by *egterg:
     cdiaghg      :   1216.35s CPU   1228.05s WALL (      35 calls)
     cegterg:over :     22.45s CPU     23.90s WALL (      33 calls)
     cegterg:upda :      8.52s CPU      8.67s WALL (      33 calls)
     cegterg:last :      3.68s CPU      3.71s WALL (       4 calls)
     h_psi        :    210.72s CPU    213.67s WALL (      37 calls)
     s_psi        :     13.39s CPU     14.15s WALL (      37 calls)
     g_psi        :      0.02s CPU      0.02s WALL (      33 calls)

     Called by h_psi:
     h_psi:calbec :     16.99s CPU     17.19s WALL (      37 calls)
     vloc_psi     :    180.12s CPU    181.93s WALL (      37 calls)
     vloc_psi:tg_ :      0.01s CPU      0.01s WALL (      37 calls)
     add_vuspsi   :     13.46s CPU     14.30s WALL (      37 calls)

     General routines
     calbec       :     30.26s CPU     30.59s WALL (      46 calls)
     fft          :     19.98s CPU     20.18s WALL (    2358 calls)
     ffts         :      0.06s CPU      0.06s WALL (       8 calls)
     fftw         :    213.62s CPU    215.73s WALL (   31506 calls)
     interpolate  :      0.09s CPU      0.09s WALL (       4 calls)
 
     Parallel routines
     fft_scatt_xy :      1.95s CPU      1.97s WALL (   33872 calls)
     fft_scatt_yz :    221.15s CPU    223.29s WALL (   33872 calls)
     fft_scatt_tg :      0.12s CPU      0.12s WALL (   31506 calls)

     PAW routines
     PAW_pot      :      0.48s CPU      0.49s WALL (       4 calls)
     PAW_symme    :      0.01s CPU      0.01s WALL (       7 calls)
 
     PWSCF        :  28m49.21s CPU  29m31.00s WALL

 
   This run was terminated on:  12:21:14  19Feb2024            

=------------------------------------------------------------------------------=
   JOB DONE.
=------------------------------------------------------------------------------=
