
     Program PWSCF v.7.1 starts on  4Mar2024 at 16:11:35 

     This program is part of the open-source Quantum ESPRESSO suite
     for quantum simulation of materials; please cite
         "P. Giannozzi et al., J. Phys.:Condens. Matter 21 395502 (2009);
         "P. Giannozzi et al., J. Phys.:Condens. Matter 29 465901 (2017);
         "P. Giannozzi et al., J. Chem. Phys. 152 154105 (2020);
          URL http://www.quantum-espresso.org", 
     in publications or presentations arising from this work. More details at
     http://www.quantum-espresso.org/quote

     Parallel version (MPI & OpenMP), running on     256 processor cores
     Number of MPI processes:               256
     Threads/MPI process:                     1

     MPI processes distributed on     2 nodes
     1835679 MiB available memory on the printing compute node when the environment starts
 
     Reading input from espresso.pwi
Warning: card &CELL ignored
Warning: card    CELL_DYNAMICS    = 'BFGS' ignored
Warning: card / ignored

     Current dimensions of program PWSCF are:
     Max number of different atomic species (ntypx) = 10
     Max number of k-points (npk) =  40000
     Max angular momentum in pseudopotentials (lmaxx) =  4
     file Ga.pbe-dn-kjpaw_psl.1.0.0.UPF: wavefunction(s)  4S renormalized
     file N.pbe-n-kjpaw_psl.1.0.0.UPF: wavefunction(s)  2S renormalized

     **************************************************************************
     Initializing libbeef V0.1.2 with the BEEF-vdW functional.
     Citation: Wellendorff et al., PRB 85, 235149 (2012).
     **************************************************************************


     IMPORTANT: XC functional enforced from input :
     Exchange-correlation= BEEF-VDW
                           (   1   4  43  14   2   0   0)
     Any further DFT definition will be discarded
     Please, verify this is what you really want

 
     K-points division:     npool     =       4
     R & G space division:  proc/nbgrp/npool/nimage =      64
     Subspace diagonalization in iterative solution of the eigenvalue problem:
     a serial algorithm will be used

 
     Parallelization info
     --------------------
     sticks:   dense  smooth     PW     G-vecs:    dense   smooth      PW
     Min         226     181     47                26979    19303    2571
     Max         228     182     48                26983    19308    2576
     Sum       14527   11629   3037              1726709  1235535  164709
 
     Using Slab Decomposition
 


     bravais-lattice index     =            4
     lattice parameter (alat)  =      24.5252  a.u.
     unit-cell volume          =   15616.6055 (a.u.)^3
     number of atoms/cell      =          192
     number of atomic types    =            2
     number of electrons       =      1718.00
     number of Kohn-Sham states=         1031
     kinetic-energy cutoff     =      70.0000  Ry
     charge density cutoff     =     350.0000  Ry
     scf convergence threshold =      1.0E-07
     mixing beta               =       0.7000
     number of iterations used =            8  plain     mixing
     energy convergence thresh.=      1.0E-04
     force convergence thresh. =      1.0E-03
     Exchange-correlation= BEEF-VDW
                           (   1   4  43  14   2   0   0)
     nstep                     =           50


     celldm(1)=  24.525232  celldm(2)=   0.000000  celldm(3)=   1.222409
     celldm(4)=   0.000000  celldm(5)=   0.000000  celldm(6)=   0.000000

     crystal axes: (cart. coord. in units of alat)
               a(1) = (   1.000000   0.000000   0.000000 )  
               a(2) = (  -0.500000   0.866025   0.000000 )  
               a(3) = (   0.000000   0.000000   1.222409 )  

     reciprocal axes: (cart. coord. in units 2 pi/alat)
               b(1) = (  1.000000  0.577350 -0.000000 )  
               b(2) = (  0.000000  1.154701  0.000000 )  
               b(3) = (  0.000000 -0.000000  0.818057 )  


     PseudoPot. # 1 for Ga read from file:
     //group///packages/espresso/pseudo/psl_1.0.0/pslibrary.1.0.0/pbe/PSEUDOPOTENTIALS/Ga.pbe-dn-kjpaw_psl.1.0.0.UPF
     MD5 check sum: cd2a01e492f15b435d17032472d8505c
     Pseudo is Projector augmented-wave + core cor, Zval = 13.0
     Generated using 'atomic' code by A. Dal Corso  v.7.1
     Shape of augmentation charge: PSQ
     Using radial grid of 1205 points,  6 beta functions with: 
                l(1) =   0
                l(2) =   0
                l(3) =   1
                l(4) =   1
                l(5) =   2
                l(6) =   2
     Q(r) pseudized with 0 coefficients 


     PseudoPot. # 2 for N  read from file:
     //group///packages/espresso/pseudo/psl_1.0.0/pslibrary.1.0.0/pbe/PSEUDOPOTENTIALS/N.pbe-n-kjpaw_psl.1.0.0.UPF
     MD5 check sum: f77f775694dac7e2c3fe1c82443d1a16
     Pseudo is Projector augmented-wave + core cor, Zval =  5.0
     Generated using 'atomic' code by A. Dal Corso  v.7.1
     Shape of augmentation charge: PSQ
     Using radial grid of 1085 points,  4 beta functions with: 
                l(1) =   0
                l(2) =   0
                l(3) =   1
                l(4) =   1
     Q(r) pseudized with 0 coefficients 


     atomic species   valence    mass     pseudopotential
        Ga            13.00    69.72300     Ga( 1.00)
        N              5.00    14.00700     N ( 1.00)

      6 Sym. Ops. (no inversion) found ( 4 have fractional translation)


                                    s                        frac. trans.

      isym =  1     identity                                     

 cryst.   s( 1) = (     1          0          0      )
                  (     0          1          0      )
                  (     0          0          1      )

 cart.    s( 1) = (  1.0000000  0.0000000  0.0000000 )
                  (  0.0000000  1.0000000  0.0000000 )
                  (  0.0000000  0.0000000  1.0000000 )


      isym =  2     120 deg rotation - cryst. axis [0,0,1]       

 cryst.   s( 2) = (     0          1          0      )    f =( -0.2500000 )
                  (    -1         -1          0      )       (  0.0000002 )
                  (     0          0          1      )       (  0.0000000 )

 cart.    s( 2) = ( -0.5000000 -0.8660254  0.0000000 )    f =( -0.2500001 )
                  (  0.8660254 -0.5000000  0.0000000 )       (  0.0000002 )
                  (  0.0000000  0.0000000  1.0000000 )       (  0.0000000 )


      isym =  3     120 deg rotation - cryst. axis [0,0,-1]      

 cryst.   s( 3) = (    -1         -1          0      )    f =( -0.2500002 )
                  (     1          0          0      )       ( -0.2500000 )
                  (     0          0          1      )       (  0.0000000 )

 cart.    s( 3) = ( -0.5000000  0.8660254  0.0000000 )    f =( -0.1250002 )
                  ( -0.8660254 -0.5000000  0.0000000 )       ( -0.2165064 )
                  (  0.0000000  0.0000000  1.0000000 )       (  0.0000000 )


      isym =  4     inv. 180 deg rotation - cart. axis [1,0,0]   

 cryst.   s( 4) = (    -1          0          0      )    f =( -0.2500002 )
                  (     1          1          0      )       (  0.0000000 )
                  (     0          0          1      )       (  0.0000000 )

 cart.    s( 4) = ( -1.0000000  0.0000000  0.0000000 )    f =( -0.2500002 )
                  (  0.0000000  1.0000000  0.0000000 )       (  0.0000000 )
                  (  0.0000000  0.0000000  1.0000000 )       (  0.0000000 )


      isym =  5     inv. 180 deg rotation - cryst. axis [0,1,0]  

 cryst.   s( 5) = (     1          1          0      )
                  (     0         -1          0      )
                  (     0          0          1      )

 cart.    s( 5) = (  0.5000000  0.8660254  0.0000000 )
                  (  0.8660254 -0.5000000  0.0000000 )
                  (  0.0000000  0.0000000  1.0000000 )


      isym =  6     inv. 180 deg rotation - cryst. axis [1,1,0]  

 cryst.   s( 6) = (     0         -1          0      )    f =( -0.2500000 )
                  (    -1          0          0      )       ( -0.2500000 )
                  (     0          0          1      )       (  0.0000000 )

 cart.    s( 6) = (  0.5000000 -0.8660254  0.0000000 )    f =( -0.1250000 )
                  ( -0.8660254 -0.5000000  0.0000000 )       ( -0.2165064 )
                  (  0.0000000  0.0000000  1.0000000 )       (  0.0000000 )


     point group C_3v (3m)  
     there are  3 classes
     the character table:

       E     2C3   3s_v 
A_1    1.00  1.00  1.00
A_2    1.00  1.00 -1.00
E      2.00 -1.00  0.00

     the symmetry operations in each class and the name of the first element:

     E        1
          identity                                               
     2C3      2    3
          120 deg rotation - cryst. axis [0,0,1]                 
     3s_v     4    5    6
          inv. 180 deg rotation - cart. axis [1,0,0]             

   Cartesian axes

     site n.     atom                  positions (alat units)
         1           Ga  tau(   1) = (   0.1250001   0.0721687   0.6108633  )
         2           Ga  tau(   2) = (   0.1250001   0.0721687   1.0183331  )
         3           Ga  tau(   3) = (   0.0000001   0.2886751   0.2033935  )
         4           Ga  tau(   4) = (   0.0000001   0.2886751   0.6108633  )
         5           Ga  tau(   5) = (   0.0000001   0.2886751   1.0183331  )
         6           Ga  tau(   6) = (  -0.1249999   0.5051814   0.2033935  )
         7           Ga  tau(   7) = (  -0.1249999   0.5051814   0.6108633  )
         8           Ga  tau(   8) = (  -0.1249999   0.5051814   1.0183331  )
         9           Ga  tau(   9) = (  -0.2499999   0.7216878   0.2033935  )
        10           Ga  tau(  10) = (  -0.2499999   0.7216878   0.6108633  )
        11           Ga  tau(  11) = (  -0.2499999   0.7216878   1.0183331  )
        12           Ga  tau(  12) = (   0.3750001   0.0721687   0.2033935  )
        13           Ga  tau(  13) = (   0.3750001   0.0721687   0.6108633  )
        14           Ga  tau(  14) = (   0.3750001   0.0721687   1.0183331  )
        15           Ga  tau(  15) = (   0.2500001   0.2886751   0.2033935  )
        16           Ga  tau(  16) = (   0.2500001   0.2886751   0.6108633  )
        17           Ga  tau(  17) = (   0.2500001   0.2886751   1.0183331  )
        18           Ga  tau(  18) = (   0.1250001   0.5051814   0.2033935  )
        19           Ga  tau(  19) = (   0.1250001   0.5051814   0.6108633  )
        20           Ga  tau(  20) = (   0.1250001   0.5051814   1.0183331  )
        21           Ga  tau(  21) = (   0.0000001   0.7216878   0.2033935  )
        22           Ga  tau(  22) = (   0.0000001   0.7216878   0.6108633  )
        23           Ga  tau(  23) = (   0.0000001   0.7216878   1.0183331  )
        24           Ga  tau(  24) = (   0.6250001   0.0721687   0.2033935  )
        25           Ga  tau(  25) = (   0.6250001   0.0721687   0.6108633  )
        26           Ga  tau(  26) = (   0.6250001   0.0721687   1.0183331  )
        27           Ga  tau(  27) = (   0.5000001   0.2886751   0.2033935  )
        28           Ga  tau(  28) = (   0.5000001   0.2886751   0.6108633  )
        29           Ga  tau(  29) = (   0.5000001   0.2886751   1.0183331  )
        30           Ga  tau(  30) = (   0.3750001   0.5051814   0.2033935  )
        31           Ga  tau(  31) = (   0.3750001   0.5051814   0.6108633  )
        32           Ga  tau(  32) = (   0.3750001   0.5051814   1.0183331  )
        33           Ga  tau(  33) = (   0.2500001   0.7216878   0.2033935  )
        34           Ga  tau(  34) = (   0.2500001   0.7216878   0.6108633  )
        35           Ga  tau(  35) = (   0.2500001   0.7216878   1.0183331  )
        36           Ga  tau(  36) = (   0.8750001   0.0721687   0.2033935  )
        37           Ga  tau(  37) = (   0.8750001   0.0721687   0.6108633  )
        38           Ga  tau(  38) = (   0.8750001   0.0721687   1.0183331  )
        39           Ga  tau(  39) = (   0.7500001   0.2886751   0.2033935  )
        40           Ga  tau(  40) = (   0.7500001   0.2886751   0.6108633  )
        41           Ga  tau(  41) = (   0.7500001   0.2886751   1.0183331  )
        42           Ga  tau(  42) = (   0.6250001   0.5051814   0.2033935  )
        43           Ga  tau(  43) = (   0.6250001   0.5051814   0.6108633  )
        44           Ga  tau(  44) = (   0.6250001   0.5051814   1.0183331  )
        45           Ga  tau(  45) = (   0.5000001   0.7216878   0.2033935  )
        46           Ga  tau(  46) = (   0.5000001   0.7216878   0.6108633  )
        47           Ga  tau(  47) = (   0.5000001   0.7216878   1.0183331  )
        48           Ga  tau(  48) = (  -0.0000002   0.1443377   0.4071284  )
        49           Ga  tau(  49) = (  -0.0000002   0.1443377   0.8145982  )
        50           Ga  tau(  50) = (  -0.0000002   0.1443377   1.2220680  )
        51           Ga  tau(  51) = (  -0.1250002   0.3608440   0.4071284  )
        52           Ga  tau(  52) = (  -0.1250002   0.3608440   0.8145982  )
        53           Ga  tau(  53) = (  -0.1250002   0.3608440   1.2220680  )
        54           Ga  tau(  54) = (  -0.2500002   0.5773504   0.4071284  )
        55           Ga  tau(  55) = (  -0.2500002   0.5773504   0.8145982  )
        56           Ga  tau(  56) = (  -0.2500002   0.5773504   1.2220680  )
        57           Ga  tau(  57) = (  -0.3750001   0.7938567   0.4071284  )
        58           Ga  tau(  58) = (  -0.3750001   0.7938567   0.8145982  )
        59           Ga  tau(  59) = (  -0.3750001   0.7938567   1.2220680  )
        60           Ga  tau(  60) = (   0.2499998   0.1443377   0.4071284  )
        61           Ga  tau(  61) = (   0.2499998   0.1443377   0.8145982  )
        62           Ga  tau(  62) = (   0.2499998   0.1443377   1.2220680  )
        63           Ga  tau(  63) = (   0.1249998   0.3608440   0.4071284  )
        64           Ga  tau(  64) = (   0.1249998   0.3608440   0.8145982  )
        65           Ga  tau(  65) = (   0.1249998   0.3608440   1.2220680  )
        66           Ga  tau(  66) = (  -0.0000002   0.5773504   0.4071284  )
        67           Ga  tau(  67) = (  -0.0000002   0.5773504   0.8145982  )
        68           Ga  tau(  68) = (  -0.0000002   0.5773504   1.2220680  )
        69           Ga  tau(  69) = (  -0.1250002   0.7938567   0.4071284  )
        70           Ga  tau(  70) = (  -0.1250002   0.7938567   0.8145982  )
        71           Ga  tau(  71) = (  -0.1250002   0.7938567   1.2220680  )
        72           Ga  tau(  72) = (   0.4999998   0.1443377   0.4071284  )
        73           Ga  tau(  73) = (   0.4999998   0.1443377   0.8145982  )
        74           Ga  tau(  74) = (   0.4999998   0.1443377   1.2220680  )
        75           Ga  tau(  75) = (   0.3749998   0.3608440   0.4071284  )
        76           Ga  tau(  76) = (   0.3749998   0.3608440   0.8145982  )
        77           Ga  tau(  77) = (   0.3749998   0.3608440   1.2220680  )
        78           Ga  tau(  78) = (   0.2499998   0.5773504   0.4071284  )
        79           Ga  tau(  79) = (   0.2499998   0.5773504   0.8145982  )
        80           Ga  tau(  80) = (   0.2499998   0.5773504   1.2220680  )
        81           Ga  tau(  81) = (   0.1249998   0.7938567   0.4071284  )
        82           Ga  tau(  82) = (   0.1249998   0.7938567   0.8145982  )
        83           Ga  tau(  83) = (   0.1249998   0.7938567   1.2220680  )
        84           Ga  tau(  84) = (   0.7499998   0.1443377   0.4071284  )
        85           Ga  tau(  85) = (   0.7499998   0.1443377   0.8145982  )
        86           Ga  tau(  86) = (   0.7499998   0.1443377   1.2220680  )
        87           Ga  tau(  87) = (   0.6249998   0.3608440   0.4071284  )
        88           Ga  tau(  88) = (   0.6249998   0.3608440   0.8145982  )
        89           Ga  tau(  89) = (   0.6249998   0.3608440   1.2220680  )
        90           Ga  tau(  90) = (   0.4999998   0.5773504   0.4071284  )
        91           Ga  tau(  91) = (   0.4999998   0.5773504   0.8145982  )
        92           Ga  tau(  92) = (   0.4999998   0.5773504   1.2220680  )
        93           Ga  tau(  93) = (   0.3749998   0.7938567   0.4071284  )
        94           Ga  tau(  94) = (   0.3749998   0.7938567   0.8145982  )
        95           Ga  tau(  95) = (   0.3749998   0.7938567   1.2220680  )
        96           N   tau(  96) = (   0.1250001   0.0721687   0.3568774  )
        97           N   tau(  97) = (   0.1250001   0.0721687   0.7643472  )
        98           N   tau(  98) = (   0.1250001   0.0721687   1.1718169  )
        99           N   tau(  99) = (   0.0000001   0.2886751   0.3568774  )
       100           N   tau( 100) = (   0.0000001   0.2886751   0.7643472  )
       101           N   tau( 101) = (   0.0000001   0.2886751   1.1718169  )
       102           N   tau( 102) = (  -0.1249999   0.5051814   0.3568774  )
       103           N   tau( 103) = (  -0.1249999   0.5051814   0.7643472  )
       104           N   tau( 104) = (  -0.1249999   0.5051814   1.1718169  )
       105           N   tau( 105) = (  -0.2499999   0.7216878   0.3568774  )
       106           N   tau( 106) = (  -0.2499999   0.7216878   0.7643472  )
       107           N   tau( 107) = (  -0.2499999   0.7216878   1.1718169  )
       108           N   tau( 108) = (   0.3750001   0.0721687   0.3568774  )
       109           N   tau( 109) = (   0.3750001   0.0721687   0.7643472  )
       110           N   tau( 110) = (   0.3750001   0.0721687   1.1718169  )
       111           N   tau( 111) = (   0.2500001   0.2886751   0.3568774  )
       112           N   tau( 112) = (   0.2500001   0.2886751   0.7643472  )
       113           N   tau( 113) = (   0.2500001   0.2886751   1.1718169  )
       114           N   tau( 114) = (   0.1250001   0.5051814   0.3568774  )
       115           N   tau( 115) = (   0.1250001   0.5051814   0.7643472  )
       116           N   tau( 116) = (   0.1250001   0.5051814   1.1718169  )
       117           N   tau( 117) = (   0.0000001   0.7216878   0.3568774  )
       118           N   tau( 118) = (   0.0000001   0.7216878   0.7643472  )
       119           N   tau( 119) = (   0.0000001   0.7216878   1.1718169  )
       120           N   tau( 120) = (   0.6250001   0.0721687   0.3568774  )
       121           N   tau( 121) = (   0.6250001   0.0721687   0.7643472  )
       122           N   tau( 122) = (   0.6250001   0.0721687   1.1718169  )
       123           N   tau( 123) = (   0.5000001   0.2886751   0.3568774  )
       124           N   tau( 124) = (   0.5000001   0.2886751   0.7643472  )
       125           N   tau( 125) = (   0.5000001   0.2886751   1.1718169  )
       126           N   tau( 126) = (   0.3750001   0.5051814   0.3568774  )
       127           N   tau( 127) = (   0.3750001   0.5051814   0.7643472  )
       128           N   tau( 128) = (   0.3750001   0.5051814   1.1718169  )
       129           N   tau( 129) = (   0.2500001   0.7216878   0.3568774  )
       130           N   tau( 130) = (   0.2500001   0.7216878   0.7643472  )
       131           N   tau( 131) = (   0.2500001   0.7216878   1.1718169  )
       132           N   tau( 132) = (   0.8750001   0.0721687   0.3568774  )
       133           N   tau( 133) = (   0.8750001   0.0721687   0.7643472  )
       134           N   tau( 134) = (   0.8750001   0.0721687   1.1718169  )
       135           N   tau( 135) = (   0.7500001   0.2886751   0.3568774  )
       136           N   tau( 136) = (   0.7500001   0.2886751   0.7643472  )
       137           N   tau( 137) = (   0.7500001   0.2886751   1.1718169  )
       138           N   tau( 138) = (   0.6250001   0.5051814   0.3568774  )
       139           N   tau( 139) = (   0.6250001   0.5051814   0.7643472  )
       140           N   tau( 140) = (   0.6250001   0.5051814   1.1718169  )
       141           N   tau( 141) = (   0.5000001   0.7216878   0.3568774  )
       142           N   tau( 142) = (   0.5000001   0.7216878   0.7643472  )
       143           N   tau( 143) = (   0.5000001   0.7216878   1.1718169  )
       144           N   tau( 144) = (  -0.0000002   0.1443377   0.1531425  )
       145           N   tau( 145) = (  -0.0000002   0.1443377   0.5606123  )
       146           N   tau( 146) = (  -0.0000002   0.1443377   0.9680820  )
       147           N   tau( 147) = (  -0.1250002   0.3608440   0.1531425  )
       148           N   tau( 148) = (  -0.1250002   0.3608440   0.5606123  )
       149           N   tau( 149) = (  -0.1250002   0.3608440   0.9680820  )
       150           N   tau( 150) = (  -0.2500002   0.5773504   0.1531425  )
       151           N   tau( 151) = (  -0.2500002   0.5773504   0.5606123  )
       152           N   tau( 152) = (  -0.2500002   0.5773504   0.9680820  )
       153           N   tau( 153) = (  -0.3750001   0.7938567   0.1531425  )
       154           N   tau( 154) = (  -0.3750001   0.7938567   0.5606123  )
       155           N   tau( 155) = (  -0.3750001   0.7938567   0.9680820  )
       156           N   tau( 156) = (   0.2499998   0.1443377   0.1531425  )
       157           N   tau( 157) = (   0.2499998   0.1443377   0.5606123  )
       158           N   tau( 158) = (   0.2499998   0.1443377   0.9680820  )
       159           N   tau( 159) = (   0.1249998   0.3608440   0.1531425  )
       160           N   tau( 160) = (   0.1249998   0.3608440   0.5606123  )
       161           N   tau( 161) = (   0.1249998   0.3608440   0.9680820  )
       162           N   tau( 162) = (  -0.0000002   0.5773504   0.1531425  )
       163           N   tau( 163) = (  -0.0000002   0.5773504   0.5606123  )
       164           N   tau( 164) = (  -0.0000002   0.5773504   0.9680820  )
       165           N   tau( 165) = (  -0.1250002   0.7938567   0.1531425  )
       166           N   tau( 166) = (  -0.1250002   0.7938567   0.5606123  )
       167           N   tau( 167) = (  -0.1250002   0.7938567   0.9680820  )
       168           N   tau( 168) = (   0.4999998   0.1443377   0.1531425  )
       169           N   tau( 169) = (   0.4999998   0.1443377   0.5606123  )
       170           N   tau( 170) = (   0.4999998   0.1443377   0.9680820  )
       171           N   tau( 171) = (   0.3749998   0.3608440   0.1531425  )
       172           N   tau( 172) = (   0.3749998   0.3608440   0.5606123  )
       173           N   tau( 173) = (   0.3749998   0.3608440   0.9680820  )
       174           N   tau( 174) = (   0.2499998   0.5773504   0.1531425  )
       175           N   tau( 175) = (   0.2499998   0.5773504   0.5606123  )
       176           N   tau( 176) = (   0.2499998   0.5773504   0.9680820  )
       177           N   tau( 177) = (   0.1249998   0.7938567   0.1531425  )
       178           N   tau( 178) = (   0.1249998   0.7938567   0.5606123  )
       179           N   tau( 179) = (   0.1249998   0.7938567   0.9680820  )
       180           N   tau( 180) = (   0.7499998   0.1443377   0.1531425  )
       181           N   tau( 181) = (   0.7499998   0.1443377   0.5606123  )
       182           N   tau( 182) = (   0.7499998   0.1443377   0.9680820  )
       183           N   tau( 183) = (   0.6249998   0.3608440   0.1531425  )
       184           N   tau( 184) = (   0.6249998   0.3608440   0.5606123  )
       185           N   tau( 185) = (   0.6249998   0.3608440   0.9680820  )
       186           N   tau( 186) = (   0.4999998   0.5773504   0.1531425  )
       187           N   tau( 187) = (   0.4999998   0.5773504   0.5606123  )
       188           N   tau( 188) = (   0.4999998   0.5773504   0.9680820  )
       189           N   tau( 189) = (   0.3749998   0.7938567   0.1531425  )
       190           N   tau( 190) = (   0.3749998   0.7938567   0.5606123  )
       191           N   tau( 191) = (   0.3749998   0.7938567   0.9680820  )
       192           N   tau( 192) = (   0.1250001   0.0721687   0.2033935  )

   Crystallographic axes

     site n.     atom                  positions (cryst. coord.)
         1           Ga  tau(   1) = (  0.1666667  0.0833333  0.4997208  )
         2           Ga  tau(   2) = (  0.1666667  0.0833333  0.8330541  )
         3           Ga  tau(   3) = (  0.1666667  0.3333333  0.1663874  )
         4           Ga  tau(   4) = (  0.1666667  0.3333333  0.4997208  )
         5           Ga  tau(   5) = (  0.1666667  0.3333333  0.8330541  )
         6           Ga  tau(   6) = (  0.1666667  0.5833333  0.1663874  )
         7           Ga  tau(   7) = (  0.1666667  0.5833333  0.4997208  )
         8           Ga  tau(   8) = (  0.1666667  0.5833333  0.8330541  )
         9           Ga  tau(   9) = (  0.1666667  0.8333333  0.1663874  )
        10           Ga  tau(  10) = (  0.1666667  0.8333333  0.4997208  )
        11           Ga  tau(  11) = (  0.1666667  0.8333333  0.8330541  )
        12           Ga  tau(  12) = (  0.4166667  0.0833333  0.1663874  )
        13           Ga  tau(  13) = (  0.4166667  0.0833333  0.4997208  )
        14           Ga  tau(  14) = (  0.4166667  0.0833333  0.8330541  )
        15           Ga  tau(  15) = (  0.4166667  0.3333333  0.1663874  )
        16           Ga  tau(  16) = (  0.4166667  0.3333333  0.4997208  )
        17           Ga  tau(  17) = (  0.4166667  0.3333333  0.8330541  )
        18           Ga  tau(  18) = (  0.4166667  0.5833333  0.1663874  )
        19           Ga  tau(  19) = (  0.4166667  0.5833333  0.4997208  )
        20           Ga  tau(  20) = (  0.4166667  0.5833333  0.8330541  )
        21           Ga  tau(  21) = (  0.4166667  0.8333333  0.1663874  )
        22           Ga  tau(  22) = (  0.4166667  0.8333333  0.4997208  )
        23           Ga  tau(  23) = (  0.4166667  0.8333333  0.8330541  )
        24           Ga  tau(  24) = (  0.6666667  0.0833333  0.1663874  )
        25           Ga  tau(  25) = (  0.6666667  0.0833333  0.4997208  )
        26           Ga  tau(  26) = (  0.6666667  0.0833333  0.8330541  )
        27           Ga  tau(  27) = (  0.6666667  0.3333333  0.1663874  )
        28           Ga  tau(  28) = (  0.6666667  0.3333333  0.4997208  )
        29           Ga  tau(  29) = (  0.6666667  0.3333333  0.8330541  )
        30           Ga  tau(  30) = (  0.6666667  0.5833333  0.1663874  )
        31           Ga  tau(  31) = (  0.6666667  0.5833333  0.4997208  )
        32           Ga  tau(  32) = (  0.6666667  0.5833333  0.8330541  )
        33           Ga  tau(  33) = (  0.6666667  0.8333333  0.1663874  )
        34           Ga  tau(  34) = (  0.6666667  0.8333333  0.4997208  )
        35           Ga  tau(  35) = (  0.6666667  0.8333333  0.8330541  )
        36           Ga  tau(  36) = (  0.9166667  0.0833333  0.1663874  )
        37           Ga  tau(  37) = (  0.9166667  0.0833333  0.4997208  )
        38           Ga  tau(  38) = (  0.9166667  0.0833333  0.8330541  )
        39           Ga  tau(  39) = (  0.9166667  0.3333333  0.1663874  )
        40           Ga  tau(  40) = (  0.9166667  0.3333333  0.4997208  )
        41           Ga  tau(  41) = (  0.9166667  0.3333333  0.8330541  )
        42           Ga  tau(  42) = (  0.9166667  0.5833333  0.1663874  )
        43           Ga  tau(  43) = (  0.9166667  0.5833333  0.4997208  )
        44           Ga  tau(  44) = (  0.9166667  0.5833333  0.8330541  )
        45           Ga  tau(  45) = (  0.9166667  0.8333333  0.1663874  )
        46           Ga  tau(  46) = (  0.9166667  0.8333333  0.4997208  )
        47           Ga  tau(  47) = (  0.9166667  0.8333333  0.8330541  )
        48           Ga  tau(  48) = (  0.0833333  0.1666668  0.3330541  )
        49           Ga  tau(  49) = (  0.0833333  0.1666668  0.6663874  )
        50           Ga  tau(  50) = (  0.0833333  0.1666668  0.9997208  )
        51           Ga  tau(  51) = (  0.0833333  0.4166668  0.3330541  )
        52           Ga  tau(  52) = (  0.0833333  0.4166668  0.6663874  )
        53           Ga  tau(  53) = (  0.0833333  0.4166668  0.9997208  )
        54           Ga  tau(  54) = (  0.0833333  0.6666668  0.3330541  )
        55           Ga  tau(  55) = (  0.0833333  0.6666668  0.6663874  )
        56           Ga  tau(  56) = (  0.0833333  0.6666668  0.9997208  )
        57           Ga  tau(  57) = (  0.0833333  0.9166668  0.3330541  )
        58           Ga  tau(  58) = (  0.0833333  0.9166668  0.6663874  )
        59           Ga  tau(  59) = (  0.0833333  0.9166668  0.9997208  )
        60           Ga  tau(  60) = (  0.3333332  0.1666668  0.3330541  )
        61           Ga  tau(  61) = (  0.3333332  0.1666668  0.6663874  )
        62           Ga  tau(  62) = (  0.3333332  0.1666668  0.9997208  )
        63           Ga  tau(  63) = (  0.3333332  0.4166668  0.3330541  )
        64           Ga  tau(  64) = (  0.3333332  0.4166668  0.6663874  )
        65           Ga  tau(  65) = (  0.3333332  0.4166668  0.9997208  )
        66           Ga  tau(  66) = (  0.3333332  0.6666668  0.3330541  )
        67           Ga  tau(  67) = (  0.3333332  0.6666668  0.6663874  )
        68           Ga  tau(  68) = (  0.3333332  0.6666668  0.9997208  )
        69           Ga  tau(  69) = (  0.3333332  0.9166668  0.3330541  )
        70           Ga  tau(  70) = (  0.3333332  0.9166668  0.6663874  )
        71           Ga  tau(  71) = (  0.3333332  0.9166668  0.9997208  )
        72           Ga  tau(  72) = (  0.5833332  0.1666668  0.3330541  )
        73           Ga  tau(  73) = (  0.5833332  0.1666668  0.6663874  )
        74           Ga  tau(  74) = (  0.5833332  0.1666668  0.9997208  )
        75           Ga  tau(  75) = (  0.5833332  0.4166668  0.3330541  )
        76           Ga  tau(  76) = (  0.5833332  0.4166668  0.6663874  )
        77           Ga  tau(  77) = (  0.5833332  0.4166668  0.9997208  )
        78           Ga  tau(  78) = (  0.5833332  0.6666668  0.3330541  )
        79           Ga  tau(  79) = (  0.5833332  0.6666668  0.6663874  )
        80           Ga  tau(  80) = (  0.5833332  0.6666668  0.9997208  )
        81           Ga  tau(  81) = (  0.5833332  0.9166668  0.3330541  )
        82           Ga  tau(  82) = (  0.5833332  0.9166668  0.6663874  )
        83           Ga  tau(  83) = (  0.5833332  0.9166668  0.9997208  )
        84           Ga  tau(  84) = (  0.8333332  0.1666668  0.3330541  )
        85           Ga  tau(  85) = (  0.8333332  0.1666668  0.6663874  )
        86           Ga  tau(  86) = (  0.8333332  0.1666668  0.9997208  )
        87           Ga  tau(  87) = (  0.8333332  0.4166668  0.3330541  )
        88           Ga  tau(  88) = (  0.8333332  0.4166668  0.6663874  )
        89           Ga  tau(  89) = (  0.8333332  0.4166668  0.9997208  )
        90           Ga  tau(  90) = (  0.8333332  0.6666668  0.3330541  )
        91           Ga  tau(  91) = (  0.8333332  0.6666668  0.6663874  )
        92           Ga  tau(  92) = (  0.8333332  0.6666668  0.9997208  )
        93           Ga  tau(  93) = (  0.8333332  0.9166668  0.3330541  )
        94           Ga  tau(  94) = (  0.8333332  0.9166668  0.6663874  )
        95           Ga  tau(  95) = (  0.8333332  0.9166668  0.9997208  )
        96           N   tau(  96) = (  0.1666667  0.0833333  0.2919459  )
        97           N   tau(  97) = (  0.1666667  0.0833333  0.6252792  )
        98           N   tau(  98) = (  0.1666667  0.0833333  0.9586126  )
        99           N   tau(  99) = (  0.1666667  0.3333333  0.2919459  )
       100           N   tau( 100) = (  0.1666667  0.3333333  0.6252792  )
       101           N   tau( 101) = (  0.1666667  0.3333333  0.9586126  )
       102           N   tau( 102) = (  0.1666667  0.5833333  0.2919459  )
       103           N   tau( 103) = (  0.1666667  0.5833333  0.6252792  )
       104           N   tau( 104) = (  0.1666667  0.5833333  0.9586126  )
       105           N   tau( 105) = (  0.1666667  0.8333333  0.2919459  )
       106           N   tau( 106) = (  0.1666667  0.8333333  0.6252792  )
       107           N   tau( 107) = (  0.1666667  0.8333333  0.9586126  )
       108           N   tau( 108) = (  0.4166667  0.0833333  0.2919459  )
       109           N   tau( 109) = (  0.4166667  0.0833333  0.6252792  )
       110           N   tau( 110) = (  0.4166667  0.0833333  0.9586126  )
       111           N   tau( 111) = (  0.4166667  0.3333333  0.2919459  )
       112           N   tau( 112) = (  0.4166667  0.3333333  0.6252792  )
       113           N   tau( 113) = (  0.4166667  0.3333333  0.9586126  )
       114           N   tau( 114) = (  0.4166667  0.5833333  0.2919459  )
       115           N   tau( 115) = (  0.4166667  0.5833333  0.6252792  )
       116           N   tau( 116) = (  0.4166667  0.5833333  0.9586126  )
       117           N   tau( 117) = (  0.4166667  0.8333333  0.2919459  )
       118           N   tau( 118) = (  0.4166667  0.8333333  0.6252792  )
       119           N   tau( 119) = (  0.4166667  0.8333333  0.9586126  )
       120           N   tau( 120) = (  0.6666667  0.0833333  0.2919459  )
       121           N   tau( 121) = (  0.6666667  0.0833333  0.6252792  )
       122           N   tau( 122) = (  0.6666667  0.0833333  0.9586126  )
       123           N   tau( 123) = (  0.6666667  0.3333333  0.2919459  )
       124           N   tau( 124) = (  0.6666667  0.3333333  0.6252792  )
       125           N   tau( 125) = (  0.6666667  0.3333333  0.9586126  )
       126           N   tau( 126) = (  0.6666667  0.5833333  0.2919459  )
       127           N   tau( 127) = (  0.6666667  0.5833333  0.6252792  )
       128           N   tau( 128) = (  0.6666667  0.5833333  0.9586126  )
       129           N   tau( 129) = (  0.6666667  0.8333333  0.2919459  )
       130           N   tau( 130) = (  0.6666667  0.8333333  0.6252792  )
       131           N   tau( 131) = (  0.6666667  0.8333333  0.9586126  )
       132           N   tau( 132) = (  0.9166667  0.0833333  0.2919459  )
       133           N   tau( 133) = (  0.9166667  0.0833333  0.6252792  )
       134           N   tau( 134) = (  0.9166667  0.0833333  0.9586126  )
       135           N   tau( 135) = (  0.9166667  0.3333333  0.2919459  )
       136           N   tau( 136) = (  0.9166667  0.3333333  0.6252792  )
       137           N   tau( 137) = (  0.9166667  0.3333333  0.9586126  )
       138           N   tau( 138) = (  0.9166667  0.5833333  0.2919459  )
       139           N   tau( 139) = (  0.9166667  0.5833333  0.6252792  )
       140           N   tau( 140) = (  0.9166667  0.5833333  0.9586126  )
       141           N   tau( 141) = (  0.9166667  0.8333333  0.2919459  )
       142           N   tau( 142) = (  0.9166667  0.8333333  0.6252792  )
       143           N   tau( 143) = (  0.9166667  0.8333333  0.9586126  )
       144           N   tau( 144) = (  0.0833333  0.1666668  0.1252792  )
       145           N   tau( 145) = (  0.0833333  0.1666668  0.4586126  )
       146           N   tau( 146) = (  0.0833333  0.1666668  0.7919459  )
       147           N   tau( 147) = (  0.0833333  0.4166668  0.1252792  )
       148           N   tau( 148) = (  0.0833333  0.4166668  0.4586126  )
       149           N   tau( 149) = (  0.0833333  0.4166668  0.7919459  )
       150           N   tau( 150) = (  0.0833333  0.6666668  0.1252792  )
       151           N   tau( 151) = (  0.0833333  0.6666668  0.4586126  )
       152           N   tau( 152) = (  0.0833333  0.6666668  0.7919459  )
       153           N   tau( 153) = (  0.0833333  0.9166668  0.1252792  )
       154           N   tau( 154) = (  0.0833333  0.9166668  0.4586126  )
       155           N   tau( 155) = (  0.0833333  0.9166668  0.7919459  )
       156           N   tau( 156) = (  0.3333332  0.1666668  0.1252792  )
       157           N   tau( 157) = (  0.3333332  0.1666668  0.4586126  )
       158           N   tau( 158) = (  0.3333332  0.1666668  0.7919459  )
       159           N   tau( 159) = (  0.3333332  0.4166668  0.1252792  )
       160           N   tau( 160) = (  0.3333332  0.4166668  0.4586126  )
       161           N   tau( 161) = (  0.3333332  0.4166668  0.7919459  )
       162           N   tau( 162) = (  0.3333332  0.6666668  0.1252792  )
       163           N   tau( 163) = (  0.3333332  0.6666668  0.4586126  )
       164           N   tau( 164) = (  0.3333332  0.6666668  0.7919459  )
       165           N   tau( 165) = (  0.3333332  0.9166668  0.1252792  )
       166           N   tau( 166) = (  0.3333332  0.9166668  0.4586126  )
       167           N   tau( 167) = (  0.3333332  0.9166668  0.7919459  )
       168           N   tau( 168) = (  0.5833332  0.1666668  0.1252792  )
       169           N   tau( 169) = (  0.5833332  0.1666668  0.4586126  )
       170           N   tau( 170) = (  0.5833332  0.1666668  0.7919459  )
       171           N   tau( 171) = (  0.5833332  0.4166668  0.1252792  )
       172           N   tau( 172) = (  0.5833332  0.4166668  0.4586126  )
       173           N   tau( 173) = (  0.5833332  0.4166668  0.7919459  )
       174           N   tau( 174) = (  0.5833332  0.6666668  0.1252792  )
       175           N   tau( 175) = (  0.5833332  0.6666668  0.4586126  )
       176           N   tau( 176) = (  0.5833332  0.6666668  0.7919459  )
       177           N   tau( 177) = (  0.5833332  0.9166668  0.1252792  )
       178           N   tau( 178) = (  0.5833332  0.9166668  0.4586126  )
       179           N   tau( 179) = (  0.5833332  0.9166668  0.7919459  )
       180           N   tau( 180) = (  0.8333332  0.1666668  0.1252792  )
       181           N   tau( 181) = (  0.8333332  0.1666668  0.4586126  )
       182           N   tau( 182) = (  0.8333332  0.1666668  0.7919459  )
       183           N   tau( 183) = (  0.8333332  0.4166668  0.1252792  )
       184           N   tau( 184) = (  0.8333332  0.4166668  0.4586126  )
       185           N   tau( 185) = (  0.8333332  0.4166668  0.7919459  )
       186           N   tau( 186) = (  0.8333332  0.6666668  0.1252792  )
       187           N   tau( 187) = (  0.8333332  0.6666668  0.4586126  )
       188           N   tau( 188) = (  0.8333332  0.6666668  0.7919459  )
       189           N   tau( 189) = (  0.8333332  0.9166668  0.1252792  )
       190           N   tau( 190) = (  0.8333332  0.9166668  0.4586126  )
       191           N   tau( 191) = (  0.8333332  0.9166668  0.7919459  )
       192           N   tau( 192) = (  0.1666667  0.0833333  0.1663874  )

     number of k points=     4  Gaussian smearing, width (Ry)=  0.0100
                       cart. coord. in units 2pi/alat
        k(    1) = (   0.0000000   0.0000000   0.0000000), wk =   0.2500000
        k(    2) = (   0.0000000   0.0000000  -0.4090283), wk =   0.2500000
        k(    3) = (   0.0000000  -0.5773503   0.0000000), wk =   0.7500000
        k(    4) = (   0.0000000  -0.5773503  -0.4090283), wk =   0.7500000

                       cryst. coord.
        k(    1) = (   0.0000000   0.0000000   0.0000000), wk =   0.2500000
        k(    2) = (   0.0000000   0.0000000  -0.5000000), wk =   0.2500000
        k(    3) = (   0.0000000  -0.5000000   0.0000000), wk =   0.7500000
        k(    4) = (   0.0000000  -0.5000000  -0.5000000), wk =   0.7500000

     Dense  grid:  1726709 G-vectors     FFT dimensions: ( 160, 160, 180)

     Smooth grid:  1235535 G-vectors     FFT dimensions: ( 144, 144, 160)

     Dynamical RAM for                 wfc:      37.96 MB

     Dynamical RAM for     wfc (w. buffer):      37.96 MB

     Dynamical RAM for           str. fact:       0.82 MB

     Dynamical RAM for           local pot:       0.00 MB

     Dynamical RAM for          nlocal pot:      91.53 MB

     Dynamical RAM for                qrad:       3.00 MB

     Dynamical RAM for          rho,v,vnew:       2.99 MB

     Dynamical RAM for               rhoin:       1.00 MB

     Dynamical RAM for            rho*nmix:       6.59 MB

     Dynamical RAM for           G-vectors:       1.69 MB

     Dynamical RAM for          h,s,v(r/c):     778.54 MB

     Dynamical RAM for          <psi|beta>:      39.11 MB

     Dynamical RAM for                 psi:     151.84 MB

     Dynamical RAM for                hpsi:     151.84 MB

     Dynamical RAM for                spsi:     151.84 MB

     Dynamical RAM for      wfcinit/wfcrot:     100.26 MB

     Dynamical RAM for           addusdens:      29.44 MB

     Dynamical RAM for          addusforce:      49.47 MB

     Dynamical RAM for         addusstress:      20.84 MB

     Estimated static dynamical RAM per process >     143.17 MB

     Estimated max dynamical RAM per process >       1.39 GB

     Estimated total dynamical RAM >     354.50 GB

     Atomic positions and unit cell read from directory:
     ./GaN.save/
     Atomic positions from file used, from input discarded
 

     Check: negative core charge=   -0.000003

     The initial density is read from file :
     ./GaN.save/charge-density


     starting charge    1719.0000, renormalised to    1718.0000


     %%%%%%%%%%%%%%%%%%%%%%%%%%%%%%%%%%%%%%%%%%%%%%%%%%%%%%%%%%%%%%%%%%%%%%%%
     %                                                                      %
     % You are using vdW-DF, which was implemented by the Thonhauser group. %
     % Please cite the following two papers that made this development      %
     % possible and the two reviews that describe the various versions:     %
     %                                                                      %
     %   T. Thonhauser et al., PRL 115, 136402 (2015).                      %
     %   T. Thonhauser et al., PRB 76, 125112 (2007).                       %
     %   K. Berland et al., Rep. Prog. Phys. 78, 066501 (2015).             %
     %   D.C. Langreth et al., J. Phys.: Condens. Matter 21, 084203 (2009). %
     %                                                                      %
     % If you are calculating stress with vdW-DF, please also cite:         %
     %                                                                      %
     %   R. Sabatini et al., J. Phys.: Condens. Matter 24, 424209 (2012).   %
     %                                                                      %
     %%%%%%%%%%%%%%%%%%%%%%%%%%%%%%%%%%%%%%%%%%%%%%%%%%%%%%%%%%%%%%%%%%%%%%%%

     %%%%%%%%%%%%%%%%%%%%%%%%%%%%%%%%%%%%%%%%%%%%%%%%%%%%%%%%%%%%%%%%%%%%%%%%
     %                                                                      %
     %  vdW-DF NEWS:                                                        %
     %                                                                      %
     %  * vdW-DF3 is now available. DOI: 10.1021/acs.jctc.0c00471           %
     %    use with input_dft = 'vdW-DF3-opt1' or 'vdW-DF3-opt2'             %
     %                                                                      %
     %  * Unscreened and range-separated vdW-DF hybrid functionals          %
     %    DOI: 10.1063/1.4986522 and 10.1088/1361-648X/ac2ad2               %
     %    use with input_dft = 'vdW-DF-cx0' (etc) and 'vdW-DF-ahcx'         %
     %                                                                      %
     %%%%%%%%%%%%%%%%%%%%%%%%%%%%%%%%%%%%%%%%%%%%%%%%%%%%%%%%%%%%%%%%%%%%%%%%


     Carrying out vdW-DF run using the following parameters:
     Nqs    =  20  Npoints =  1024  r_max =  100.000
     q_mesh =  0.00001000  0.04494208  0.09755937  0.15916263
               0.23128650  0.31572767  0.41458969  0.53033537
               0.66584808  0.82450364  1.01025438  1.22772762
               1.48234092  1.78043706  2.12944203  2.53805004
               3.01644009  3.57652955  4.23227104  5.00000000


     -----------------------------------------------
     Non-local corr. energy    =      51.87442501 Ry
     -----------------------------------------------

     Wavefunctions not found or not readable, recomputing them from scratch
     Starting wfcs are 1243 randomized atomic wfcs
     Checking if some PAW data can be deallocated... 
       PAW data deallocated on   97 nodes for type:  1
       PAW data deallocated on  159 nodes for type:  2

     total cpu time spent up to now is       36.9 secs

     Self-consistent Calculation

     iteration #  1     ecut=    70.00 Ry     beta= 0.70
     Davidson diagonalization with overlap

---- Real-time Memory Report at c_bands before calling an iterative solver
           575 MiB given to the printing process from OS
             0 MiB allocation reported by mallinfo(arena+hblkhd)
       1805830 MiB available memory on the node where the printing process lives
------------------
     ethr =  1.00E-05,  avg # of iterations = 28.5


     -----------------------------------------------
     Non-local corr. energy    =      51.94376964 Ry
     -----------------------------------------------


     total cpu time spent up to now is      535.9 secs

     total energy              =  -29726.16104189 Ry
     estimated scf accuracy    <       0.18507130 Ry

     iteration #  2     ecut=    70.00 Ry     beta= 0.70
     Davidson diagonalization with overlap

---- Real-time Memory Report at c_bands before calling an iterative solver
          1519 MiB given to the printing process from OS
             0 MiB allocation reported by mallinfo(arena+hblkhd)
       1805065 MiB available memory on the node where the printing process lives
------------------
     ethr =  1.08E-05,  avg # of iterations = 11.3


     -----------------------------------------------
     Non-local corr. energy    =      51.93414349 Ry
     -----------------------------------------------


     total cpu time spent up to now is      870.9 secs

     total energy              =  -29726.01391994 Ry
     estimated scf accuracy    <       3.38251621 Ry

     iteration #  3     ecut=    70.00 Ry     beta= 0.70
     Davidson diagonalization with overlap

---- Real-time Memory Report at c_bands before calling an iterative solver
          1519 MiB given to the printing process from OS
             0 MiB allocation reported by mallinfo(arena+hblkhd)
       1796623 MiB available memory on the node where the printing process lives
------------------
     ethr =  1.08E-05,  avg # of iterations = 12.8


     -----------------------------------------------
     Non-local corr. energy    =      51.92446753 Ry
     -----------------------------------------------


     total cpu time spent up to now is     1185.5 secs

     total energy              =  -29726.27235478 Ry
     estimated scf accuracy    <       0.08632266 Ry

     iteration #  4     ecut=    70.00 Ry     beta= 0.70
     Davidson diagonalization with overlap

---- Real-time Memory Report at c_bands before calling an iterative solver
          1519 MiB given to the printing process from OS
             0 MiB allocation reported by mallinfo(arena+hblkhd)
       1796460 MiB available memory on the node where the printing process lives
------------------
     ethr =  5.02E-06,  avg # of iterations = 14.3


     -----------------------------------------------
     Non-local corr. energy    =      51.91681850 Ry
     -----------------------------------------------


     total cpu time spent up to now is     1440.8 secs

     total energy              =  -29726.27676393 Ry
     estimated scf accuracy    <       0.07210650 Ry

     iteration #  5     ecut=    70.00 Ry     beta= 0.70
     Davidson diagonalization with overlap

---- Real-time Memory Report at c_bands before calling an iterative solver
          1519 MiB given to the printing process from OS
             0 MiB allocation reported by mallinfo(arena+hblkhd)
       1796069 MiB available memory on the node where the printing process lives
------------------
     ethr =  4.20E-06,  avg # of iterations = 14.0


     -----------------------------------------------
     Non-local corr. energy    =      51.90641079 Ry
     -----------------------------------------------


     total cpu time spent up to now is     1646.4 secs

     total energy              =  -29726.28318267 Ry
     estimated scf accuracy    <       0.01764765 Ry

     iteration #  6     ecut=    70.00 Ry     beta= 0.70
     Davidson diagonalization with overlap

---- Real-time Memory Report at c_bands before calling an iterative solver
          1519 MiB given to the printing process from OS
             0 MiB allocation reported by mallinfo(arena+hblkhd)
       1795396 MiB available memory on the node where the printing process lives
------------------
     ethr =  1.03E-06,  avg # of iterations = 15.0


     -----------------------------------------------
     Non-local corr. energy    =      51.90009860 Ry
     -----------------------------------------------


     total cpu time spent up to now is     1880.8 secs

     total energy              =  -29726.28431943 Ry
     estimated scf accuracy    <       0.00136500 Ry

     iteration #  7     ecut=    70.00 Ry     beta= 0.70
     Davidson diagonalization with overlap

---- Real-time Memory Report at c_bands before calling an iterative solver
          1519 MiB given to the printing process from OS
             0 MiB allocation reported by mallinfo(arena+hblkhd)
       1795209 MiB available memory on the node where the printing process lives
------------------
     ethr =  7.95E-08,  avg # of iterations = 16.0


     -----------------------------------------------
     Non-local corr. energy    =      51.89999193 Ry
     -----------------------------------------------


     total cpu time spent up to now is     2256.8 secs

     total energy              =  -29726.28460393 Ry
     estimated scf accuracy    <       0.00057215 Ry

     iteration #  8     ecut=    70.00 Ry     beta= 0.70
     Davidson diagonalization with overlap

---- Real-time Memory Report at c_bands before calling an iterative solver
          1519 MiB given to the printing process from OS
             0 MiB allocation reported by mallinfo(arena+hblkhd)
       1795009 MiB available memory on the node where the printing process lives
------------------
     ethr =  3.33E-08,  avg # of iterations = 15.3


     -----------------------------------------------
     Non-local corr. energy    =      51.90182213 Ry
     -----------------------------------------------


     total cpu time spent up to now is     2570.2 secs

     total energy              =  -29726.28474240 Ry
     estimated scf accuracy    <       0.00007905 Ry

     iteration #  9     ecut=    70.00 Ry     beta= 0.70
     Davidson diagonalization with overlap

---- Real-time Memory Report at c_bands before calling an iterative solver
          1519 MiB given to the printing process from OS
             0 MiB allocation reported by mallinfo(arena+hblkhd)
       1794874 MiB available memory on the node where the printing process lives
------------------
     ethr =  4.60E-09,  avg # of iterations = 11.5


     -----------------------------------------------
     Non-local corr. energy    =      51.90346961 Ry
     -----------------------------------------------


     total cpu time spent up to now is     2985.4 secs

     total energy              =  -29726.28476995 Ry
     estimated scf accuracy    <       0.00003447 Ry

     iteration # 10     ecut=    70.00 Ry     beta= 0.70
     Davidson diagonalization with overlap

---- Real-time Memory Report at c_bands before calling an iterative solver
          1519 MiB given to the printing process from OS
             0 MiB allocation reported by mallinfo(arena+hblkhd)
       1794708 MiB available memory on the node where the printing process lives
------------------
     ethr =  2.01E-09,  avg # of iterations = 14.0


     -----------------------------------------------
     Non-local corr. energy    =      51.90435432 Ry
     -----------------------------------------------


     total cpu time spent up to now is     3246.0 secs

     total energy              =  -29726.28477213 Ry
     estimated scf accuracy    <       0.00001736 Ry

     iteration # 11     ecut=    70.00 Ry     beta= 0.70
     Davidson diagonalization with overlap

---- Real-time Memory Report at c_bands before calling an iterative solver
          1519 MiB given to the printing process from OS
             0 MiB allocation reported by mallinfo(arena+hblkhd)
       1793619 MiB available memory on the node where the printing process lives
------------------
     ethr =  1.01E-09,  avg # of iterations = 14.0


     -----------------------------------------------
     Non-local corr. energy    =      51.90415000 Ry
     -----------------------------------------------


     total cpu time spent up to now is     3500.1 secs

     total energy              =  -29726.28477445 Ry
     estimated scf accuracy    <       0.00000455 Ry

     iteration # 12     ecut=    70.00 Ry     beta= 0.70
     Davidson diagonalization with overlap

---- Real-time Memory Report at c_bands before calling an iterative solver
          1519 MiB given to the printing process from OS
             0 MiB allocation reported by mallinfo(arena+hblkhd)
       1793610 MiB available memory on the node where the printing process lives
------------------
     ethr =  2.65E-10,  avg # of iterations = 14.3


     -----------------------------------------------
     Non-local corr. energy    =      51.90369386 Ry
     -----------------------------------------------


     total cpu time spent up to now is     3953.3 secs

     total energy              =  -29726.28477533 Ry
     estimated scf accuracy    <       0.00000285 Ry

     iteration # 13     ecut=    70.00 Ry     beta= 0.70
     Davidson diagonalization with overlap

---- Real-time Memory Report at c_bands before calling an iterative solver
          1519 MiB given to the printing process from OS
             0 MiB allocation reported by mallinfo(arena+hblkhd)
       1794649 MiB available memory on the node where the printing process lives
------------------
     ethr =  1.66E-10,  avg # of iterations = 15.5


     -----------------------------------------------
     Non-local corr. energy    =      51.90357599 Ry
     -----------------------------------------------


     total cpu time spent up to now is     4211.3 secs

     total energy              =  -29726.28477537 Ry
     estimated scf accuracy    <       0.00000255 Ry

     iteration # 14     ecut=    70.00 Ry     beta= 0.70
     Davidson diagonalization with overlap

---- Real-time Memory Report at c_bands before calling an iterative solver
          1519 MiB given to the printing process from OS
             0 MiB allocation reported by mallinfo(arena+hblkhd)
       1793554 MiB available memory on the node where the printing process lives
------------------
     ethr =  1.48E-10,  avg # of iterations = 16.3


     -----------------------------------------------
     Non-local corr. energy    =      51.90320723 Ry
     -----------------------------------------------


     total cpu time spent up to now is     4457.2 secs

     total energy              =  -29726.28477544 Ry
     estimated scf accuracy    <       0.00000028 Ry

     iteration # 15     ecut=    70.00 Ry     beta= 0.70
     Davidson diagonalization with overlap

---- Real-time Memory Report at c_bands before calling an iterative solver
          1519 MiB given to the printing process from OS
             0 MiB allocation reported by mallinfo(arena+hblkhd)
       1793456 MiB available memory on the node where the printing process lives
------------------
     ethr =  1.64E-11,  avg # of iterations =  7.0


     -----------------------------------------------
     Non-local corr. energy    =      51.90329046 Ry
     -----------------------------------------------


     total cpu time spent up to now is     4701.8 secs

     total energy              =  -29726.28477555 Ry
     estimated scf accuracy    <       0.00000015 Ry

     iteration # 16     ecut=    70.00 Ry     beta= 0.70
     Davidson diagonalization with overlap

---- Real-time Memory Report at c_bands before calling an iterative solver
          1519 MiB given to the printing process from OS
             0 MiB allocation reported by mallinfo(arena+hblkhd)
       1794544 MiB available memory on the node where the printing process lives
------------------
     ethr =  8.65E-12,  avg # of iterations = 14.0


     -----------------------------------------------
     Non-local corr. energy    =      51.90354992 Ry
     -----------------------------------------------


     total cpu time spent up to now is     4921.2 secs

     End of self-consistent calculation

          k = 0.0000 0.0000 0.0000 (154543 PWs)   bands (ev):

   -11.7953  -7.0424  -7.0424  -6.9976  -6.8954  -6.7948  -6.7948  -6.7749
    -6.7183  -6.6478  -6.6477  -6.6272  -6.6143  -6.6143  -6.5989  -6.5937
    -6.5937  -6.5717  -6.5717  -6.5678  -6.5472  -6.5365  -6.5148  -6.5147
    -6.5059  -6.4911  -6.4747  -6.4746  -6.4663  -6.4536  -6.4536  -6.4510
    -6.4473  -6.4473  -6.4428  -6.4418  -6.4365  -6.4330  -6.4330  -6.4155
    -6.4138  -6.4138  -6.3905  -6.3896  -6.3895  -6.3794  -6.3794  -6.3756
    -6.3756  -6.3750  -6.3730  -6.3729  -6.3667  -6.3637  -6.3637  -6.3599
    -6.3503  -6.3448  -6.3448  -6.3415  -6.3415  -6.3367  -6.3357  -6.3357
    -6.3291  -6.3259  -6.3157  -6.3157  -6.3105  -6.3105  -6.3031  -6.3023
    -6.3023  -6.2938  -6.2907  -6.2895  -6.2895  -6.2862  -6.2861  -6.2844
    -6.2844  -6.2757  -6.2744  -6.2660  -6.2659  -6.2595  -6.2594  -6.2570
    -6.2554  -6.2503  -6.2503  -6.2385  -6.2385  -6.2327  -6.2309  -6.2309
    -5.8165  -5.7266  -5.7266  -5.7226  -5.7198  -5.7112  -5.7112  -5.6949
    -5.6949  -5.6778  -5.6771  -5.6771  -5.6579  -5.6534  -5.6534  -5.6452
    -5.6452  -5.6285  -5.6280  -5.6168  -5.6168  -5.5995  -5.5961  -5.5925
    -5.5925  -5.5823  -5.5822  -5.5703  -5.5602  -5.5602  -5.5400  -5.5400
    -5.5356  -5.5227  -5.5220  -5.5220  -5.4883  -5.4883  -5.4629  -5.4569
    -5.4569  -5.4527  -5.3383  -5.3383  -5.3311  -5.3311  -5.3298  -5.3156
    -5.3114  -5.3114  -5.3060  -5.3040  -5.3040  -5.3023  -5.2981  -5.2981
    -5.2973  -5.2904  -5.2902  -5.2902  -5.2847  -5.2847  -5.2806  -5.2680
    -5.2680  -5.2664  -5.2664  -5.2558  -5.2552  -5.2551  -5.2532  -5.2513
    -5.2513  -5.2506  -5.2427  -5.2427  -5.2419  -5.2407  -5.2389  -5.2389
    -5.2369  -5.2369  -5.2356  -5.2356  -5.2293  -5.2288  -5.2288  -5.2271
    -5.2271  -5.2258  -5.2252  -5.2249  -5.2249  -5.2224  -5.2224  -5.2204
    -5.2176  -5.2140  -5.2140  -5.2130  -5.2130  -5.2091  -5.2091  -5.2061
    -5.2060  -5.2056  -5.2056  -5.2019  -5.2019  -5.1982  -5.1974  -5.1974
    -5.1970  -5.1961  -5.1952  -5.1952  -5.1937  -5.1906  -5.1906  -5.1882
    -5.1864  -5.1852  -5.1852  -5.1842  -5.1839  -5.1839  -5.1829  -5.1797
    -5.1797  -5.1766  -5.1766  -5.1753  -5.1746  -5.1723  -5.1680  -5.1680
    -5.1677  -5.1667  -5.1667  -5.1641  -5.1641  -5.1640  -5.1616  -5.1616
    -5.1607  -5.1588  -5.1588  -5.1580  -5.1580  -5.1568  -5.1561  -5.1537
    -5.1528  -5.1528  -5.1502  -5.1502  -5.1478  -5.1467  -5.1467  -5.1450
    -5.1450  -5.1432  -5.1432  -5.1422  -5.1414  -5.1406  -5.1406  -5.1400
    -5.1400  -5.1388  -5.1357  -5.1357  -5.1349  -5.1341  -5.1332  -5.1332
    -5.1322  -5.1311  -5.1302  -5.1302  -5.1274  -5.1274  -5.1238  -5.1225
    -5.1225  -5.1199  -5.1199  -5.1198  -5.1176  -5.1165  -5.1165  -5.1154
    -5.1149  -5.1149  -5.1104  -5.1095  -5.1095  -5.1080  -5.1077  -5.1077
    -5.1069  -5.1069  -5.1065  -5.1059  -5.1059  -5.1030  -5.1030  -5.1016
    -5.1016  -5.0989  -5.0967  -5.0961  -5.0949  -5.0949  -5.0935  -5.0931
    -5.0931  -5.0913  -5.0910  -5.0910  -5.0885  -5.0883  -5.0883  -5.0876
    -5.0868  -5.0868  -5.0836  -5.0831  -5.0831  -5.0819  -5.0806  -5.0806
    -5.0797  -5.0783  -5.0775  -5.0760  -5.0760  -5.0737  -5.0737  -5.0727
    -5.0711  -5.0711  -5.0708  -5.0699  -5.0699  -5.0692  -5.0674  -5.0674
    -5.0661  -5.0661  -5.0655  -5.0627  -5.0617  -5.0617  -5.0613  -5.0585
    -5.0582  -5.0582  -5.0573  -5.0573  -5.0549  -5.0539  -5.0539  -5.0538
    -5.0520  -5.0520  -5.0485  -5.0482  -5.0482  -5.0463  -5.0449  -5.0449
    -5.0436  -5.0436  -5.0419  -5.0385  -5.0385  -5.0372  -5.0339  -5.0339
    -5.0300  -5.0300  -5.0293  -5.0277  -5.0277  -5.0262  -5.0262  -5.0244
    -5.0228  -5.0228  -5.0219  -5.0198  -5.0170  -5.0170  -5.0154  -5.0154
    -5.0138  -5.0137  -5.0137  -5.0108  -5.0102  -5.0102  -5.0086  -5.0086
    -5.0084  -5.0060  -5.0060  -5.0058  -5.0051  -5.0031  -5.0030  -5.0030
    -5.0006  -4.9973  -4.9962  -4.9962  -4.9947  -4.9947  -4.9935  -4.9935
    -4.9885  -4.9885  -4.9873  -4.9850  -4.9850  -4.9836  -4.9830  -4.9830
    -4.9803  -4.9803  -4.9779  -4.9771  -4.9771  -4.9750  -4.9737  -4.9737
    -4.9737  -4.9692  -4.9692  -4.9645  -4.9645  -4.9630  -4.9604  -4.9604
    -4.9595  -4.9588  -4.9588  -4.9549  -4.9549  -4.9535  -4.9495  -4.9478
    -4.9471  -4.9471  -4.9448  -4.9448  -4.9392  -4.9385  -4.9385  -4.9355
    -4.9355  -4.9342  -4.9330  -4.9330  -4.9289  -4.9272  -4.9272  -4.9240
    -4.9229  -4.9229  -4.9207  -4.9204  -4.9204  -4.9132  -4.9099  -4.9099
    -4.9099  -4.9065  -4.9065  -4.9061  -4.9021  -4.9021  -4.8884  -4.8884
    -4.8859  -4.8590  -4.8590  -4.8489  -4.8043  -4.7971  -4.7970  -4.6469
    -4.6333  -4.6333  -4.5873  -4.5872  -4.5833  -4.5832  -4.5705  -4.5624
    -4.5287  -4.5287  -4.4571  -4.3027  -4.2286  -3.9105  -3.8794  -3.8790
    -3.8790  -3.8371  -3.8371  -3.8289  -3.8289  -3.7943  -3.7943  -3.7844
    -3.7754  -3.7754  -3.7735  -3.7415  -3.7290  -3.7290  -3.6916  -3.6732
    -3.6532  -3.6428  -3.6428  -3.6160  -3.6160  -3.5920  -3.5909  -3.5892
    -3.5892  -3.5783  -3.5783  -3.5278  -3.5091  -3.5090  -3.4950  -3.4897
    -3.4896  -3.4830  -3.3799  -3.3799  -3.3178  -3.2209  -3.2078  -3.2078
    -3.2056  -3.2056  -3.1980  -3.1716  -3.1716  -3.1674  -3.1434  -3.1356
    -3.1340  -3.1339  -3.1205  -3.1205  -3.1178  -3.1178  -3.1003  -3.0997
    -3.0997  -3.0843  -3.0042  -3.0042  -2.9943  -2.8439  -2.8414  -2.8414
    -2.8122  -2.8118  -2.8118  -1.7386   1.2059   1.2059   1.6867   2.2189
     2.2333   2.2333   2.3068   2.3314   2.3314   2.4182   2.5491   2.5491
     2.5743   2.6765   2.6765   2.7754   2.7754   2.7998   2.7998   2.8106
     2.8107   2.8158   2.8293   2.8549   2.8636   2.8636   2.8735   2.8762
     2.8950   2.9002   2.9003   2.9143   2.9143   2.9807   2.9807   3.1188
     3.1784   3.1792   3.1792   3.1841   3.2081   3.2081   3.2299   3.2789
     3.2789   3.3106   3.3219   3.3219   3.3311   3.3327   3.3327   3.3531
     3.3963   3.3963   3.4960   3.5558   3.5559   3.5839   3.5839   3.5938
     3.6007   3.6011   3.6012   3.6134   3.6244   3.6244   3.6294   3.6507
     3.6918   3.6918   3.8030   3.8030   3.8185   3.8256   3.9242   3.9242
     4.0866   4.5567   4.7778   4.7778   4.7958   4.8045   4.8045   4.8422
     4.8423   4.8820   4.8820   4.8834   4.8967   4.8967   4.9074   4.9250
     4.9270   4.9327   4.9328   4.9504   4.9504   4.9568   4.9705   4.9705
     4.9960   4.9960   4.9971   5.0043   5.0139   5.0139   5.0299   5.0639
     5.0639   5.1025   5.1025   5.1664   5.1664   5.1734   5.1849   5.1915
     5.2013   5.2013   5.2294   5.3279   5.3755   5.3755   5.7050   5.8080
     5.8080   5.8211   5.8603   5.8603   5.9085   5.9231   5.9231   5.9334
     5.9335   5.9480   5.9480   5.9577   5.9701   5.9701   5.9733   6.0207
     6.0207   6.0226   6.0445   6.0445   6.0725   6.0725   6.0785   6.0912
     6.0913   6.0913   6.0997   6.1160   6.1160   6.1200   6.1226   6.1255
     6.1255   6.1643   6.2813   6.2855   6.2855   6.3519   6.3549   6.3549
     6.3776   6.4041   6.4043   6.4043   6.4084   6.4084   6.4242   6.4322
     6.4322   6.4750   6.5044   6.5044   6.5109   6.5520   6.6182   6.6182
     6.6578   6.6578   6.7391   6.7413   6.7413   6.8064   6.8064   6.8071
     6.8162   6.8205   6.8206   6.8436   6.8796   6.8818   6.8819   6.9363
     6.9607   6.9607   6.9910   7.0339   7.0339   7.0899   7.1469   7.1469
     7.1673   7.1692   7.1692   7.1868   7.1894   7.1895   7.1977   7.2181
     7.2313   7.2314   7.2627   7.2627   7.2769   7.2769   7.2799   7.3201
     7.3284   7.3284   7.3287   7.3678   7.4248   7.4248   7.4248   7.4566
     7.4566   7.4636   7.4636   7.4767   7.4767   7.4841   7.5124   7.5264
     7.5453   7.5453   7.5729   7.5729   7.6070   7.6070   7.6268   7.6268
     7.6348   7.6348   7.6407   7.6483   7.6837   7.7278   7.7279   7.7747
     7.8122   7.8122   7.8485   7.8485   7.8542   7.8659   7.8703   7.8704
     7.8859   7.8905   7.8906   7.9011   7.9921   7.9922   7.9949   7.9949
     8.0398   8.0398   8.0943   8.0943   8.1237   8.1948   8.2368   8.2369
     8.2616   8.2744   8.2744   8.2902   8.4276   8.4277   8.4982   8.4983
     8.6875   8.7639   8.7640   8.9932  10.1166  11.2131  11.8834  11.8835
    11.9684  12.1579  12.5230  12.5230  12.6382  12.7024  12.7190  12.7871
    12.7871  12.7942  12.8183  12.8184  12.8244  12.8739  12.9528  12.9528
    12.9798  12.9799  13.0013  13.0492  13.0654  13.0654  13.1005  13.1005
    13.1214  13.1806  13.2931  13.4217  13.4218  13.6388  13.6388  13.7230
    13.7681  13.7681  13.8414  13.8578  13.8578  13.9259  13.9338  13.9339
    13.9648  13.9725  14.0831  14.0832  14.0974  14.0974  14.2027  14.2864
    14.2864  14.3124  14.3124  14.3265  14.3356  14.3410  14.3410  14.3509
    14.3578  14.3578  14.3779  14.3779  14.3785  14.4291  14.4342  14.4343
    14.4634  14.4635  14.4721  14.5463  14.5464  14.5467  14.5843  14.7040
    14.7040  14.7388  14.7670  14.7868  14.7869  14.7869  14.7981  14.7981
    14.8456  14.8456  14.8573  14.8574  14.8592  14.8690  14.8800  14.8800
    14.8819  14.8900  14.9110  14.9110  14.9616  14.9715  14.9715  15.3088
    15.3088  15.3137  15.4379  15.5755  15.5755  15.6961  15.7189  15.7189
    15.8564  15.8595  15.8595  15.8905  15.8944  15.8944  15.9506  15.9713
    15.9713  15.9820  16.0006  16.0006  16.0408  16.0434  16.0434  16.0657
    16.0824  16.0825  16.1003  16.1003  16.1734  16.1734  16.1783  16.2408
    16.2434  16.2610  16.2610  16.3088  16.3100  16.3100  16.3243  16.3532
    16.3532  16.3944  16.3945  16.4159  16.4160  16.4166  16.4380  16.4380
    16.4440  16.4542  16.4542  16.4667  16.4876  16.5015  16.5015  16.5164
    16.5239  16.5239  16.5278  16.5461  16.5461  16.5463  16.5551  16.5687
    16.5756  16.5756  16.5881  16.5881  16.5902  16.5931  16.5931

     occupation numbers 
     1.0000   1.0000   1.0000   1.0000   1.0000   1.0000   1.0000   1.0000
     1.0000   1.0000   1.0000   1.0000   1.0000   1.0000   1.0000   1.0000
     1.0000   1.0000   1.0000   1.0000   1.0000   1.0000   1.0000   1.0000
     1.0000   1.0000   1.0000   1.0000   1.0000   1.0000   1.0000   1.0000
     1.0000   1.0000   1.0000   1.0000   1.0000   1.0000   1.0000   1.0000
     1.0000   1.0000   1.0000   1.0000   1.0000   1.0000   1.0000   1.0000
     1.0000   1.0000   1.0000   1.0000   1.0000   1.0000   1.0000   1.0000
     1.0000   1.0000   1.0000   1.0000   1.0000   1.0000   1.0000   1.0000
     1.0000   1.0000   1.0000   1.0000   1.0000   1.0000   1.0000   1.0000
     1.0000   1.0000   1.0000   1.0000   1.0000   1.0000   1.0000   1.0000
     1.0000   1.0000   1.0000   1.0000   1.0000   1.0000   1.0000   1.0000
     1.0000   1.0000   1.0000   1.0000   1.0000   1.0000   1.0000   1.0000
     1.0000   1.0000   1.0000   1.0000   1.0000   1.0000   1.0000   1.0000
     1.0000   1.0000   1.0000   1.0000   1.0000   1.0000   1.0000   1.0000
     1.0000   1.0000   1.0000   1.0000   1.0000   1.0000   1.0000   1.0000
     1.0000   1.0000   1.0000   1.0000   1.0000   1.0000   1.0000   1.0000
     1.0000   1.0000   1.0000   1.0000   1.0000   1.0000   1.0000   1.0000
     1.0000   1.0000   1.0000   1.0000   1.0000   1.0000   1.0000   1.0000
     1.0000   1.0000   1.0000   1.0000   1.0000   1.0000   1.0000   1.0000
     1.0000   1.0000   1.0000   1.0000   1.0000   1.0000   1.0000   1.0000
     1.0000   1.0000   1.0000   1.0000   1.0000   1.0000   1.0000   1.0000
     1.0000   1.0000   1.0000   1.0000   1.0000   1.0000   1.0000   1.0000
     1.0000   1.0000   1.0000   1.0000   1.0000   1.0000   1.0000   1.0000
     1.0000   1.0000   1.0000   1.0000   1.0000   1.0000   1.0000   1.0000
     1.0000   1.0000   1.0000   1.0000   1.0000   1.0000   1.0000   1.0000
     1.0000   1.0000   1.0000   1.0000   1.0000   1.0000   1.0000   1.0000
     1.0000   1.0000   1.0000   1.0000   1.0000   1.0000   1.0000   1.0000
     1.0000   1.0000   1.0000   1.0000   1.0000   1.0000   1.0000   1.0000
     1.0000   1.0000   1.0000   1.0000   1.0000   1.0000   1.0000   1.0000
     1.0000   1.0000   1.0000   1.0000   1.0000   1.0000   1.0000   1.0000
     1.0000   1.0000   1.0000   1.0000   1.0000   1.0000   1.0000   1.0000
     1.0000   1.0000   1.0000   1.0000   1.0000   1.0000   1.0000   1.0000
     1.0000   1.0000   1.0000   1.0000   1.0000   1.0000   1.0000   1.0000
     1.0000   1.0000   1.0000   1.0000   1.0000   1.0000   1.0000   1.0000
     1.0000   1.0000   1.0000   1.0000   1.0000   1.0000   1.0000   1.0000
     1.0000   1.0000   1.0000   1.0000   1.0000   1.0000   1.0000   1.0000
     1.0000   1.0000   1.0000   1.0000   1.0000   1.0000   1.0000   1.0000
     1.0000   1.0000   1.0000   1.0000   1.0000   1.0000   1.0000   1.0000
     1.0000   1.0000   1.0000   1.0000   1.0000   1.0000   1.0000   1.0000
     1.0000   1.0000   1.0000   1.0000   1.0000   1.0000   1.0000   1.0000
     1.0000   1.0000   1.0000   1.0000   1.0000   1.0000   1.0000   1.0000
     1.0000   1.0000   1.0000   1.0000   1.0000   1.0000   1.0000   1.0000
     1.0000   1.0000   1.0000   1.0000   1.0000   1.0000   1.0000   1.0000
     1.0000   1.0000   1.0000   1.0000   1.0000   1.0000   1.0000   1.0000
     1.0000   1.0000   1.0000   1.0000   1.0000   1.0000   1.0000   1.0000
     1.0000   1.0000   1.0000   1.0000   1.0000   1.0000   1.0000   1.0000
     1.0000   1.0000   1.0000   1.0000   1.0000   1.0000   1.0000   1.0000
     1.0000   1.0000   1.0000   1.0000   1.0000   1.0000   1.0000   1.0000
     1.0000   1.0000   1.0000   1.0000   1.0000   1.0000   1.0000   1.0000
     1.0000   1.0000   1.0000   1.0000   1.0000   1.0000   1.0000   1.0000
     1.0000   1.0000   1.0000   1.0000   1.0000   1.0000   1.0000   1.0000
     1.0000   1.0000   1.0000   1.0000   1.0000   1.0000   1.0000   1.0000
     1.0000   1.0000   1.0000   1.0000   1.0000   1.0000   1.0000   1.0000
     1.0000   1.0000   1.0000   1.0000   1.0000   1.0000   1.0000   1.0000
     1.0000   1.0000   1.0000   1.0000   1.0000   1.0000   1.0000   1.0000
     1.0000   1.0000   1.0000   1.0000   1.0000   1.0000   1.0000   1.0000
     1.0000   1.0000   1.0000   1.0000   1.0000   1.0000   1.0000   1.0000
     1.0000   1.0000   1.0000   1.0000   1.0000   1.0000   1.0000   1.0000
     1.0000   1.0000   1.0000   1.0000   1.0000   1.0000   1.0000   1.0000
     1.0000   1.0000   1.0000   1.0000   1.0000   1.0000   1.0000   1.0000
     1.0000   1.0000   1.0000   1.0000   1.0000   1.0000   1.0000   1.0000
     1.0000   1.0000   1.0000   1.0000   1.0000   1.0000   1.0000   1.0000
     1.0000   1.0000   1.0000   1.0000   1.0000   1.0000   1.0000   1.0000
     1.0000   1.0000   1.0000   1.0000   1.0000   1.0000   1.0000   1.0000
     1.0000   1.0000   1.0000   1.0000   1.0000   1.0000   1.0000   1.0000
     1.0000   1.0000   1.0000   1.0000   1.0000   1.0000   1.0000   1.0000
     1.0000   1.0000   1.0000   1.0000   1.0000   1.0000   1.0000   1.0000
     1.0000   1.0000   1.0000   1.0000   1.0000   1.0000   1.0000   1.0000
     1.0000   1.0000   1.0000   1.0000   1.0000   1.0000   1.0000   1.0000
     1.0000   1.0000   1.0000   1.0000   1.0000   1.0000   1.0000   1.0000
     1.0000   1.0000   1.0000   1.0000   1.0000   1.0000   1.0000   1.0000
     1.0000   1.0000   1.0000   1.0000   1.0000   1.0000   1.0000   1.0000
     1.0000   1.0000   1.0000   1.0000   1.0000   1.0000   1.0000   1.0000
     1.0000   1.0000   1.0000   1.0000   1.0000   1.0000   1.0000   1.0000
     1.0000   1.0000   1.0000   1.0000   1.0000   1.0000   1.0000   1.0000
     1.0000   1.0000   1.0000   1.0000   1.0000   1.0000   1.0000   1.0000
     1.0000   1.0000   1.0000   1.0000   1.0000   1.0000   1.0000   1.0000
     1.0000   1.0000   1.0000   1.0000   1.0000   1.0000   1.0000   1.0000
     1.0000   1.0000   1.0000   1.0000   1.0000   1.0000   1.0000   1.0000
     1.0000   1.0000   1.0000   1.0000   1.0000   1.0000   1.0000   1.0000
     1.0000   1.0000   1.0000   1.0000   1.0000   1.0000   1.0000   1.0000
     1.0000   1.0000   1.0000   1.0000   1.0000   1.0000   1.0000   1.0000
     1.0000   1.0000   1.0000   1.0000   1.0000   1.0000   1.0000   1.0000
     1.0000   1.0000   1.0000   1.0000   1.0000   1.0000   1.0000   1.0000
     1.0000   1.0000   1.0000   1.0000   1.0000   1.0000   1.0000   1.0000
     1.0000   1.0000   1.0000   1.0000   1.0000   1.0000   1.0000   1.0000
     1.0000   1.0000   1.0000   1.0000   1.0000   1.0000   1.0000   1.0000
     1.0000   1.0000   1.0000   1.0000   1.0000   1.0000   1.0000   1.0000
     1.0000   1.0000   1.0000   1.0000   1.0000   1.0000   1.0000   1.0000
     1.0000   1.0000   1.0000   1.0000   1.0000   1.0000   1.0000   1.0000
     1.0000   1.0000   1.0000   1.0000   1.0000   1.0000   1.0000   1.0000
     1.0000   1.0000   1.0000   1.0000   1.0000   1.0000   1.0000   1.0000
     1.0000   1.0000   1.0000   1.0000   1.0000   1.0000   1.0000   1.0000
     1.0000   1.0000   1.0000   1.0000   1.0000   1.0000   1.0000   1.0000
     1.0000   1.0000   1.0000   1.0000   1.0000   1.0000   1.0000   1.0000
     1.0000   1.0000   1.0000   1.0000   1.0000   1.0000   1.0000   1.0000
     1.0000   1.0000   1.0000   1.0000   1.0000   1.0000   1.0000   1.0000
     1.0000   1.0000   1.0000   1.0000   1.0000   1.0000   1.0000   1.0000
     1.0000   1.0000   1.0000   1.0000   1.0000   1.0000   1.0000   1.0000
     1.0000   1.0000   1.0000   1.0000   1.0000   1.0000   1.0000   1.0000
     1.0000   1.0000   1.0000   1.0000   1.0000   1.0000   1.0000   1.0000
     1.0000   1.0000   1.0000   1.0000   1.0000   1.0000   1.0000   1.0000
     1.0000   1.0000   1.0000   1.0000   1.0000   1.0000   1.0000   1.0000
     1.0000   1.0000   1.0000   1.0000   1.0000   1.0000   1.0000   1.0000
     1.0000   1.0000   1.0000   1.0000   1.0000   1.0000   1.0000   1.0000
     1.0000   1.0000   1.0000   1.0000   1.0000   1.0000   1.0000   1.0000
     1.0000   1.0000   1.0000   1.0000   1.0000   1.0000   1.0000   1.0000
     0.9734   0.8728   0.8726   0.1068   0.0000   0.0000   0.0000   0.0000
     0.0000   0.0000   0.0000   0.0000   0.0000   0.0000   0.0000   0.0000
     0.0000   0.0000   0.0000   0.0000   0.0000   0.0000   0.0000   0.0000
     0.0000   0.0000   0.0000   0.0000   0.0000   0.0000   0.0000   0.0000
     0.0000   0.0000   0.0000   0.0000   0.0000   0.0000   0.0000   0.0000
     0.0000   0.0000   0.0000   0.0000   0.0000   0.0000   0.0000   0.0000
     0.0000   0.0000   0.0000   0.0000   0.0000   0.0000   0.0000   0.0000
     0.0000   0.0000   0.0000   0.0000   0.0000   0.0000   0.0000   0.0000
     0.0000   0.0000   0.0000   0.0000   0.0000   0.0000   0.0000   0.0000
     0.0000   0.0000   0.0000   0.0000   0.0000   0.0000   0.0000   0.0000
     0.0000   0.0000   0.0000   0.0000   0.0000   0.0000   0.0000   0.0000
     0.0000   0.0000   0.0000   0.0000   0.0000   0.0000   0.0000   0.0000
     0.0000   0.0000   0.0000   0.0000   0.0000   0.0000   0.0000   0.0000
     0.0000   0.0000   0.0000   0.0000   0.0000   0.0000   0.0000   0.0000
     0.0000   0.0000   0.0000   0.0000   0.0000   0.0000   0.0000   0.0000
     0.0000   0.0000   0.0000   0.0000   0.0000   0.0000   0.0000   0.0000
     0.0000   0.0000   0.0000   0.0000   0.0000   0.0000   0.0000   0.0000
     0.0000   0.0000   0.0000   0.0000   0.0000   0.0000   0.0000   0.0000
     0.0000   0.0000   0.0000   0.0000   0.0000   0.0000   0.0000   0.0000
     0.0000   0.0000   0.0000   0.0000   0.0000   0.0000   0.0000   0.0000
     0.0000   0.0000   0.0000   0.0000   0.0000   0.0000   0.0000   0.0000
     0.0000   0.0000   0.0000   0.0000   0.0000   0.0000   0.0000

          k = 0.0000 0.0000-0.4090 (154532 PWs)   bands (ev):

   -11.7953  -7.0423  -7.0423  -6.9954  -6.8827  -6.7993  -6.7943  -6.7943
    -6.7320  -6.6442  -6.6442  -6.6159  -6.6101  -6.6101  -6.5992  -6.5992
    -6.5762  -6.5756  -6.5756  -6.5674  -6.5408  -6.5370  -6.5135  -6.5135
    -6.5126  -6.4938  -6.4748  -6.4748  -6.4715  -6.4680  -6.4510  -6.4510
    -6.4496  -6.4495  -6.4470  -6.4452  -6.4452  -6.4417  -6.4266  -6.4126
    -6.4103  -6.4103  -6.3898  -6.3898  -6.3851  -6.3744  -6.3744  -6.3724
    -6.3724  -6.3707  -6.3701  -6.3701  -6.3683  -6.3640  -6.3640  -6.3586
    -6.3519  -6.3466  -6.3466  -6.3427  -6.3427  -6.3356  -6.3354  -6.3354
    -6.3297  -6.3281  -6.3145  -6.3145  -6.3124  -6.3124  -6.3040  -6.3020
    -6.3020  -6.2938  -6.2910  -6.2894  -6.2894  -6.2863  -6.2863  -6.2844
    -6.2844  -6.2751  -6.2747  -6.2664  -6.2661  -6.2588  -6.2588  -6.2558
    -6.2554  -6.2505  -6.2505  -6.2384  -6.2384  -6.2329  -6.2308  -6.2308
    -5.8166  -5.7266  -5.7266  -5.7226  -5.7198  -5.7112  -5.7112  -5.6949
    -5.6949  -5.6778  -5.6771  -5.6771  -5.6579  -5.6534  -5.6534  -5.6452
    -5.6452  -5.6287  -5.6280  -5.6168  -5.6168  -5.5995  -5.5961  -5.5925
    -5.5925  -5.5823  -5.5823  -5.5703  -5.5601  -5.5601  -5.5401  -5.5401
    -5.5357  -5.5226  -5.5220  -5.5220  -5.4883  -5.4883  -5.4629  -5.4570
    -5.4570  -5.4527  -5.3383  -5.3382  -5.3310  -5.3310  -5.3288  -5.3156
    -5.3112  -5.3112  -5.3059  -5.3040  -5.3040  -5.3015  -5.2981  -5.2981
    -5.2970  -5.2904  -5.2902  -5.2902  -5.2845  -5.2845  -5.2806  -5.2681
    -5.2681  -5.2664  -5.2664  -5.2558  -5.2555  -5.2555  -5.2515  -5.2515
    -5.2512  -5.2503  -5.2437  -5.2437  -5.2424  -5.2409  -5.2382  -5.2382
    -5.2376  -5.2376  -5.2343  -5.2343  -5.2302  -5.2280  -5.2280  -5.2273
    -5.2263  -5.2263  -5.2256  -5.2248  -5.2248  -5.2236  -5.2236  -5.2199
    -5.2179  -5.2159  -5.2159  -5.2113  -5.2113  -5.2102  -5.2102  -5.2100
    -5.2071  -5.2071  -5.2050  -5.2026  -5.2026  -5.1995  -5.1991  -5.1974
    -5.1974  -5.1962  -5.1948  -5.1948  -5.1930  -5.1914  -5.1914  -5.1904
    -5.1886  -5.1852  -5.1852  -5.1835  -5.1835  -5.1835  -5.1834  -5.1791
    -5.1791  -5.1765  -5.1758  -5.1753  -5.1753  -5.1752  -5.1724  -5.1688
    -5.1688  -5.1684  -5.1663  -5.1663  -5.1648  -5.1648  -5.1622  -5.1608
    -5.1608  -5.1596  -5.1596  -5.1593  -5.1569  -5.1560  -5.1560  -5.1510
    -5.1498  -5.1498  -5.1493  -5.1481  -5.1481  -5.1476  -5.1460  -5.1460
    -5.1450  -5.1450  -5.1437  -5.1437  -5.1415  -5.1406  -5.1406  -5.1401
    -5.1401  -5.1398  -5.1377  -5.1377  -5.1374  -5.1358  -5.1343  -5.1343
    -5.1341  -5.1298  -5.1294  -5.1281  -5.1281  -5.1245  -5.1245  -5.1229
    -5.1229  -5.1205  -5.1193  -5.1193  -5.1175  -5.1175  -5.1164  -5.1163
    -5.1163  -5.1150  -5.1139  -5.1122  -5.1122  -5.1097  -5.1086  -5.1085
    -5.1085  -5.1061  -5.1061  -5.1045  -5.1045  -5.1045  -5.1039  -5.1027
    -5.1027  -5.1019  -5.1019  -5.0986  -5.0955  -5.0955  -5.0935  -5.0935
    -5.0930  -5.0920  -5.0905  -5.0899  -5.0898  -5.0898  -5.0887  -5.0887
    -5.0873  -5.0870  -5.0870  -5.0855  -5.0855  -5.0836  -5.0826  -5.0811
    -5.0811  -5.0788  -5.0788  -5.0778  -5.0764  -5.0749  -5.0749  -5.0745
    -5.0735  -5.0735  -5.0696  -5.0696  -5.0681  -5.0681  -5.0675  -5.0674
    -5.0663  -5.0663  -5.0658  -5.0623  -5.0617  -5.0617  -5.0579  -5.0579
    -5.0567  -5.0547  -5.0545  -5.0545  -5.0544  -5.0544  -5.0542  -5.0518
    -5.0518  -5.0485  -5.0485  -5.0467  -5.0455  -5.0443  -5.0443  -5.0429
    -5.0429  -5.0393  -5.0377  -5.0377  -5.0335  -5.0322  -5.0322  -5.0311
    -5.0311  -5.0291  -5.0274  -5.0274  -5.0265  -5.0265  -5.0236  -5.0217
    -5.0217  -5.0214  -5.0203  -5.0174  -5.0174  -5.0149  -5.0149  -5.0145
    -5.0136  -5.0136  -5.0114  -5.0103  -5.0103  -5.0088  -5.0088  -5.0084
    -5.0071  -5.0059  -5.0059  -5.0053  -5.0031  -5.0013  -5.0013  -4.9990
    -4.9972  -4.9958  -4.9958  -4.9940  -4.9940  -4.9936  -4.9936  -4.9880
    -4.9880  -4.9868  -4.9846  -4.9846  -4.9836  -4.9832  -4.9832  -4.9805
[...]
     -----------------------------------------------

          total   stress  (Ry/bohr**3)                   (kbar)     P=      -22.41
  -0.00017600  -0.00000000   0.00000000          -25.89       -0.00        0.00
   0.00000000  -0.00017600   0.00000000            0.00      -25.89        0.00
   0.00000000   0.00000000  -0.00010502            0.00        0.00      -15.45

     kinetic stress (kbar)  18341.00     -0.00      0.00
                                0.00  18341.00      0.00
                                0.00      0.00  18358.82

     local   stress (kbar)   4941.02     -0.07     -0.00
                               -0.07   4940.92     -0.00
                               -0.00     -0.00   4000.46

     nonloc. stress (kbar)    104.39     -0.00      0.00
                               -0.00    104.39      0.00
                               -0.00     -0.00    119.78

     hartree stress (kbar)  19576.63     -0.00     -0.00
                               -0.00  19576.63      0.00
                               -0.00      0.00  20053.83

     exc-cor stress (kbar)   5150.62      0.00     -0.00
                                0.00   5150.62      0.00
                               -0.00      0.00   5148.70

     corecor stress (kbar) -13976.26     -0.00     -0.00
                               -0.00 -13976.26      0.00
                               -0.00      0.00 -13975.86

     ewald   stress (kbar) -34323.79      0.09      0.00
                                0.09 -34323.67     -0.00
                                0.00     -0.00 -33881.39

     hubbard stress (kbar)      0.00      0.00      0.00
                                0.00      0.00      0.00
                                0.00      0.00      0.00

     DFT-D   stress (kbar)      0.00      0.00      0.00
                                0.00      0.00      0.00
                                0.00      0.00      0.00

     XDM     stress (kbar)      0.00      0.00      0.00
                                0.00      0.00      0.00
                                0.00      0.00      0.00

     dft-nl  stress (kbar)    160.50     -0.00     -0.00
                               -0.00    160.50     -0.00
                               -0.00     -0.00    160.21

     TS-vdW  stress (kbar)      0.00      0.00      0.00
                                0.00      0.00      0.00
                                0.00      0.00      0.00

     MDB     stress (kbar)      0.00      0.00      0.00
                                0.00      0.00      0.00
                                0.00      0.00      0.00

     3D-RISM stress (kbar)      0.00      0.00      0.00
                                0.00      0.00      0.00
                                0.00      0.00      0.00

     Energy error            =      4.1E-05 Ry
     Gradient error          =      7.4E-04 Ry/Bohr

     bfgs converged in  11 scf cycles and  10 bfgs steps
     (criteria: energy <  1.0E-04 Ry, force <  1.0E-03 Ry/Bohr)

     End of BFGS Geometry Optimization

     Final energy             =  -29726.3059842471 Ry

     File ./GaN.bfgs deleted, as requested
Begin final coordinates

ATOMIC_POSITIONS (angstrom)
Ga            1.6222756606        0.9366198184        7.9294088256
Ga            1.6222756606        0.9366198184       13.1042052721
Ga            0.0721629033        3.7595913964        2.6842847560
Ga           -0.0044105675        3.7504183489        7.9387271086
Ga           -0.0027451799        3.7510316693       13.1957137636
Ga           -1.6165484272        6.5596474677        2.6458837921
Ga           -1.6229635687        6.5559436840        7.9297381257
Ga           -1.6220859040        6.5564504039       13.2214057513
Ga           -3.1971124516        9.4221424151        2.6842847560
Ga           -3.2433432792        9.3604143679        7.9387271086
Ga           -3.2419794343        9.3615499756       13.1957137636
Ga            4.8420971399        0.8675710560        2.6842847560
Ga            4.8724397831        0.9384721507        7.9387271086
Ga            4.8721382404        0.9367232226       13.1957137636
Ga            3.1723884179        3.7595913964        2.6842847560
Ga            3.2489618887        3.7504183489        7.9387271086
Ga            3.2472965011        3.7510316693       13.1957137636
Ga            1.6222756606        6.5770479129        2.6528927159
Ga            1.6222756606        6.5593155124        7.9352998792
Ga            1.6222756606        6.5617034959       13.2098134930
Ga            0.0179328444        9.3558511834        2.6528927159
Ga            0.0025761351        9.3647173837        7.9352998792
Ga            0.0046441894        9.3635233920       13.2098134930
Ga            8.1113724947        0.9300099322        2.6458837921
Ga            8.1113724947        0.9374174996        7.9297381257
Ga            8.1113724947        0.9364040598       13.2214057513
Ga            6.4806939503        3.7416289259        2.6542948659
Ga            6.4886016292        3.7461944265        7.9276860482
Ga            6.4921827817        3.7482620058       13.2155896347
Ga            4.8610997484        6.5596474677        2.6458837921
Ga            4.8675148899        6.5559436840        7.9297381257
Ga            4.8666372252        6.5564504039       13.2214057513
Ga            3.2266184768        9.3558511834        2.6528927159
Ga            3.2419751861        9.3647173837        7.9352998792
Ga            3.2399071318        9.3635233920       13.2098134930
Ga           11.3806478496        0.8675710560        2.6842847560
Ga           11.3503052064        0.9384721507        7.9387271086
Ga           11.3506067491        0.9367232226       13.1957137636
Ga            9.7420510392        3.7416289259        2.6542948659
Ga            9.7341433603        3.7461944265        7.9276860482
Ga            9.7305622078        3.7482620058       13.2155896347
Ga            8.1113724947        6.5660470158        2.6542948659
Ga            8.1113724947        6.5569160147        7.9276860482
Ga            8.1113724947        6.5527808559       13.2155896347
Ga            6.4416637728        9.4221424151        2.6842847560
Ga            6.4878946004        9.3604143679        7.9387271086
Ga            6.4865307555        9.3615499756       13.1957137636
Ga            0.0267095749        1.8578205319        5.3070780473
Ga           -0.0082111455        1.8779820192       10.5492608748
Ga            0.0362739526        1.8522985358       15.7482359938
Ga           -1.6271019493        4.6813786688        5.2885510711
Ga           -1.6263995786        4.6863248014       10.5730367195
Ga           -1.6246642140        4.6764020848       15.8611237549
Ga           -3.2484572770        7.4896484735        5.2885510711
Ga           -3.2438226152        7.4877836780       10.5730367195
Ga           -3.2515482576        7.4942479062       15.8611237549
Ga           -4.8668245904       10.3336703349        5.3070780473
Ga           -4.8668245904       10.2933473603       10.5492608748
Ga           -4.8668245904       10.3447143271       15.7482359938
Ga            3.2178349126        1.8578205319        5.3070780473
Ga            3.2527556330        1.8779820192       10.5492608748
Ga            3.2082705349        1.8522985358       15.7482359938
Ga            1.6222722437        4.6853426899        5.3118116830
Ga            1.6222722437        4.6871877251       10.5707354999
Ga            1.6222722437        4.6930108502       15.8461117499
Ga           -0.0013320064        7.4921972528        5.2947169101
Ga           -0.0017999962        7.4919270588       10.5721266332
Ga            0.0002200203        7.4930933158       15.8567294193
Ga           -1.6203372374       10.3017070605        5.3118116830
Ga           -1.6187393901       10.3007845429       10.5707354999
Ga           -1.6136964158       10.2978729804       15.8461117499
Ga            6.4900137502        1.8782842566        5.2885510711
Ga            6.4939460414        1.8752029194       10.5730367195
Ga            6.4844850344        1.8786614079       15.8611237549
Ga            4.8716464368        4.6813786688        5.2885510711
Ga            4.8709440661        4.6863248014       10.5730367195
Ga            4.8692087015        4.6764020848       15.8611237549
Ga            3.2458764939        7.4921972528        5.2947169101
Ga            3.2463444837        7.4919270588       10.5721266332
Ga            3.2443244672        7.4930933158       15.8567294193
Ga            1.6222722437       10.3043623054        5.2947169101
Ga            1.6222722437       10.3049026935       10.5721266332
Ga            1.6222722437       10.3025701794       15.8567294193
Ga            9.7327244055        1.8782842566        5.2885510711
Ga            9.7287921143        1.8752029194       10.5730367195
Ga            9.7382531213        1.8786614079       15.8611237549
Ga            8.1113690779        4.6831037996        5.2918472155
Ga            8.1113690779        4.6831037996       10.5671480082
Ga            8.1113690779        4.6831037996       15.8622512942
Ga            6.4930017644        7.4896484735        5.2885510711
Ga            6.4883671026        7.4877836780       10.5730367195
Ga            6.4960927450        7.4942479062       15.8611237549
Ga            4.8648817249       10.3017070605        5.3118116830
Ga            4.8632838776       10.3007845429       10.5707354999
Ga            4.8582409033       10.2978729804       15.8461117499
N             1.6222756606        0.9366198184        4.7401640683
N             1.6222756606        0.9366198184        9.9270568463
N             1.6222756606        0.9366198184       15.1031404517
N             0.0056185745        3.7315276103        4.6369561146
N            -0.0016200042        3.7546074379        9.9265029437
N             0.0042983905        3.7353261257       15.2210254794
N            -1.6239514379        6.5553733375        4.6254966071
N            -1.6231496812        6.5558362319        9.9207394888
N            -1.6258911034        6.5542534711       15.2237894056
N            -3.2546885677        9.3785452289        4.6369561146
N            -3.2383201400        9.3607365221        9.9265029437
N            -3.2520590488        9.3755026583       15.2210254794
N             4.8510653527        0.9392320283        4.6369561146
N             4.8746723589        0.9339609076        9.9265029437
N             4.8550150555        0.9384760835       15.2210254794
N             3.2389327467        3.7315276103        4.6369561146
N             3.2461713254        3.7546074379        9.9265029437
N             3.2402529307        3.7353261257       15.2210254794
N             1.6222756606        6.5527267002        4.6342832126
N             1.6222756606        6.5581183602        9.9245218049
N             1.6222756606        6.5564743115       15.2073730269
N            -0.0031299437        9.3680117898        4.6342832126
N             0.0015393708        9.3653159598        9.9245218049
N             0.0001155829        9.3661379841       15.2073730269
N             8.1113724947        0.9385581927        4.6254966071
N             8.1113724947        0.9376324038        9.9207394888
N             8.1113724947        0.9407979255       15.2237894056
N             6.4894124847        3.7466625741        4.6325910702
N             6.4883465366        3.7460471486        9.9200387152
N             6.4884145582        3.7460864209       15.2140301113
N             4.8685027591        6.5553733375        4.6254966071
N             4.8677010024        6.5558362319        9.9207394888
N             4.8704424246        6.5542534711       15.2237894056
N             3.2476812649        9.3680117898        4.6342832126
N             3.2430119504        9.3653159598        9.9245218049
N             3.2444357383        9.3661379841       15.2073730269
N            11.3716796368        0.9392320283        4.6369561146
N            11.3480726305        0.9339609076        9.9265029437
N            11.3677299340        0.9384760835       15.2210254794
N             9.7333325048        3.7466625741        4.6325910702
N             9.7343984529        3.7460471486        9.9200387152
N             9.7343304313        3.7460864209       15.2140301113
N             8.1113724947        6.5559797194        4.6325910702
N             8.1113724947        6.5572105703        9.9200387152
N             8.1113724947        6.5571320257       15.2140301113
N             6.4992398889        9.3785452289        4.6369561146
N             6.4828714612        9.3607365221        9.9265029437
N             6.4966103700        9.3755026583       15.2210254794
N             0.4009543375        1.6417502175        2.0049032482
N            -0.0087392738        1.8782869342        7.2997263149
N            -0.0111673249        1.8796887701       12.5499290496
N            -1.5836161146        4.6358531728        1.9939930413
N            -1.6212117874        4.6843208066        7.2713916015
N            -1.6244708973        4.6852152203       12.5722076915
N            -3.2661405957        7.5500710590        1.9939930413
N            -3.2429642300        7.4932784344        7.2713916015
N            -3.2438191999        7.4900087556       12.5722076915
N            -4.8668245904       10.7658109638        2.0049032482
N            -4.8668245904       10.2927375303        7.2997263149
N            -4.8668245904       10.2899338584       12.5499290496
N             2.8435901500        1.6417502175        2.0049032482
N             3.2532837613        1.8782869342        7.2997263149
N             3.2557118124        1.8796887701       12.5499290496
N             1.6222722437        4.6998197891        1.9752673424
N             1.6222722437        4.6830736923        7.2846049251
N             1.6222722437        4.6841476187       12.5717876515
N            -0.0008952042        7.4924494407        1.9857211892
N            -0.0003141502        7.4927849124        7.2773084259
N            -0.0024046081        7.4915779860       12.5683245982
N            -1.6077997018       10.2944685110        1.9752673424
N            -1.6223022470       10.3028415594        7.2846049251
N            -1.6213721994       10.3023045961       12.5717876515
N             6.4288445968        1.8633871670        1.9939930413
N             6.4896166353        1.8717121578        7.2713916015
N             6.4920207753        1.8740874229       12.5722076915
N             4.8281606021        4.6358531728        1.9939930413
N             4.8657562749        4.6843208066        7.2713916015
N             4.8690153848        4.6852152203       12.5722076915
N             3.2454396917        7.4924494407        1.9857211892
N             3.2448586377        7.4927849124        7.2773084259
N             3.2469490956        7.4915779860       12.5683245982
N             1.6222722437       10.3038579297        1.9857211892
N             1.6222722437       10.3031869863        7.2773084259
N             1.6222722437       10.3056008392       12.5683245982
N             9.7938935589        1.8633871670        1.9939930413
N             9.7331215204        1.8717121578        7.2713916015
N             9.7307173804        1.8740874229       12.5722076915
N             8.1113690779        4.6831037996        1.9926826238
N             8.1113690779        4.6831037996        7.2755952240
N             8.1113690779        4.6831037996       12.5651283760
N             6.5106850831        7.5500710590        1.9939930413
N             6.4875087174        7.4932784344        7.2713916015
N             6.4883636873        7.4900087556       12.5722076915
N             4.8523441892       10.2944685110        1.9752673424
N             4.8668467345       10.3028415594        7.2846049251
N             4.8659166869       10.3023045961       12.5717876515
N             1.6222756606        0.9366198184        2.2345403558
End final coordinates



     Writing all to output data dir ./GaN.save/
 
     init_run     :     20.80s CPU     34.57s WALL (       1 calls)
     electrons    :  42613.97s CPU  43147.46s WALL (      11 calls)
     update_pot   :     15.58s CPU     15.78s WALL (      10 calls)
     forces       :    112.97s CPU    115.44s WALL (      11 calls)
     stress       :   1887.47s CPU   1905.10s WALL (      11 calls)

     Called by init_run:
     wfcinit      :     16.88s CPU     30.40s WALL (       1 calls)
     wfcinit:atom :      0.08s CPU      0.08s WALL (       1 calls)
     wfcinit:wfcr :     16.33s CPU     29.67s WALL (       1 calls)
     potinit      :      1.08s CPU      1.24s WALL (       1 calls)
     hinit0       :      0.73s CPU      0.77s WALL (       1 calls)

     Called by electrons:
     c_bands      :  41870.10s CPU  42389.23s WALL (     158 calls)
     sum_band     :    565.55s CPU    572.39s WALL (     158 calls)
     v_of_rho     :     91.01s CPU     92.68s WALL (     168 calls)
     v_h          :      0.93s CPU      0.95s WALL (     168 calls)
     v_xc         :    101.55s CPU    103.37s WALL (     190 calls)
     newd         :     20.16s CPU     20.40s WALL (     168 calls)
     PAW_pot      :     53.73s CPU     54.27s WALL (     178 calls)
     mix_rho      :      5.36s CPU      5.61s WALL (     158 calls)
     vdW_kernel   :      0.17s CPU      0.17s WALL (       1 calls)

     Called by c_bands:
     init_us_2    :     20.03s CPU     20.48s WALL (     327 calls)
     init_us_2:cp :     20.03s CPU     20.47s WALL (     327 calls)
     cegterg      :  36585.41s CPU  36974.64s WALL (     161 calls)

     Called by sum_band:
     sum_band:wei :      1.08s CPU      1.10s WALL (     158 calls)
     sum_band:loo :    506.41s CPU    511.10s WALL (     158 calls)
     sum_band:buf :      0.00s CPU      0.00s WALL (     158 calls)
     sum_band:ini :     16.58s CPU     16.86s WALL (     158 calls)
     sum_band:cal :    323.99s CPU    326.26s WALL (     168 calls)
     sum_band:bec :      4.19s CPU      4.25s WALL (     168 calls)
     addusdens    :     18.11s CPU     18.90s WALL (     158 calls)
     addusd:skk   :      2.27s CPU      2.48s WALL (     316 calls)
     addusd:dgemm :      7.83s CPU      8.32s WALL (     316 calls)
     addusd:qvan2 :      2.52s CPU      2.56s WALL (     316 calls)

     Called by *egterg:
     cdiaghg      :  30055.63s CPU  30246.05s WALL (    2285 calls)
     cegterg:over :   1314.20s CPU   1356.68s WALL (    2136 calls)
     cegterg:upda :    810.38s CPU    831.67s WALL (    2136 calls)
     cegterg:last :    370.37s CPU    372.93s WALL (     167 calls)
     h_psi        :   2788.88s CPU   2838.15s WALL (    2298 calls)
     s_psi        :    873.23s CPU    890.37s WALL (    2298 calls)
     g_psi        :      2.51s CPU      2.53s WALL (    2136 calls)

     Called by h_psi:
     h_psi:calbec :    940.85s CPU    947.75s WALL (    2298 calls)
     vloc_psi     :    960.08s CPU    970.91s WALL (    2298 calls)
     add_vuspsi   :    872.63s CPU    891.83s WALL (    2298 calls)

     General routines
     calbec       :   1369.46s CPU   1379.43s WALL (    2521 calls)
     fft          :     49.75s CPU     50.84s WALL (   12432 calls)
     ffts         :      1.40s CPU      1.41s WALL (     326 calls)
     fftw         :   1053.61s CPU   1065.56s WALL ( 1094704 calls)
     interpolate  :      1.29s CPU      1.31s WALL (     168 calls)
 
     Parallel routines

     PAW routines
     PAW_pot      :     53.73s CPU     54.27s WALL (     178 calls)
     PAW_symme    :      0.86s CPU      0.88s WALL (     335 calls)
 
     PWSCF        :     12h24m CPU     12h34m WALL

 
   This run was terminated on:   4:46:13   5Mar2024            

=------------------------------------------------------------------------------=
   JOB DONE.
=------------------------------------------------------------------------------=
