
     Program PWSCF v.7.1 starts on 15Mar2024 at 16:30:30 

     This program is part of the open-source Quantum ESPRESSO suite
     for quantum simulation of materials; please cite
         "P. Giannozzi et al., J. Phys.:Condens. Matter 21 395502 (2009);
         "P. Giannozzi et al., J. Phys.:Condens. Matter 29 465901 (2017);
         "P. Giannozzi et al., J. Chem. Phys. 152 154105 (2020);
          URL http://www.quantum-espresso.org", 
     in publications or presentations arising from this work. More details at
     http://www.quantum-espresso.org/quote

     Parallel version (MPI & OpenMP), running on     256 processor cores
     Number of MPI processes:               256
     Threads/MPI process:                     1

     MPI processes distributed on     2 nodes
     2035239 MiB available memory on the printing compute node when the environment starts
 
     Reading input from espresso.pwi
Warning: card &CELL ignored
Warning: card    CELL_DYNAMICS    = 'BFGS' ignored
Warning: card / ignored

     Current dimensions of program PWSCF are:
     Max number of different atomic species (ntypx) = 10
     Max number of k-points (npk) =  40000
     Max angular momentum in pseudopotentials (lmaxx) =  4
     file Pb.pbe-dn-kjpaw_psl.1.0.0.UPF: wavefunction(s)  6S 6P 5D renormalized
     file I.pbe-dn-kjpaw_psl.1.0.0.UPF: wavefunction(s)  5S 5P renormalized

     **************************************************************************
     Initializing libbeef V0.1.2 with the BEEF-vdW functional.
     Citation: Wellendorff et al., PRB 85, 235149 (2012).
     **************************************************************************


     IMPORTANT: XC functional enforced from input :
     Exchange-correlation= BEEF-VDW
                           (   1   4  43  14   2   0   0)
     Any further DFT definition will be discarded
     Please, verify this is what you really want

 
     R & G space division:  proc/nbgrp/npool/nimage =     256
     WARNING: too many processors for an effective parallelization!
     wavefunctions fft division:  task group distribution
                                  #TG    x Z-proc =       8     32
     Subspace diagonalization in iterative solution of the eigenvalue problem:
     a serial algorithm will be used

 
     Parallelization info
     --------------------
     sticks:   dense  smooth     PW     G-vecs:    dense   smooth      PW
     Min         119      95     23                19837    14191    1763
     Max         120      96     24                19846    14206    1780
     Sum       30589   24439   6121              5079105  3634441  454335
 
     Using Pencil Decomposition
 


     bravais-lattice index     =            4
     lattice parameter (alat)  =      35.6120  a.u.
     unit-cell volume          =   45937.3577 (a.u.)^3
     number of atoms/cell      =          144
     number of atomic types    =            2
     number of electrons       =      2299.00
     number of Kohn-Sham states=         1380
     kinetic-energy cutoff     =      70.0000  Ry
     charge density cutoff     =     350.0000  Ry
     scf convergence threshold =      1.0E-07
     mixing beta               =       0.7000
     number of iterations used =            8  plain     mixing
     energy convergence thresh.=      1.0E-04
     force convergence thresh. =      1.0E-03
     Exchange-correlation= BEEF-VDW
                           (   1   4  43  14   2   0   0)
     nstep                     =           50


     celldm(1)=  35.612033  celldm(2)=   0.000000  celldm(3)=   1.174479
     celldm(4)=   0.000000  celldm(5)=   0.000000  celldm(6)=   0.000000

     crystal axes: (cart. coord. in units of alat)
               a(1) = (   1.000000   0.000000   0.000000 )  
               a(2) = (  -0.500000   0.866025   0.000000 )  
               a(3) = (   0.000000   0.000000   1.174479 )  

     reciprocal axes: (cart. coord. in units 2 pi/alat)
               b(1) = (  1.000000  0.577350 -0.000000 )  
               b(2) = (  0.000000  1.154701  0.000000 )  
               b(3) = (  0.000000 -0.000000  0.851442 )  


     PseudoPot. # 1 for Pb read from file:
     /trace/group/acmegroup/atimmins/packages/espresso/pseudo/psl_1.0.0/pslibrary.1.0.0/pbe/PSEUDOPOTENTIALS/Pb.pbe-dn-kjpaw_psl.1.0.0.UPF
     MD5 check sum: 39ab5b8a6bbd56b7735ad9f188aac93a
     Pseudo is Projector augmented-wave + core cor, Zval = 14.0
     Generated using 'atomic' code by A. Dal Corso  v.7.1
     Shape of augmentation charge: PSQ
     Using radial grid of 1281 points,  6 beta functions with: 
                l(1) =   0
                l(2) =   0
                l(3) =   1
                l(4) =   1
                l(5) =   2
                l(6) =   2
     Q(r) pseudized with 0 coefficients 


     PseudoPot. # 2 for I  read from file:
     /trace/group/acmegroup/atimmins/packages/espresso/pseudo/psl_1.0.0/pslibrary.1.0.0/pbe/PSEUDOPOTENTIALS/I.pbe-dn-kjpaw_psl.1.0.0.UPF
     MD5 check sum: bfa8781bc1224d19af3f3980e3fab11e
     Pseudo is Projector augmented-wave + core cor, Zval = 17.0
     Generated using 'atomic' code by A. Dal Corso  v.7.1
     Shape of augmentation charge: PSQ
     Using radial grid of 1247 points,  6 beta functions with: 
                l(1) =   0
                l(2) =   0
                l(3) =   1
                l(4) =   1
                l(5) =   2
                l(6) =   2
     Q(r) pseudized with 0 coefficients 


     atomic species   valence    mass     pseudopotential
        Pb            14.00   207.20000     Pb( 1.00)
        I             17.00   126.90447     I ( 1.00)

     No symmetry found


                                    s                        frac. trans.

      isym =  1     identity                                     

 cryst.   s( 1) = (     1          0          0      )
                  (     0          1          0      )
                  (     0          0          1      )

 cart.    s( 1) = (  1.0000000  0.0000000  0.0000000 )
                  (  0.0000000  1.0000000  0.0000000 )
                  (  0.0000000  0.0000000  1.0000000 )


     point group C_1 (1)    
     there are  1 classes
     the character table:

       E    
A      1.00

     the symmetry operations in each class and the name of the first element:

     E        1
          identity                                               

   Cartesian axes

     site n.     atom                  positions (alat units)
         1           Pb  tau(   1) = (   0.1250136   0.2164827   1.1744753  )
         2           Pb  tau(   2) = (   0.1250034   0.2164918   0.3914896  )
         3           Pb  tau(   3) = (   0.1250085   0.2164873   0.7829825  )
         4           Pb  tau(   4) = (   0.0000128   0.4329881   1.1744712  )
         5           Pb  tau(   5) = (   0.0000026   0.4329971   0.3914855  )
         6           Pb  tau(   6) = (   0.0000077   0.4329926   0.7829784  )
         7           Pb  tau(   7) = (  -0.1249881   0.6494934   1.1744671  )
         8           Pb  tau(   8) = (  -0.1249983   0.6495025   0.3914814  )
         9           Pb  tau(   9) = (  -0.1249932   0.6494980   0.7829742  )
        10           Pb  tau(  10) = (  -0.2499889   0.8659988   1.1744630  )
        11           Pb  tau(  11) = (  -0.2499991   0.8660078   0.3914773  )
        12           Pb  tau(  12) = (  -0.2499940   0.8660033   0.7829701  )
        13           Pb  tau(  13) = (   0.3750136   0.2164818   1.1744786  )
        14           Pb  tau(  14) = (   0.3750034   0.2164908   0.3914929  )
        15           Pb  tau(  15) = (   0.3750085   0.2164863   0.7829857  )
        16           Pb  tau(  16) = (   0.2500128   0.4329871   1.1744745  )
        17           Pb  tau(  17) = (   0.2500026   0.4329962   0.3914888  )
        18           Pb  tau(  18) = (   0.2500077   0.4329916   0.7829816  )
        19           Pb  tau(  19) = (   0.1250119   0.6494925   1.1744703  )
        20           Pb  tau(  20) = (   0.1250017   0.6495015   0.3914847  )
        21           Pb  tau(  21) = (   0.1250068   0.6494970   0.7829775  )
        22           Pb  tau(  22) = (   0.0000111   0.8659978   1.1744662  )
        23           Pb  tau(  23) = (   0.0000009   0.8660069   0.3914805  )
        24           Pb  tau(  24) = (   0.0000060   0.8660024   0.7829734  )
        25           Pb  tau(  25) = (   0.6250136   0.2164808   1.1744818  )
        26           Pb  tau(  26) = (   0.6250034   0.2164898   0.3914962  )
        27           Pb  tau(  27) = (   0.6250085   0.2164853   0.7829890  )
        28           Pb  tau(  28) = (   0.5000128   0.4329862   1.1744777  )
        29           Pb  tau(  29) = (   0.5000026   0.4329952   0.3914920  )
        30           Pb  tau(  30) = (   0.5000077   0.4329907   0.7829849  )
        31           Pb  tau(  31) = (   0.3750119   0.6494915   1.1744736  )
        32           Pb  tau(  32) = (   0.3750017   0.6495006   0.3914879  )
        33           Pb  tau(  33) = (   0.3750068   0.6494960   0.7829808  )
        34           Pb  tau(  34) = (   0.2500111   0.8659969   1.1744695  )
        35           Pb  tau(  35) = (   0.2500009   0.8660059   0.3914838  )
        36           Pb  tau(  36) = (   0.2500060   0.8660014   0.7829766  )
        37           Pb  tau(  37) = (   0.8750136   0.2164798   1.1744851  )
        38           Pb  tau(  38) = (   0.8750034   0.2164889   0.3914994  )
        39           Pb  tau(  39) = (   0.8750085   0.2164844   0.7829923  )
        40           Pb  tau(  40) = (   0.7500128   0.4329852   1.1744810  )
        41           Pb  tau(  41) = (   0.7500026   0.4329942   0.3914953  )
        42           Pb  tau(  42) = (   0.7500077   0.4329897   0.7829881  )
        43           Pb  tau(  43) = (   0.6250119   0.6494906   1.1744769  )
        44           Pb  tau(  44) = (   0.6250017   0.6494996   0.3914912  )
        45           Pb  tau(  45) = (   0.6250068   0.6494951   0.7829840  )
        46           Pb  tau(  46) = (   0.5000111   0.8659959   1.1744727  )
        47           Pb  tau(  47) = (   0.5000009   0.8660050   0.3914870  )
        48           Pb  tau(  48) = (   0.5000060   0.8660004   0.7829799  )
        49           I   tau(  49) = (   0.1250105   0.0721505   0.6824253  )
        50           I   tau(  50) = (   0.1250156   0.0721459   1.0739182  )
        51           I   tau(  51) = (   0.0000045   0.2886603   0.2909283  )
        52           I   tau(  52) = (   0.0000096   0.2886558   0.6824212  )
        53           I   tau(  53) = (   0.0000147   0.2886513   1.0739140  )
        54           I   tau(  54) = (  -0.1249963   0.5051657   0.2909242  )
        55           I   tau(  55) = (  -0.1249912   0.5051612   0.6824171  )
        56           I   tau(  56) = (  -0.1249861   0.5051566   1.0739099  )
        57           I   tau(  57) = (  -0.2499971   0.7216710   0.2909201  )
        58           I   tau(  58) = (  -0.2499920   0.7216665   0.6824129  )
        59           I   tau(  59) = (  -0.2499869   0.7216620   1.0739058  )
        60           I   tau(  60) = (   0.3750054   0.0721540   0.2909357  )
        61           I   tau(  61) = (   0.3750105   0.0721495   0.6824286  )
        62           I   tau(  62) = (   0.3750156   0.0721450   1.0739214  )
        63           I   tau(  63) = (   0.2500045   0.2886594   0.2909316  )
        64           I   tau(  64) = (   0.2500096   0.2886548   0.6824244  )
        65           I   tau(  65) = (   0.2500147   0.2886503   1.0739173  )
        66           I   tau(  66) = (   0.1250037   0.5051647   0.2909275  )
        67           I   tau(  67) = (   0.1250088   0.5051602   0.6824203  )
        68           I   tau(  68) = (   0.1250139   0.5051557   1.0739132  )
        69           I   tau(  69) = (   0.0000029   0.7216701   0.2909233  )
        70           I   tau(  70) = (   0.0000080   0.7216656   0.6824162  )
        71           I   tau(  71) = (   0.0000131   0.7216610   1.0739090  )
        72           I   tau(  72) = (   0.6250054   0.0721530   0.2909390  )
        73           I   tau(  73) = (   0.6250105   0.0721485   0.6824318  )
        74           I   tau(  74) = (   0.6250156   0.0721440   1.0739247  )
        75           I   tau(  75) = (   0.5000045   0.2886584   0.2909348  )
        76           I   tau(  76) = (   0.5000096   0.2886539   0.6824277  )
        77           I   tau(  77) = (   0.5000147   0.2886494   1.0739205  )
        78           I   tau(  78) = (   0.3750037   0.5051638   0.2909307  )
        79           I   tau(  79) = (   0.3750088   0.5051592   0.6824236  )
        80           I   tau(  80) = (   0.3750139   0.5051547   1.0739164  )
        81           I   tau(  81) = (   0.2500029   0.7216691   0.2909266  )
        82           I   tau(  82) = (   0.2500080   0.7216646   0.6824194  )
        83           I   tau(  83) = (   0.2500131   0.7216601   1.0739123  )
        84           I   tau(  84) = (   0.8750054   0.0721521   0.2909422  )
        85           I   tau(  85) = (   0.8750105   0.0721476   0.6824351  )
        86           I   tau(  86) = (   0.8750156   0.0721430   1.0739279  )
        87           I   tau(  87) = (   0.7500045   0.2886574   0.2909381  )
        88           I   tau(  88) = (   0.7500096   0.2886529   0.6824310  )
        89           I   tau(  89) = (   0.7500147   0.2886484   1.0739238  )
        90           I   tau(  90) = (   0.6250037   0.5051628   0.2909340  )
        91           I   tau(  91) = (   0.6250088   0.5051583   0.6824268  )
        92           I   tau(  92) = (   0.6250139   0.5051538   1.0739197  )
        93           I   tau(  93) = (   0.5000029   0.7216681   0.2909299  )
        94           I   tau(  94) = (   0.5000080   0.7216636   0.6824227  )
        95           I   tau(  95) = (   0.5000131   0.7216591   1.0739156  )
        96           I   tau(  96) = (  -0.0000017   0.1443297   0.1005555  )
        97           I   tau(  97) = (   0.0000034   0.1443252   0.4920483  )
        98           I   tau(  98) = (   0.0000085   0.1443207   0.8835412  )
        99           I   tau(  99) = (  -0.1250025   0.3608351   0.1005514  )
       100           I   tau( 100) = (  -0.1249974   0.3608306   0.4920442  )
       101           I   tau( 101) = (  -0.1249923   0.3608260   0.8835371  )
       102           I   tau( 102) = (  -0.2500034   0.5773404   0.1005472  )
       103           I   tau( 103) = (  -0.2499983   0.5773359   0.4920401  )
       104           I   tau( 104) = (  -0.2499932   0.5773314   0.8835329  )
       105           I   tau( 105) = (  -0.3750042   0.7938458   0.1005431  )
       106           I   tau( 106) = (  -0.3749991   0.7938413   0.4920360  )
       107           I   tau( 107) = (  -0.3749940   0.7938368   0.8835288  )
       108           I   tau( 108) = (   0.2499983   0.1443288   0.1005587  )
       109           I   tau( 109) = (   0.2500034   0.1443242   0.4920516  )
       110           I   tau( 110) = (   0.2500085   0.1443197   0.8835444  )
       111           I   tau( 111) = (   0.1249975   0.3608341   0.1005546  )
       112           I   tau( 112) = (   0.1250026   0.3608296   0.4920475  )
       113           I   tau( 113) = (   0.1250077   0.3608251   0.8835403  )
       114           I   tau( 114) = (  -0.0000034   0.5773395   0.1005505  )
       115           I   tau( 115) = (   0.0000017   0.5773350   0.4920433  )
       116           I   tau( 116) = (   0.0000068   0.5773304   0.8835362  )
       117           I   tau( 117) = (  -0.1250042   0.7938448   0.1005464  )
       118           I   tau( 118) = (  -0.1249991   0.7938403   0.4920392  )
       119           I   tau( 119) = (  -0.1249940   0.7938358   0.8835321  )
       120           I   tau( 120) = (   0.4999983   0.1443278   0.1005620  )
       121           I   tau( 121) = (   0.5000034   0.1443233   0.4920548  )
       122           I   tau( 122) = (   0.5000085   0.1443188   0.8835477  )
       123           I   tau( 123) = (   0.3749975   0.3608332   0.1005579  )
       124           I   tau( 124) = (   0.3750026   0.3608286   0.4920507  )
       125           I   tau( 125) = (   0.3750077   0.3608241   0.8835436  )
       126           I   tau( 126) = (   0.2499966   0.5773385   0.1005537  )
       127           I   tau( 127) = (   0.2500017   0.5773340   0.4920466  )
       128           I   tau( 128) = (   0.2500068   0.5773295   0.8835394  )
       129           I   tau( 129) = (   0.1249958   0.7938439   0.1005496  )
       130           I   tau( 130) = (   0.1250009   0.7938394   0.4920425  )
       131           I   tau( 131) = (   0.1250060   0.7938348   0.8835353  )
       132           I   tau( 132) = (   0.7499983   0.1443268   0.1005653  )
       133           I   tau( 133) = (   0.7500034   0.1443223   0.4920581  )
       134           I   tau( 134) = (   0.7500085   0.1443178   0.8835509  )
       135           I   tau( 135) = (   0.6249975   0.3608322   0.1005611  )
       136           I   tau( 136) = (   0.6250026   0.3608277   0.4920540  )
       137           I   tau( 137) = (   0.6250077   0.3608232   0.8835468  )
       138           I   tau( 138) = (   0.4999966   0.5773376   0.1005570  )
       139           I   tau( 139) = (   0.5000017   0.5773330   0.4920499  )
       140           I   tau( 140) = (   0.5000068   0.5773285   0.8835427  )
       141           I   tau( 141) = (   0.3749958   0.7938429   0.1005529  )
       142           I   tau( 142) = (   0.3750009   0.7938384   0.4920457  )
       143           I   tau( 143) = (   0.3750060   0.7938339   0.8835386  )
       144           Pb  tau( 144) = (   0.1250054   0.0721550   0.2909325  )

   Crystallographic axes

     site n.     atom                  positions (cryst. coord.)
         1           Pb  tau(   1) = (  0.2500000  0.2499727  0.9999973  )
         2           Pb  tau(   2) = (  0.2499950  0.2499832  0.3333306  )
         3           Pb  tau(   3) = (  0.2499975  0.2499780  0.6666639  )
         4           Pb  tau(   4) = (  0.2499986  0.4999716  0.9999938  )
         5           Pb  tau(   5) = (  0.2499936  0.4999820  0.3333271  )
         6           Pb  tau(   6) = (  0.2499961  0.4999768  0.6666604  )
         7           Pb  tau(   7) = (  0.2499972  0.7499704  0.9999902  )
         8           Pb  tau(   8) = (  0.2499922  0.7499809  0.3333236  )
         9           Pb  tau(   9) = (  0.2499947  0.7499757  0.6666569  )
        10           Pb  tau(  10) = (  0.2499957  0.9999693  0.9999867  )
        11           Pb  tau(  11) = (  0.2499908  0.9999797  0.3333201  )
        12           Pb  tau(  12) = (  0.2499932  0.9999745  0.6666534  )
        13           Pb  tau(  13) = (  0.4999994  0.2499716  1.0000000  )
        14           Pb  tau(  14) = (  0.4999944  0.2499821  0.3333334  )
        15           Pb  tau(  15) = (  0.4999969  0.2499768  0.6666667  )
        16           Pb  tau(  16) = (  0.4999980  0.4999705  0.9999965  )
        17           Pb  tau(  17) = (  0.4999930  0.4999809  0.3333299  )
        18           Pb  tau(  18) = (  0.4999955  0.4999757  0.6666632  )
        19           Pb  tau(  19) = (  0.4999966  0.7499693  0.9999930  )
        20           Pb  tau(  20) = (  0.4999916  0.7499798  0.3333264  )
        21           Pb  tau(  21) = (  0.4999941  0.7499745  0.6666597  )
        22           Pb  tau(  22) = (  0.4999952  0.9999682  0.9999895  )
        23           Pb  tau(  23) = (  0.4999902  0.9999786  0.3333228  )
        24           Pb  tau(  24) = (  0.4999927  0.9999734  0.6666562  )
        25           Pb  tau(  25) = (  0.7499989  0.2499705  1.0000028  )
        26           Pb  tau(  26) = (  0.7499939  0.2499809  0.3333362  )
        27           Pb  tau(  27) = (  0.7499964  0.2499757  0.6666695  )
        28           Pb  tau(  28) = (  0.7499975  0.4999694  0.9999993  )
        29           Pb  tau(  29) = (  0.7499925  0.4999798  0.3333326  )
        30           Pb  tau(  30) = (  0.7499950  0.4999746  0.6666660  )
        31           Pb  tau(  31) = (  0.7499960  0.7499682  0.9999958  )
        32           Pb  tau(  32) = (  0.7499910  0.7499786  0.3333291  )
        33           Pb  tau(  33) = (  0.7499935  0.7499734  0.6666625  )
        34           Pb  tau(  34) = (  0.7499946  0.9999671  0.9999923  )
        35           Pb  tau(  35) = (  0.7499896  0.9999775  0.3333256  )
        36           Pb  tau(  36) = (  0.7499921  0.9999723  0.6666590  )
        37           Pb  tau(  37) = (  0.9999983  0.2499694  1.0000056  )
        38           Pb  tau(  38) = (  0.9999933  0.2499798  0.3333389  )
        39           Pb  tau(  39) = (  0.9999958  0.2499746  0.6666723  )
        40           Pb  tau(  40) = (  0.9999969  0.4999682  1.0000021  )
        41           Pb  tau(  41) = (  0.9999919  0.4999787  0.3333354  )
        42           Pb  tau(  42) = (  0.9999944  0.4999735  0.6666687  )
        43           Pb  tau(  43) = (  0.9999955  0.7499671  0.9999986  )
        44           Pb  tau(  44) = (  0.9999905  0.7499775  0.3333319  )
        45           Pb  tau(  45) = (  0.9999930  0.7499723  0.6666652  )
        46           Pb  tau(  46) = (  0.9999941  0.9999659  0.9999951  )
        47           Pb  tau(  47) = (  0.9999891  0.9999764  0.3333284  )
        48           Pb  tau(  48) = (  0.9999916  0.9999712  0.6666617  )
        49           I   tau(  49) = (  0.1666666  0.0833122  0.5810454  )
        50           I   tau(  50) = (  0.1666691  0.0833070  0.9143787  )
        51           I   tau(  51) = (  0.1666626  0.3333162  0.2477085  )
        52           I   tau(  52) = (  0.1666651  0.3333110  0.5810418  )
        53           I   tau(  53) = (  0.1666676  0.3333058  0.9143752  )
        54           I   tau(  54) = (  0.1666612  0.5833151  0.2477050  )
        55           I   tau(  55) = (  0.1666637  0.5833099  0.5810383  )
        56           I   tau(  56) = (  0.1666662  0.5833047  0.9143717  )
        57           I   tau(  57) = (  0.1666598  0.8333139  0.2477015  )
        58           I   tau(  58) = (  0.1666623  0.8333087  0.5810348  )
        59           I   tau(  59) = (  0.1666648  0.8333035  0.9143682  )
        60           I   tau(  60) = (  0.4166635  0.0833163  0.2477148  )
        61           I   tau(  61) = (  0.4166660  0.0833111  0.5810481  )
        62           I   tau(  62) = (  0.4166685  0.0833058  0.9143815  )
        63           I   tau(  63) = (  0.4166621  0.3333151  0.2477113  )
        64           I   tau(  64) = (  0.4166646  0.3333099  0.5810446  )
        65           I   tau(  65) = (  0.4166671  0.3333047  0.9143780  )
        66           I   tau(  66) = (  0.4166607  0.5833140  0.2477078  )
        67           I   tau(  67) = (  0.4166632  0.5833088  0.5810411  )
        68           I   tau(  68) = (  0.4166657  0.5833035  0.9143744  )
        69           I   tau(  69) = (  0.4166593  0.8333128  0.2477043  )
        70           I   tau(  70) = (  0.4166618  0.8333076  0.5810376  )
        71           I   tau(  71) = (  0.4166643  0.8333024  0.9143709  )
        72           I   tau(  72) = (  0.6666629  0.0833152  0.2477176  )
        73           I   tau(  73) = (  0.6666654  0.0833099  0.5810509  )
        74           I   tau(  74) = (  0.6666679  0.0833047  0.9143842  )
        75           I   tau(  75) = (  0.6666615  0.3333140  0.2477141  )
        76           I   tau(  76) = (  0.6666640  0.3333088  0.5810474  )
        77           I   tau(  77) = (  0.6666665  0.3333036  0.9143807  )
        78           I   tau(  78) = (  0.6666601  0.5833129  0.2477106  )
        79           I   tau(  79) = (  0.6666626  0.5833076  0.5810439  )
        80           I   tau(  80) = (  0.6666651  0.5833024  0.9143772  )
        81           I   tau(  81) = (  0.6666587  0.8333117  0.2477070  )
        82           I   tau(  82) = (  0.6666612  0.8333065  0.5810404  )
        83           I   tau(  83) = (  0.6666637  0.8333013  0.9143737  )
        84           I   tau(  84) = (  0.9166624  0.0833141  0.2477203  )
        85           I   tau(  85) = (  0.9166649  0.0833088  0.5810537  )
        86           I   tau(  86) = (  0.9166674  0.0833036  0.9143870  )
        87           I   tau(  87) = (  0.9166610  0.3333129  0.2477168  )
        88           I   tau(  88) = (  0.9166635  0.3333077  0.5810502  )
        89           I   tau(  89) = (  0.9166660  0.3333025  0.9143835  )
        90           I   tau(  90) = (  0.9166596  0.5833118  0.2477133  )
        91           I   tau(  91) = (  0.9166621  0.5833065  0.5810467  )
        92           I   tau(  92) = (  0.9166646  0.5833013  0.9143800  )
        93           I   tau(  93) = (  0.9166582  0.8333106  0.2477098  )
        94           I   tau(  94) = (  0.9166607  0.8333054  0.5810431  )
        95           I   tau(  95) = (  0.9166632  0.8333002  0.9143765  )
        96           I   tau(  96) = (  0.0833271  0.1666576  0.0856171  )
        97           I   tau(  97) = (  0.0833296  0.1666524  0.4189505  )
        98           I   tau(  98) = (  0.0833321  0.1666472  0.7522838  )
        99           I   tau(  99) = (  0.0833257  0.4166565  0.0856136  )
       100           I   tau( 100) = (  0.0833282  0.4166513  0.4189470  )
       101           I   tau( 101) = (  0.0833307  0.4166460  0.7522803  )
       102           I   tau( 102) = (  0.0833243  0.6666553  0.0856101  )
       103           I   tau( 103) = (  0.0833268  0.6666501  0.4189434  )
       104           I   tau( 104) = (  0.0833293  0.6666449  0.7522768  )
       105           I   tau( 105) = (  0.0833229  0.9166542  0.0856066  )
       106           I   tau( 106) = (  0.0833254  0.9166489  0.4189399  )
       107           I   tau( 107) = (  0.0833279  0.9166437  0.7522733  )
       108           I   tau( 108) = (  0.3333265  0.1666565  0.0856199  )
       109           I   tau( 109) = (  0.3333290  0.1666513  0.4189532  )
       110           I   tau( 110) = (  0.3333315  0.1666461  0.7522866  )
       111           I   tau( 111) = (  0.3333251  0.4166554  0.0856164  )
       112           I   tau( 112) = (  0.3333276  0.4166501  0.4189497  )
       113           I   tau( 113) = (  0.3333301  0.4166449  0.7522831  )
       114           I   tau( 114) = (  0.3333237  0.6666542  0.0856129  )
       115           I   tau( 115) = (  0.3333262  0.6666490  0.4189462  )
       116           I   tau( 116) = (  0.3333287  0.6666438  0.7522795  )
       117           I   tau( 117) = (  0.3333223  0.9166531  0.0856094  )
       118           I   tau( 118) = (  0.3333248  0.9166478  0.4189427  )
       119           I   tau( 119) = (  0.3333273  0.9166426  0.7522760  )
       120           I   tau( 120) = (  0.5833260  0.1666554  0.0856227  )
       121           I   tau( 121) = (  0.5833285  0.1666502  0.4189560  )
       122           I   tau( 122) = (  0.5833310  0.1666450  0.7522893  )
       123           I   tau( 123) = (  0.5833246  0.4166542  0.0856192  )
       124           I   tau( 124) = (  0.5833271  0.4166490  0.4189525  )
       125           I   tau( 125) = (  0.5833296  0.4166438  0.7522858  )
       126           I   tau( 126) = (  0.5833232  0.6666531  0.0856157  )
       127           I   tau( 127) = (  0.5833257  0.6666479  0.4189490  )
       128           I   tau( 128) = (  0.5833282  0.6666427  0.7522823  )
       129           I   tau( 129) = (  0.5833218  0.9166519  0.0856121  )
       130           I   tau( 130) = (  0.5833243  0.9166467  0.4189455  )
       131           I   tau( 131) = (  0.5833268  0.9166415  0.7522788  )
       132           I   tau( 132) = (  0.8333254  0.1666543  0.0856254  )
       133           I   tau( 133) = (  0.8333279  0.1666491  0.4189588  )
       134           I   tau( 134) = (  0.8333304  0.1666438  0.7522921  )
       135           I   tau( 135) = (  0.8333240  0.4166531  0.0856219  )
       136           I   tau( 136) = (  0.8333265  0.4166479  0.4189553  )
       137           I   tau( 137) = (  0.8333290  0.4166427  0.7522886  )
       138           I   tau( 138) = (  0.8333226  0.6666520  0.0856184  )
       139           I   tau( 139) = (  0.8333251  0.6666468  0.4189518  )
       140           I   tau( 140) = (  0.8333276  0.6666415  0.7522851  )
       141           I   tau( 141) = (  0.8333212  0.9166508  0.0856149  )
       142           I   tau( 142) = (  0.8333237  0.9166456  0.4189482  )
       143           I   tau( 143) = (  0.8333262  0.9166404  0.7522816  )
       144           Pb  tau( 144) = (  0.1666641  0.0833174  0.2477120  )

     number of k points=     1  Gaussian smearing, width (Ry)=  0.0100
                       cart. coord. in units 2pi/alat
        k(    1) = (   0.0000000   0.0000000   0.0000000), wk =   2.0000000

                       cryst. coord.
        k(    1) = (   0.0000000   0.0000000   0.0000000), wk =   2.0000000

     Dense  grid:  5079105 G-vectors     FFT dimensions: ( 216, 216, 250)

     Smooth grid:  3634441 G-vectors     FFT dimensions: ( 192, 192, 225)

     Dynamical RAM for                 wfc:      37.36 MB

     Dynamical RAM for     wfc (w. buffer):      37.36 MB

     Dynamical RAM for           str. fact:       0.61 MB

     Dynamical RAM for           local pot:       0.00 MB

     Dynamical RAM for          nlocal pot:      70.16 MB

     Dynamical RAM for                qrad:       3.00 MB

     Dynamical RAM for          rho,v,vnew:       1.98 MB

     Dynamical RAM for               rhoin:       0.66 MB

     Dynamical RAM for            rho*nmix:       4.84 MB

     Dynamical RAM for           G-vectors:       1.24 MB

     Dynamical RAM for          h,s,v(r/c):    1394.82 MB

     Dynamical RAM for          <psi|beta>:      54.58 MB

     Dynamical RAM for                 psi:     149.42 MB

     Dynamical RAM for                hpsi:     149.42 MB

     Dynamical RAM for                spsi:     149.42 MB

     Dynamical RAM for      wfcinit/wfcrot:     118.31 MB

     Dynamical RAM for           addusdens:      85.07 MB

     Dynamical RAM for          addusforce:     142.51 MB

     Dynamical RAM for         addusstress:      60.85 MB

     Estimated static dynamical RAM per process >     117.69 MB

     Estimated max dynamical RAM per process >       1.97 GB

     Estimated total dynamical RAM >     505.05 GB

     Atomic positions and unit cell read from directory:
     ./PbI2.save/
     Atomic positions from file used, from input discarded
 

     Check: negative core charge=   -0.000001

     The initial density is read from file :
     ./PbI2.save/charge-density


     starting charge    2300.0000, renormalised to    2299.0000


     %%%%%%%%%%%%%%%%%%%%%%%%%%%%%%%%%%%%%%%%%%%%%%%%%%%%%%%%%%%%%%%%%%%%%%%%
     %                                                                      %
     % You are using vdW-DF, which was implemented by the Thonhauser group. %
     % Please cite the following two papers that made this development      %
     % possible and the two reviews that describe the various versions:     %
     %                                                                      %
     %   T. Thonhauser et al., PRL 115, 136402 (2015).                      %
     %   T. Thonhauser et al., PRB 76, 125112 (2007).                       %
     %   K. Berland et al., Rep. Prog. Phys. 78, 066501 (2015).             %
     %   D.C. Langreth et al., J. Phys.: Condens. Matter 21, 084203 (2009). %
     %                                                                      %
     % If you are calculating stress with vdW-DF, please also cite:         %
     %                                                                      %
     %   R. Sabatini et al., J. Phys.: Condens. Matter 24, 424209 (2012).   %
     %                                                                      %
     %%%%%%%%%%%%%%%%%%%%%%%%%%%%%%%%%%%%%%%%%%%%%%%%%%%%%%%%%%%%%%%%%%%%%%%%

     %%%%%%%%%%%%%%%%%%%%%%%%%%%%%%%%%%%%%%%%%%%%%%%%%%%%%%%%%%%%%%%%%%%%%%%%
     %                                                                      %
     %  vdW-DF NEWS:                                                        %
     %                                                                      %
     %  * vdW-DF3 is now available. DOI: 10.1021/acs.jctc.0c00471           %
     %    use with input_dft = 'vdW-DF3-opt1' or 'vdW-DF3-opt2'             %
     %                                                                      %
     %  * Unscreened and range-separated vdW-DF hybrid functionals          %
     %    DOI: 10.1063/1.4986522 and 10.1088/1361-648X/ac2ad2               %
     %    use with input_dft = 'vdW-DF-cx0' (etc) and 'vdW-DF-ahcx'         %
     %                                                                      %
     %%%%%%%%%%%%%%%%%%%%%%%%%%%%%%%%%%%%%%%%%%%%%%%%%%%%%%%%%%%%%%%%%%%%%%%%


     Carrying out vdW-DF run using the following parameters:
     Nqs    =  20  Npoints =  1024  r_max =  100.000
     q_mesh =  0.00001000  0.04494208  0.09755937  0.15916263
               0.23128650  0.31572767  0.41458969  0.53033537
               0.66584808  0.82450364  1.01025438  1.22772762
               1.48234092  1.78043706  2.12944203  2.53805004
               3.01644009  3.57652955  4.23227104  5.00000000


     -----------------------------------------------
     Non-local corr. energy    =      68.71080301 Ry
     -----------------------------------------------

     Wavefunctions not found or not readable, recomputing them from scratch
     Starting wfcs are 1296 randomized atomic wfcs +   84 random wfcs
     Checking if some PAW data can be deallocated... 
       PAW data deallocated on  159 nodes for type:  1
       PAW data deallocated on   97 nodes for type:  2

     total cpu time spent up to now is       35.7 secs

     Self-consistent Calculation

     iteration #  1     ecut=    70.00 Ry     beta= 0.70
     Davidson diagonalization with overlap

---- Real-time Memory Report at c_bands before calling an iterative solver
           626 MiB given to the printing process from OS
             0 MiB allocation reported by mallinfo(arena+hblkhd)
       2011811 MiB available memory on the node where the printing process lives
------------------
     ethr =  1.00E-05,  avg # of iterations = 22.0


     -----------------------------------------------
     Non-local corr. energy    =      68.77624640 Ry
     -----------------------------------------------


     total cpu time spent up to now is     1087.7 secs

     total energy              =  -97467.54934537 Ry
     estimated scf accuracy    <       0.08453814 Ry

     iteration #  2     ecut=    70.00 Ry     beta= 0.70
     Davidson diagonalization with overlap

---- Real-time Memory Report at c_bands before calling an iterative solver
          1924 MiB given to the printing process from OS
             0 MiB allocation reported by mallinfo(arena+hblkhd)
       1994120 MiB available memory on the node where the printing process lives
------------------
     ethr =  3.68E-06,  avg # of iterations = 12.0


     -----------------------------------------------
     Non-local corr. energy    =      68.76596581 Ry
     -----------------------------------------------


     total cpu time spent up to now is     1691.7 secs

     total energy              =  -97467.43684420 Ry
     estimated scf accuracy    <       0.96808238 Ry

     iteration #  3     ecut=    70.00 Ry     beta= 0.70
     Davidson diagonalization with overlap

---- Real-time Memory Report at c_bands before calling an iterative solver
          1924 MiB given to the printing process from OS
             0 MiB allocation reported by mallinfo(arena+hblkhd)
       1993760 MiB available memory on the node where the printing process lives
------------------
     ethr =  3.68E-06,  avg # of iterations = 15.0


     -----------------------------------------------
     Non-local corr. energy    =      68.75514423 Ry
     -----------------------------------------------


     total cpu time spent up to now is     2435.3 secs

     total energy              =  -97467.59071678 Ry
     estimated scf accuracy    <       0.05301409 Ry

     iteration #  4     ecut=    70.00 Ry     beta= 0.70
     Davidson diagonalization with overlap

---- Real-time Memory Report at c_bands before calling an iterative solver
          1924 MiB given to the printing process from OS
             0 MiB allocation reported by mallinfo(arena+hblkhd)
       1993744 MiB available memory on the node where the printing process lives
------------------
     c_bands:  1 eigenvalues not converged
     ethr =  2.31E-06,  avg # of iterations = 20.0


     -----------------------------------------------
     Non-local corr. energy    =      68.74548462 Ry
     -----------------------------------------------


     total cpu time spent up to now is     3090.8 secs

     total energy              =  -97467.59582926 Ry
     estimated scf accuracy    <       0.01694716 Ry

     iteration #  5     ecut=    70.00 Ry     beta= 0.70
     Davidson diagonalization with overlap

---- Real-time Memory Report at c_bands before calling an iterative solver
          1924 MiB given to the printing process from OS
             0 MiB allocation reported by mallinfo(arena+hblkhd)
       1993713 MiB available memory on the node where the printing process lives
------------------
     ethr =  7.37E-07,  avg # of iterations = 19.0


     -----------------------------------------------
     Non-local corr. energy    =      68.74128643 Ry
     -----------------------------------------------


     total cpu time spent up to now is     3703.2 secs

     total energy              =  -97467.59732238 Ry
     estimated scf accuracy    <       0.00298608 Ry

     iteration #  6     ecut=    70.00 Ry     beta= 0.70
     Davidson diagonalization with overlap

---- Real-time Memory Report at c_bands before calling an iterative solver
          1924 MiB given to the printing process from OS
             0 MiB allocation reported by mallinfo(arena+hblkhd)
       1993591 MiB available memory on the node where the printing process lives
------------------
     ethr =  1.30E-07,  avg # of iterations = 19.0


     -----------------------------------------------
     Non-local corr. energy    =      68.73502645 Ry
     -----------------------------------------------


     total cpu time spent up to now is     4375.9 secs

     total energy              =  -97467.59724574 Ry
     estimated scf accuracy    <       0.00142905 Ry

     iteration #  7     ecut=    70.00 Ry     beta= 0.70
     Davidson diagonalization with overlap

---- Real-time Memory Report at c_bands before calling an iterative solver
          1924 MiB given to the printing process from OS
             0 MiB allocation reported by mallinfo(arena+hblkhd)
       1993459 MiB available memory on the node where the printing process lives
------------------
     c_bands:  2 eigenvalues not converged
     ethr =  6.22E-08,  avg # of iterations = 20.0


     -----------------------------------------------
     Non-local corr. energy    =      68.73289656 Ry
     -----------------------------------------------


     total cpu time spent up to now is     5134.6 secs

     total energy              =  -97467.59733297 Ry
     estimated scf accuracy    <       0.00075617 Ry

     iteration #  8     ecut=    70.00 Ry     beta= 0.70
     Davidson diagonalization with overlap

---- Real-time Memory Report at c_bands before calling an iterative solver
          1924 MiB given to the printing process from OS
             0 MiB allocation reported by mallinfo(arena+hblkhd)
       1993328 MiB available memory on the node where the printing process lives
------------------
     c_bands:  2 eigenvalues not converged
     ethr =  3.29E-08,  avg # of iterations = 20.0


     -----------------------------------------------
     Non-local corr. energy    =      68.73302414 Ry
     -----------------------------------------------


     total cpu time spent up to now is     5861.3 secs

     total energy              =  -97467.59747256 Ry
     estimated scf accuracy    <       0.00019210 Ry

     iteration #  9     ecut=    70.00 Ry     beta= 0.70
     Davidson diagonalization with overlap

---- Real-time Memory Report at c_bands before calling an iterative solver
          1924 MiB given to the printing process from OS
             0 MiB allocation reported by mallinfo(arena+hblkhd)
       1993216 MiB available memory on the node where the printing process lives
------------------
     c_bands:  3 eigenvalues not converged
     ethr =  8.36E-09,  avg # of iterations = 20.0


     -----------------------------------------------
     Non-local corr. energy    =      68.73323943 Ry
     -----------------------------------------------


     total cpu time spent up to now is     6602.2 secs

     total energy              =  -97467.59750810 Ry
     estimated scf accuracy    <       0.00002280 Ry

     iteration # 10     ecut=    70.00 Ry     beta= 0.70
     Davidson diagonalization with overlap

---- Real-time Memory Report at c_bands before calling an iterative solver
          1924 MiB given to the printing process from OS
             0 MiB allocation reported by mallinfo(arena+hblkhd)
       1993087 MiB available memory on the node where the printing process lives
------------------
     ethr =  9.92E-10,  avg # of iterations = 19.0


     -----------------------------------------------
     Non-local corr. energy    =      68.73291663 Ry
     -----------------------------------------------


     total cpu time spent up to now is     8286.9 secs

     total energy              =  -97467.59751914 Ry
     estimated scf accuracy    <       0.00000517 Ry

     iteration # 11     ecut=    70.00 Ry     beta= 0.70
     Davidson diagonalization with overlap

---- Real-time Memory Report at c_bands before calling an iterative solver
          2002 MiB given to the printing process from OS
             0 MiB allocation reported by mallinfo(arena+hblkhd)
       1993020 MiB available memory on the node where the printing process lives
------------------
     c_bands:  1 eigenvalues not converged
     ethr =  2.25E-10,  avg # of iterations = 20.0


     -----------------------------------------------
     Non-local corr. energy    =      68.73275235 Ry
     -----------------------------------------------


     total cpu time spent up to now is     8946.8 secs

     total energy              =  -97467.59751904 Ry
     estimated scf accuracy    <       0.00000152 Ry

     iteration # 12     ecut=    70.00 Ry     beta= 0.70
     Davidson diagonalization with overlap

---- Real-time Memory Report at c_bands before calling an iterative solver
          2002 MiB given to the printing process from OS
             0 MiB allocation reported by mallinfo(arena+hblkhd)
       1993013 MiB available memory on the node where the printing process lives
------------------
     ethr =  6.63E-11,  avg # of iterations = 19.0


     -----------------------------------------------
     Non-local corr. energy    =      68.73261701 Ry
     -----------------------------------------------


     total cpu time spent up to now is     9703.5 secs

     total energy              =  -97467.59751919 Ry
     estimated scf accuracy    <       0.00000072 Ry

     iteration # 13     ecut=    70.00 Ry     beta= 0.70
     Davidson diagonalization with overlap

---- Real-time Memory Report at c_bands before calling an iterative solver
          2002 MiB given to the printing process from OS
             0 MiB allocation reported by mallinfo(arena+hblkhd)
       1993014 MiB available memory on the node where the printing process lives
------------------
     c_bands:  2 eigenvalues not converged
     ethr =  3.12E-11,  avg # of iterations = 20.0


     -----------------------------------------------
     Non-local corr. energy    =      68.73263594 Ry
     -----------------------------------------------


     total cpu time spent up to now is    10433.1 secs

     End of self-consistent calculation

          k = 0.0000 0.0000 0.0000 (454335 PWs)   bands (ev):

   -41.5253 -41.5252 -41.5251 -41.4998 -41.4997 -41.4996 -41.4981 -41.4979
   -41.4979 -41.4218 -41.4216 -41.4216 -41.4215 -41.4214 -41.4213 -41.0720
   -41.0720 -41.0719 -41.0596 -41.0595 -41.0595 -41.0591 -41.0590 -41.0589
   -41.0476 -41.0475 -41.0474 -41.0470 -41.0469 -41.0468 -41.0276 -41.0275
   -41.0274 -41.0238 -41.0238 -41.0238 -41.0232 -41.0232 -41.0232 -41.0142
   -41.0141 -41.0140 -41.0113 -41.0112 -41.0111 -41.0081 -41.0081 -41.0081
   -41.0081 -41.0080 -41.0080 -41.0012 -41.0012 -41.0012 -41.0011 -41.0011
   -41.0011 -40.9966 -40.9966 -40.9966 -40.9966 -40.9966 -40.9966 -40.9747
   -40.9746 -40.9746 -40.9746 -40.9746 -40.9746 -40.9743 -40.9743 -40.9742
   -40.9742 -40.9742 -40.9742 -40.9575 -40.9575 -40.9575 -40.9575 -40.9575
   -40.9575 -40.9570 -40.9570 -40.9570 -40.9570 -40.9570 -40.9570 -40.9486
   -40.9485 -40.9485 -40.9485 -40.9485 -40.9485 -40.9462 -40.9461 -40.9461
   -40.9461 -40.9461 -40.9461 -40.9445 -40.9445 -40.9444 -40.9444 -40.9444
   -40.9444 -40.9331 -40.9331 -40.9259 -40.9258 -40.9230 -40.9099 -40.9098
   -40.9098 -40.9079 -40.9079 -40.9079 -40.9074 -40.9074 -40.9074 -40.9037
   -40.9036 -40.9036 -40.9030 -40.9030 -40.9030 -40.9015 -40.9015 -40.9014
   -40.9009 -40.9008 -40.9008 -40.8958 -40.8957 -40.8957 -40.8955 -40.8955
   -40.8955 -40.8945 -40.8945 -40.8944 -40.8690 -40.8690 -40.8646 -40.8645
   -40.8629 -40.8592 -40.8591 -40.8591 -40.8586 -40.8585 -40.8585 -40.8565
   -40.8564 -40.8564 -40.8562 -40.8562 -40.8562 -40.8559 -40.8559 -40.8559
   -40.8497 -40.8497 -40.8497 -40.8492 -40.8492 -40.8492 -40.8491 -40.8489
   -40.8488 -40.8487 -40.8487 -40.8487 -40.8481 -40.8481 -40.8481 -40.8479
   -40.8479 -40.8479 -40.8456 -40.8454 -40.8453 -40.8415 -40.8413 -40.8413
   -40.8277 -40.8275 -40.8275 -40.8264 -40.8263 -40.8262 -40.8046 -40.8046
   -40.8046 -40.8045 -40.8045 -40.8045 -40.8025 -40.8024 -40.8024 -40.8024
   -40.8023 -40.8023 -40.7972 -40.7972 -40.7972 -40.7971 -40.7971 -40.7970
   -40.7874 -40.7874 -40.7874 -40.7873 -40.7873 -40.7873 -40.7866 -40.7866
   -40.7865 -40.7865 -40.7865 -40.7864 -40.7299 -40.7299 -40.7299 -40.7276
   -40.7276 -40.7276 -40.7264 -40.7264 -40.7264 -40.7182 -40.7182 -40.7182
   -40.7176 -40.7176 -40.7176 -40.7174 -40.7174 -40.7173 -40.7133 -40.7133
   -40.7132 -40.7131 -40.7130 -40.7130 -40.7034 -40.7034 -40.7034 -40.7027
   -40.7027 -40.7026 -40.6973 -40.6972 -40.6972 -40.6965 -40.6965 -40.6965
   -40.6954 -40.6954 -40.6953 -40.6927 -40.6927 -40.6927 -40.6927 -40.6927
   -40.6927 -40.6824 -40.6823 -40.6823 -40.6823 -40.6823 -40.6823 -40.6814
   -40.6814 -40.6814 -40.6814 -40.6814 -40.6814 -40.6805 -40.6805 -40.6805
   -40.6804 -40.6804 -40.6804 -40.6787 -40.6787 -40.6787 -40.6787 -40.6787
   -40.6786 -40.6781 -40.6781 -40.6781 -40.6781 -40.6781 -40.6781 -40.6096
   -40.6095 -40.6095 -40.6086 -40.6085 -40.6085 -40.6060 -40.6059 -40.6059
   -40.6044 -40.6044 -40.6044 -40.6034 -40.6034 -40.6034 -40.5782 -40.5782
   -40.5769 -40.5769 -40.5763 -40.5755 -40.5755 -40.5742 -40.5742 -40.5739
   -40.5667 -40.5667 -40.5667 -40.5667 -40.5667 -40.5667 -40.5667 -40.5667
   -40.5667 -40.5665 -40.5664 -40.5664 -40.5663 -40.5663 -40.5663 -40.5663
   -40.5663 -40.5662 -40.5662 -40.5662 -40.5662 -40.5659 -40.5659 -40.5659
   -40.5659 -40.5659 -40.5659 -40.5658 -40.5658 -40.5658 -40.5658 -40.5658
   -40.5658 -40.5654 -40.5653 -40.5653 -40.5653 -40.5653 -40.5653 -40.5653
   -40.5653 -40.5653 -40.5651 -40.5650 -40.5650 -40.5560 -40.5560 -40.5560
   -40.5556 -40.5556 -40.5556 -40.5555 -40.5555 -40.5555 -40.5549 -40.5549
   -40.5549 -40.5549 -40.5549 -40.5549 -40.5485 -40.5485 -40.5485 -40.5482
   -40.5482 -40.5482 -40.5479 -40.5479 -40.5479 -40.5477 -40.5476 -40.5476
   -40.5476 -40.5476 -40.5476 -40.5475 -40.5475 -40.5475 -40.5470 -40.5470
   -40.5470 -40.5467 -40.5467 -40.5467 -40.5459 -40.5459 -40.5459 -40.5458
   -40.5458 -40.5458 -40.5455 -40.5455 -40.5455 -40.5450 -40.5450 -40.5450
   -40.5448 -40.5448 -40.5448 -40.5432 -40.5431 -40.5431 -40.5430 -40.5430
   -40.5430 -40.5428 -40.5423 -40.5423 -40.5410 -40.5410 -40.5410 -40.5408
   -40.5407 -40.5407 -40.5406 -40.5406 -40.5406 -40.5390 -40.5390 -40.5390
   -40.5390 -40.5390 -40.5390 -40.5390 -40.5389 -40.5388 -40.5388 -40.5388
   -40.5388 -40.5388 -40.5388 -40.5387 -40.5387 -40.5387 -40.5387 -40.5387
   -40.5387 -40.5385 -40.5384 -40.5384 -40.5384 -40.5384 -40.5384 -40.5370
   -40.5370 -40.5370 -40.5369 -40.5369 -40.5369 -40.5369 -40.5369 -40.5369
   -40.5369 -40.5369 -40.5369 -14.1637 -14.1637 -14.0932 -14.0932 -14.0582
   -13.2498 -13.2392 -13.2386 -13.2386 -13.2376 -13.2376 -13.2249 -13.2249
   -13.2213 -13.2206 -13.2206 -13.2184 -13.2183 -13.2165 -13.2069 -13.2058
   -13.2030 -13.2030 -13.2017 -13.2017 -13.2010 -13.1930 -13.1923 -13.1923
   -13.1905 -13.1905 -13.1898 -13.1882 -13.1882 -13.1879 -13.1855 -13.1854
   -13.1841 -13.1841 -13.1776 -13.1776 -13.1727 -13.1724 -13.1723 -13.1714
   -13.1710 -13.1709 -13.1687 -13.1687 -13.1681 -13.0757 -13.0757 -13.0701
   -13.0696 -13.0599 -13.0598 -13.0596 -13.0581 -13.0581 -13.0534 -13.0511
   -13.0511 -13.0484 -13.0484 -13.0464 -13.0334 -13.0322 -13.0322 -13.0303
   -13.0279 -13.0279 -13.0235 -13.0235 -13.0213 -13.0196 -13.0196 -13.0165
   -13.0144 -13.0139 -13.0138 -13.0131 -13.0129 -13.0128 -13.0118 -13.0117
   -13.0115 -13.0111 -13.0100 -13.0099 -13.0084 -13.0083 -13.0072 -13.0060
   -13.0060 -13.0049 -12.9906 -12.9906 -12.9788 -12.9765 -12.9765 -12.9076
   -12.9075 -12.9073 -12.8984 -12.8983 -12.8980 -12.8896 -12.8896 -12.8895
   -12.8893 -12.8891 -12.8891 -12.8823 -12.8817 -12.8817 -12.8792 -12.8771
   -12.8771 -12.8717 -12.8710 -12.8710 -12.8703 -12.8703 -12.8673 -12.8614
   -12.8614 -12.8598 -12.8593 -12.8588 -12.8588 -12.8580 -12.8580 -12.8579
   -12.8566 -12.8563 -12.8563 -12.8537 -12.8537 -12.8517 -12.8517 -12.8510
   -12.8510 -12.8468 -12.8468 -12.8457 -12.8438 -12.8438 -12.8335 -12.8302
   -12.8302 -12.8086 -12.8086 -12.8044 -12.8017 -12.7942 -12.7942 -12.7928
   -12.7914 -12.7914 -12.7886 -12.7861 -12.7861 -12.7832 -12.7832 -12.7809
   -12.7167 -12.7162 -12.7162 -12.7101 -12.7101 -12.7098 -12.7088 -12.7086
   -12.7086 -12.7058 -12.7058 -12.7053 -12.7047 -12.7047 -12.7040 -12.6982
   -12.6982 -12.6979 -12.6969 -12.6969 -12.6962 -12.6950 -12.6950 -12.6930
   -12.6928 -12.6928 -12.6922 -12.6921 -12.6921 -12.6917 -12.6914 -12.6914
   -12.6912 -12.6909 -12.6909 -12.6906 -12.6905 -12.6902 -12.6902 -12.6895
   -12.6895 -12.6895 -12.6882 -12.6882 -12.6870 -12.6870 -12.6869 -12.6868
   -12.6864 -12.6864 -12.6864 -12.6862 -12.6862 -12.6859 -12.6855 -12.6855
   -12.6854 -12.6853 -12.6852 -12.6852 -12.6848 -12.6848 -12.6834 -12.6833
   -12.6832 -12.6832 -12.6832 -12.6822 -12.6819 -12.6819 -12.6817 -12.6803
   -12.6800 -12.6800 -12.6797 -12.6797 -12.6795 -12.6778 -12.6776 -12.6776
    -8.4826  -8.2730  -8.2729  -8.1924  -8.0884  -8.0329  -8.0329  -8.0240
    -8.0140  -8.0140  -7.9435  -7.9282  -7.9281  -7.9006  -7.8442  -7.8171
    -7.8171  -7.8057  -7.8057  -7.8042  -7.8021  -7.7760  -7.7673  -7.7673
    -7.7580  -7.7580  -7.7426  -7.7294  -7.7294  -7.7091  -7.7057  -7.7057
    -7.6975  -7.6975  -7.6796  -7.6755  -7.6747  -7.6512  -7.6473  -7.6473
    -7.6420  -7.6420  -7.6347  -7.6298  -7.6116  -7.6116  -7.6060  -7.6017
    -7.6017  -7.5905  -7.5794  -7.5793  -7.5792  -7.5738  -7.5738  -7.5421
    -7.5420  -7.5146  -7.4992  -7.4992  -7.4694  -7.4428  -7.4428  -7.4325
    -7.4299  -7.4299  -7.4198  -7.4067  -7.4022  -7.4005  -7.4005  -7.3968
    -7.3943  -7.3943  -7.3824  -7.3824  -7.3817  -7.3739  -7.3739  -7.3446
    -7.3303  -7.3281  -7.3281  -7.3202  -7.3202  -7.3172  -7.2840  -7.2821
    -7.2821  -7.2665  -7.2665  -7.2657  -7.2655  -7.2605  -7.2605  -4.5931
    -3.9041  -3.8644  -3.8644  -3.8639  -3.8238  -3.8237  -3.7598  -3.7597
    -3.7521  -3.7520  -3.7336  -3.7308  -3.6052  -3.5733  -3.5733  -3.5658
    -3.5656  -3.5537  -3.5537  -3.5256  -3.5255  -3.4887  -3.4790  -3.4745
    -3.4745  -3.4074  -3.4074  -3.4054  -3.3961  -3.3961  -3.3942  -3.3932
    -3.3915  -3.3915  -3.3465  -3.3465  -3.2895  -3.2858  -3.2857  -3.2652
    -3.1391  -3.1386  -3.1386  -3.1370  -3.1348  -3.1348  -3.0968  -2.9212
     0.6594   0.6594   0.7220   0.9908   0.9908   0.9932   1.0081   1.0225
     1.0225   1.0531   1.0532   1.0925   1.1101   1.1101   1.1683   1.2180
     1.2180   1.2225   1.2471   1.2523   1.2523   1.2877   1.3136   1.3136
     1.3584   1.3585   1.3607   1.3661   1.3831   1.3831   1.3966   1.4005
     1.4005   1.4333   1.4333   1.4754   1.4826   1.4939   1.4939   1.5259
     1.5259   1.5488   1.5506   1.5544   1.5544   1.5781   1.5781   1.5924
     1.5929   1.5929   1.6030   1.6207   1.6207   1.6245   1.6245   1.6559
     1.6643   1.6695   1.6695   1.6704   1.6704   1.6944   1.7208   1.7209
     1.7355   1.7423   1.7773   1.7773   1.7835   1.8097   1.8420   1.8469
     1.8469   1.8522   1.8522   1.8694   1.8695   1.9013   1.9437   1.9474
     1.9474   1.9481   1.9584   1.9585   1.9738   1.9746   1.9747   1.9771
     2.0036   2.0036   2.0128   2.0128   2.0237   2.0723   2.0723   2.0758
     2.0785   2.0785   2.1085   2.1086   2.1232   2.1239   2.1425   2.1542
     2.1581   2.1581   2.1613   2.1613   2.1655   2.1782   2.1782   2.1787
     2.1832   2.1832   2.1934   2.1968   2.1968   2.2084   2.2224   2.2254
     2.2455   2.2455   2.2617   2.2658   2.2658   2.2765   2.2765   2.2849
     2.2850   2.2944   2.2977   2.3030   2.3030   2.3204   2.3205   2.3367
     2.3918   2.4067   2.4067   2.4274   2.4712   2.4713   2.4963   2.4993
     2.4993   2.4999   2.5063   2.5063   2.5143   2.5508   2.5563   2.5563
     2.5641   2.5691   2.5691   2.5853   2.5853   2.6069   2.6070   2.6192
     2.6192   2.6194   2.6416   2.6416   2.6425   2.6425   2.6430   2.6519
     2.6519   2.6725   2.6967   2.6967   2.7287   2.7287   2.7418   2.7536
     2.7639   2.7639   2.7681   2.7681   2.7779   2.7875   2.7913   2.7913
     2.7948   2.7983   2.7983   2.8096   2.8096   2.8408   2.8477   2.8478
     2.8511   2.8633   2.8633   2.8721   2.8806   2.8807   2.8984   2.8985
     2.9063   2.9089   2.9089   2.9550   2.9550   2.9671   2.9671   2.9792
     2.9860   2.9860   2.9936   2.9936   2.9955   3.0030   3.0113   3.0191
     3.0191   3.0193   3.0289   3.0289   3.0292   3.0348   3.0348   3.0530
     3.0530   3.0586   3.0692   3.0713   3.0714   3.0724   3.0862   3.0862
     3.0868   3.0933   3.0933   3.0999   3.1008   3.1008   3.1013   3.1098
     3.1139   3.1139   3.1393   3.1393   3.1488   3.1519   3.1519   3.1627
     3.1627   3.1664   3.1690   3.1690   3.1736   3.1760   3.1760   3.1784
     3.1870   3.1870   3.1995   3.2898   3.2898   3.3016   3.3389   3.3389
     3.3433   3.3557   3.3558   3.3660   3.3833   3.4057   3.4057   3.4155
     3.5045   3.5271   3.5271   3.5294   3.5347   3.5367   3.5367   3.5381
     3.5381   3.5395   3.5432   3.5432   3.5434   4.3055   5.1262   5.1265
     5.7658   5.9070   6.1130   6.2755   6.2755   6.2784   6.3865   6.3865
     6.4063   6.4399   6.4399   6.4418   6.5473   6.5473   6.5736   6.6000
     6.6000   6.6212   6.6212   6.6247   6.6785   6.6785   6.7096   6.7966
     6.7966   6.8456   6.8673   6.8673   6.8739   6.8842   6.8865   6.8865
     6.9026   6.9026   6.9175   6.9175   6.9377   6.9492   6.9493   6.9838
     6.9838   6.9869   7.0102   7.0107   7.0203   7.0203   7.0324   7.0545
     7.0545   7.0711   7.0816   7.0817   7.0951   7.0987   7.0987   7.1187
     7.1187   7.1581   7.1581   7.1661   7.1805   7.2006   7.2006   7.2029
     7.2277   7.2277   7.2440   7.2537   7.2537   7.2747   7.2748   7.2821
     7.2891   7.2891   7.2969   7.3117   7.3122   7.3122   7.3315   7.3315
     7.3324   7.3390   7.3635   7.3636   7.3933   7.3933   7.4009   7.4484
     7.4484   7.4535   7.4542   7.4568   7.4568   7.4622   7.4622   7.4743
     7.4787   7.4788   7.4796   7.5064   7.5066   7.5133   7.5133   7.5221
     7.5221   7.5389   7.5391   7.5391   7.5428   7.5530   7.5530   7.5785
     7.5785   7.5984   7.6188   7.6188   7.6256   7.6306   7.6306   7.6440
     7.6440   7.6470   7.6638   7.6644   7.6644   7.6835   7.6835   7.6837
     7.6929   7.7409   7.7409   7.7675   7.7783   7.7783   7.7848   7.9012
     7.9043   7.9043   7.9055   7.9081   7.9081   8.1125   8.1159   8.1159
     9.1401   9.1401   9.1493   9.5396   9.5617   9.5617   9.6716   9.6795
     9.6795   9.7032   9.7621   9.7621   9.7634   9.7669   9.7669   9.8656
     9.9369   9.9685   9.9685   9.9778  10.0056  10.0056  10.0244  10.0244
    10.0347  10.0817  10.0817  10.0818  10.1740  10.2349  10.2414  10.2414
    10.2540  10.2597  10.2597  10.2912  10.2913  10.2979  10.3047  10.3047
    10.3184  10.3387  10.3387  10.3458  10.3747  10.3782  10.3783  10.4299
    10.4601  10.4601  10.4713  10.4730  10.4872  10.4873  10.6509  10.6626
    10.6626  10.6812  10.6812  10.6971  10.7487  10.7822  10.7822  10.7893
    10.8174  10.8289  10.8300  10.8300  10.8508  10.8508  10.8762  10.8762
    10.8763  10.8871  10.9029  10.9029  10.9356  10.9356  11.0054  11.0536
    11.0725  11.0745  11.0746  11.0838

     occupation numbers 
     1.0000   1.0000   1.0000   1.0000   1.0000   1.0000   1.0000   1.0000
     1.0000   1.0000   1.0000   1.0000   1.0000   1.0000   1.0000   1.0000
     1.0000   1.0000   1.0000   1.0000   1.0000   1.0000   1.0000   1.0000
     1.0000   1.0000   1.0000   1.0000   1.0000   1.0000   1.0000   1.0000
     1.0000   1.0000   1.0000   1.0000   1.0000   1.0000   1.0000   1.0000
     1.0000   1.0000   1.0000   1.0000   1.0000   1.0000   1.0000   1.0000
     1.0000   1.0000   1.0000   1.0000   1.0000   1.0000   1.0000   1.0000
     1.0000   1.0000   1.0000   1.0000   1.0000   1.0000   1.0000   1.0000
     1.0000   1.0000   1.0000   1.0000   1.0000   1.0000   1.0000   1.0000
     1.0000   1.0000   1.0000   1.0000   1.0000   1.0000   1.0000   1.0000
     1.0000   1.0000   1.0000   1.0000   1.0000   1.0000   1.0000   1.0000
     1.0000   1.0000   1.0000   1.0000   1.0000   1.0000   1.0000   1.0000
     1.0000   1.0000   1.0000   1.0000   1.0000   1.0000   1.0000   1.0000
     1.0000   1.0000   1.0000   1.0000   1.0000   1.0000   1.0000   1.0000
     1.0000   1.0000   1.0000   1.0000   1.0000   1.0000   1.0000   1.0000
     1.0000   1.0000   1.0000   1.0000   1.0000   1.0000   1.0000   1.0000
     1.0000   1.0000   1.0000   1.0000   1.0000   1.0000   1.0000   1.0000
     1.0000   1.0000   1.0000   1.0000   1.0000   1.0000   1.0000   1.0000
     1.0000   1.0000   1.0000   1.0000   1.0000   1.0000   1.0000   1.0000
     1.0000   1.0000   1.0000   1.0000   1.0000   1.0000   1.0000   1.0000
     1.0000   1.0000   1.0000   1.0000   1.0000   1.0000   1.0000   1.0000
     1.0000   1.0000   1.0000   1.0000   1.0000   1.0000   1.0000   1.0000
     1.0000   1.0000   1.0000   1.0000   1.0000   1.0000   1.0000   1.0000
     1.0000   1.0000   1.0000   1.0000   1.0000   1.0000   1.0000   1.0000
     1.0000   1.0000   1.0000   1.0000   1.0000   1.0000   1.0000   1.0000
     1.0000   1.0000   1.0000   1.0000   1.0000   1.0000   1.0000   1.0000
     1.0000   1.0000   1.0000   1.0000   1.0000   1.0000   1.0000   1.0000
     1.0000   1.0000   1.0000   1.0000   1.0000   1.0000   1.0000   1.0000
     1.0000   1.0000   1.0000   1.0000   1.0000   1.0000   1.0000   1.0000
     1.0000   1.0000   1.0000   1.0000   1.0000   1.0000   1.0000   1.0000
     1.0000   1.0000   1.0000   1.0000   1.0000   1.0000   1.0000   1.0000
     1.0000   1.0000   1.0000   1.0000   1.0000   1.0000   1.0000   1.0000
     1.0000   1.0000   1.0000   1.0000   1.0000   1.0000   1.0000   1.0000
     1.0000   1.0000   1.0000   1.0000   1.0000   1.0000   1.0000   1.0000
     1.0000   1.0000   1.0000   1.0000   1.0000   1.0000   1.0000   1.0000
     1.0000   1.0000   1.0000   1.0000   1.0000   1.0000   1.0000   1.0000
     1.0000   1.0000   1.0000   1.0000   1.0000   1.0000   1.0000   1.0000
     1.0000   1.0000   1.0000   1.0000   1.0000   1.0000   1.0000   1.0000
     1.0000   1.0000   1.0000   1.0000   1.0000   1.0000   1.0000   1.0000
     1.0000   1.0000   1.0000   1.0000   1.0000   1.0000   1.0000   1.0000
     1.0000   1.0000   1.0000   1.0000   1.0000   1.0000   1.0000   1.0000
     1.0000   1.0000   1.0000   1.0000   1.0000   1.0000   1.0000   1.0000
     1.0000   1.0000   1.0000   1.0000   1.0000   1.0000   1.0000   1.0000
     1.0000   1.0000   1.0000   1.0000   1.0000   1.0000   1.0000   1.0000
     1.0000   1.0000   1.0000   1.0000   1.0000   1.0000   1.0000   1.0000
     1.0000   1.0000   1.0000   1.0000   1.0000   1.0000   1.0000   1.0000
     1.0000   1.0000   1.0000   1.0000   1.0000   1.0000   1.0000   1.0000
     1.0000   1.0000   1.0000   1.0000   1.0000   1.0000   1.0000   1.0000
     1.0000   1.0000   1.0000   1.0000   1.0000   1.0000   1.0000   1.0000
     1.0000   1.0000   1.0000   1.0000   1.0000   1.0000   1.0000   1.0000
     1.0000   1.0000   1.0000   1.0000   1.0000   1.0000   1.0000   1.0000
     1.0000   1.0000   1.0000   1.0000   1.0000   1.0000   1.0000   1.0000
     1.0000   1.0000   1.0000   1.0000   1.0000   1.0000   1.0000   1.0000
     1.0000   1.0000   1.0000   1.0000   1.0000   1.0000   1.0000   1.0000
     1.0000   1.0000   1.0000   1.0000   1.0000   1.0000   1.0000   1.0000
     1.0000   1.0000   1.0000   1.0000   1.0000   1.0000   1.0000   1.0000
     1.0000   1.0000   1.0000   1.0000   1.0000   1.0000   1.0000   1.0000
     1.0000   1.0000   1.0000   1.0000   1.0000   1.0000   1.0000   1.0000
     1.0000   1.0000   1.0000   1.0000   1.0000   1.0000   1.0000   1.0000
     1.0000   1.0000   1.0000   1.0000   1.0000   1.0000   1.0000   1.0000
     1.0000   1.0000   1.0000   1.0000   1.0000   1.0000   1.0000   1.0000
     1.0000   1.0000   1.0000   1.0000   1.0000   1.0000   1.0000   1.0000
     1.0000   1.0000   1.0000   1.0000   1.0000   1.0000   1.0000   1.0000
     1.0000   1.0000   1.0000   1.0000   1.0000   1.0000   1.0000   1.0000
     1.0000   1.0000   1.0000   1.0000   1.0000   1.0000   1.0000   1.0000
     1.0000   1.0000   1.0000   1.0000   1.0000   1.0000   1.0000   1.0000
     1.0000   1.0000   1.0000   1.0000   1.0000   1.0000   1.0000   1.0000
     1.0000   1.0000   1.0000   1.0000   1.0000   1.0000   1.0000   1.0000
     1.0000   1.0000   1.0000   1.0000   1.0000   1.0000   1.0000   1.0000
     1.0000   1.0000   1.0000   1.0000   1.0000   1.0000   1.0000   1.0000
     1.0000   1.0000   1.0000   1.0000   1.0000   1.0000   1.0000   1.0000
     1.0000   1.0000   1.0000   1.0000   1.0000   1.0000   1.0000   1.0000
     1.0000   1.0000   1.0000   1.0000   1.0000   1.0000   1.0000   1.0000
     1.0000   1.0000   1.0000   1.0000   1.0000   1.0000   1.0000   1.0000
     1.0000   1.0000   1.0000   1.0000   1.0000   1.0000   1.0000   1.0000
     1.0000   1.0000   1.0000   1.0000   1.0000   1.0000   1.0000   1.0000
     1.0000   1.0000   1.0000   1.0000   1.0000   1.0000   1.0000   1.0000
     1.0000   1.0000   1.0000   1.0000   1.0000   1.0000   1.0000   1.0000
     1.0000   1.0000   1.0000   1.0000   1.0000   1.0000   1.0000   1.0000
     1.0000   1.0000   1.0000   1.0000   1.0000   1.0000   1.0000   1.0000
     1.0000   1.0000   1.0000   1.0000   1.0000   1.0000   1.0000   1.0000
     1.0000   1.0000   1.0000   1.0000   1.0000   1.0000   1.0000   1.0000
     1.0000   1.0000   1.0000   1.0000   1.0000   1.0000   1.0000   1.0000
     1.0000   1.0000   1.0000   1.0000   1.0000   1.0000   1.0000   1.0000
     1.0000   1.0000   1.0000   1.0000   1.0000   1.0000   1.0000   1.0000
     1.0000   1.0000   1.0000   1.0000   1.0000   1.0000   1.0000   1.0000
     1.0000   1.0000   1.0000   1.0000   1.0000   1.0000   1.0000   1.0000
     1.0000   1.0000   1.0000   1.0000   1.0000   1.0000   1.0000   1.0000
     1.0000   1.0000   1.0000   1.0000   1.0000   1.0000   1.0000   1.0000
     1.0000   1.0000   1.0000   1.0000   1.0000   1.0000   1.0000   1.0000
     1.0000   1.0000   1.0000   1.0000   1.0000   1.0000   1.0000   1.0000
     1.0000   1.0000   1.0000   1.0000   1.0000   1.0000   1.0000   1.0000
     1.0000   1.0000   1.0000   1.0000   1.0000   1.0000   1.0000   1.0000
     1.0000   1.0000   1.0000   1.0000   1.0000   1.0000   1.0000   1.0000
     1.0000   1.0000   1.0000   1.0000   1.0000   1.0000   1.0000   1.0000
     1.0000   1.0000   1.0000   1.0000   1.0000   1.0000   1.0000   1.0000
     1.0000   1.0000   1.0000   1.0000   1.0000   1.0000   1.0000   1.0000
     1.0000   1.0000   1.0000   1.0000   1.0000   1.0000   1.0000   1.0000
     1.0000   1.0000   1.0000   1.0000   1.0000   1.0000   1.0000   1.0000
     1.0000   1.0000   1.0000   1.0000   1.0000   1.0000   1.0000   1.0000
     1.0000   1.0000   1.0000   1.0000   1.0000   1.0000   1.0000   1.0000
     1.0000   1.0000   1.0000   1.0000   1.0000   1.0000   1.0000   1.0000
     1.0000   1.0000   1.0000   1.0000   1.0000   1.0000   1.0000   1.0000
     1.0000   1.0000   1.0000   1.0000   1.0000   1.0000   1.0000   1.0000
     1.0000   1.0000   1.0000   1.0000   1.0000   1.0000   1.0000   1.0000
     1.0000   1.0000   1.0000   1.0000   1.0000   1.0000   1.0000   1.0000
     1.0000   1.0000   1.0000   1.0000   1.0000   1.0000   1.0000   1.0000
     1.0000   1.0000   1.0000   1.0000   1.0000   1.0000   1.0000   1.0000
     1.0000   1.0000   1.0000   1.0000   1.0000   1.0000   1.0000   1.0000
     1.0000   1.0000   1.0000   1.0000   1.0000   1.0000   1.0000   1.0000
     1.0000   1.0000   1.0000   1.0000   1.0000   1.0000   1.0000   1.0000
     1.0000   1.0000   1.0000   1.0000   1.0000   1.0000   1.0000   1.0000
     1.0000   1.0000   1.0000   1.0000   1.0000   1.0000   1.0000   1.0000
     1.0000   1.0000   1.0000   1.0000   1.0000   1.0000   1.0000   1.0000
     1.0000   1.0000   1.0000   1.0000   1.0000   1.0000   1.0000   1.0000
     1.0000   1.0000   1.0000   1.0000   1.0000   1.0000   1.0000   1.0000
     1.0000   1.0000   1.0000   1.0000   1.0000   1.0000   1.0000   1.0000
     1.0000   1.0000   1.0000   1.0000   1.0000   1.0000   1.0000   1.0000
     1.0000   1.0000   1.0000   1.0000   1.0000   1.0000   1.0000   1.0000
     1.0000   1.0000   1.0000   1.0000   1.0000   1.0000   1.0000   1.0000
     1.0000   1.0000   1.0000   1.0000   1.0000   1.0000   1.0000   1.0000
     1.0000   1.0000   1.0000   1.0000   1.0000   1.0000   1.0000   1.0000
     1.0000   1.0000   1.0000   1.0000   1.0000   1.0000   1.0000   1.0000
     1.0000   1.0000   1.0000   1.0000   1.0000   1.0000   1.0000   1.0000
     1.0000   1.0000   1.0000   1.0000   1.0000   1.0000   1.0000   1.0000
     1.0000   1.0000   1.0000   1.0000   1.0000   1.0000   1.0000   1.0000
     1.0000   1.0000   1.0000   1.0000   1.0000   1.0000   1.0000   1.0000
     1.0000   1.0000   1.0000   1.0000   1.0000   1.0000   1.0000   1.0000
     1.0000   1.0000   1.0000   1.0000   1.0000   1.0000   1.0000   1.0000
     1.0000   1.0000   1.0000   1.0000   1.0000   1.0000   1.0000   1.0000
     1.0000   1.0000   1.0000   1.0000   1.0000   1.0000   1.0000   1.0000
     1.0000   1.0000   1.0000   1.0000   1.0000   1.0000   1.0000   1.0000
     1.0000   1.0000   1.0000   1.0000   1.0000   1.0000   1.0000   1.0000
     1.0000   1.0000   1.0000   1.0000   1.0000   1.0000   1.0000   1.0000
     1.0000   1.0000   1.0000   1.0000   1.0000   1.0000   1.0000   1.0000
     1.0000   1.0000   1.0000   1.0000   1.0000   1.0000   1.0000   1.0000
     1.0000   1.0000   1.0000   1.0000   1.0000   1.0000   1.0000   1.0000
     1.0000   1.0000   1.0000   1.0000   1.0000   1.0000   1.0000   1.0000
     1.0000   1.0000   1.0000   1.0000   1.0000   1.0000   1.0000   1.0000
     1.0000   1.0000   1.0000   1.0000   1.0000   1.0000   1.0000   1.0000
     1.0000   1.0000   1.0000   1.0000   1.0000   1.0000   1.0000   1.0000
     1.0000   1.0000   1.0000   1.0000   1.0000   1.0000   1.0000   1.0000
     1.0000   1.0000   1.0000   1.0000   1.0000   1.0000   1.0000   1.0000
     1.0000   1.0000   1.0000   1.0000   1.0000   0.5000   0.0000   0.0000
     0.0000   0.0000   0.0000   0.0000   0.0000   0.0000   0.0000   0.0000
     0.0000   0.0000   0.0000   0.0000   0.0000   0.0000   0.0000   0.0000
     0.0000   0.0000   0.0000   0.0000   0.0000   0.0000   0.0000   0.0000
     0.0000   0.0000   0.0000   0.0000   0.0000   0.0000   0.0000   0.0000
     0.0000   0.0000   0.0000   0.0000   0.0000   0.0000   0.0000   0.0000
     0.0000   0.0000   0.0000   0.0000   0.0000   0.0000   0.0000   0.0000
     0.0000   0.0000   0.0000   0.0000   0.0000   0.0000   0.0000   0.0000
     0.0000   0.0000   0.0000   0.0000   0.0000   0.0000   0.0000   0.0000
     0.0000   0.0000   0.0000   0.0000   0.0000   0.0000   0.0000   0.0000
     0.0000   0.0000   0.0000   0.0000   0.0000   0.0000   0.0000   0.0000
     0.0000   0.0000   0.0000   0.0000   0.0000   0.0000   0.0000   0.0000
     0.0000   0.0000   0.0000   0.0000   0.0000   0.0000   0.0000   0.0000
     0.0000   0.0000   0.0000   0.0000   0.0000   0.0000   0.0000   0.0000
     0.0000   0.0000   0.0000   0.0000   0.0000   0.0000   0.0000   0.0000
     0.0000   0.0000   0.0000   0.0000   0.0000   0.0000   0.0000   0.0000
     0.0000   0.0000   0.0000   0.0000   0.0000   0.0000   0.0000   0.0000
     0.0000   0.0000   0.0000   0.0000   0.0000   0.0000   0.0000   0.0000
     0.0000   0.0000   0.0000   0.0000   0.0000   0.0000   0.0000   0.0000
     0.0000   0.0000   0.0000   0.0000   0.0000   0.0000   0.0000   0.0000
     0.0000   0.0000   0.0000   0.0000   0.0000   0.0000   0.0000   0.0000
     0.0000   0.0000   0.0000   0.0000   0.0000   0.0000   0.0000   0.0000
     0.0000   0.0000   0.0000   0.0000   0.0000   0.0000   0.0000   0.0000
     0.0000   0.0000   0.0000   0.0000   0.0000   0.0000   0.0000   0.0000
     0.0000   0.0000   0.0000   0.0000   0.0000   0.0000   0.0000   0.0000
     0.0000   0.0000   0.0000   0.0000   0.0000   0.0000   0.0000   0.0000
     0.0000   0.0000   0.0000   0.0000   0.0000   0.0000   0.0000   0.0000
     0.0000   0.0000   0.0000   0.0000   0.0000   0.0000   0.0000   0.0000
     0.0000   0.0000   0.0000   0.0000   0.0000   0.0000   0.0000   0.0000
     0.0000   0.0000   0.0000   0.0000

     the Fermi energy is     4.3055 ev

!    total energy              =  -97467.59751931 Ry
     total all-electron energy =  -3401000.686245 Ry
     estimated scf accuracy    <       0.00000009 Ry
     smearing contrib. (-TS)   =      -0.00564190 Ry
     internal energy E=F+TS    =  -97467.59187742 Ry

     The total energy is F=E-TS. E is the sum of the following terms:
     one-electron contribution =  -17792.68540430 Ry
     hartree contribution      =    9950.35695376 Ry
     xc contribution           =   -6783.16333179 Ry
     ewald contribution        =  -14792.50367641 Ry
     one-center paw contrib.   =  -68049.59641867 Ry
      -> PAW hartree energy AE =      95.94185601 Ry
      -> PAW hartree energy PS =     -96.17914386 Ry
      -> PAW xc energy AE      =    -798.43087593 Ry
      -> PAW xc energy PS      =      33.31142423 Ry
      -> total E_H with PAW    =    9950.11966592 Ry
      -> total E_XC with PAW   =   -7548.28278350 Ry

     convergence has been achieved in  13 iterations


     -----------------------------------------------
     Non-local corr. energy    =      68.73263594 Ry
     -----------------------------------------------


     Forces acting on atoms (cartesian axes, Ry/au):

     atom    1 type  1   force =     0.00000029    0.00344494   -0.00518292
     atom    2 type  1   force =     0.00000589    0.01974559    0.00499157
     atom    3 type  1   force =     0.00000006    0.00031313    0.00120110
     atom    4 type  1   force =    -0.00005578    0.00135087   -0.00157111
     atom    5 type  1   force =    -0.00409770    0.00354990   -0.00132658
     atom    6 type  1   force =    -0.00036348    0.00027248    0.00108910
     atom    7 type  1   force =     0.00114195   -0.00072477   -0.00157011
     atom    8 type  1   force =     0.00102593   -0.00532196   -0.00132547
     atom    9 type  1   force =     0.00005277   -0.00044909    0.00108941
     atom   10 type  1   force =     0.00298562   -0.00172648   -0.00518855
     atom   11 type  1   force =     0.01710748   -0.00987312    0.00499509
     atom   12 type  1   force =     0.00027088   -0.00015576    0.00120179
     atom   13 type  1   force =     0.00427109    0.00246487   -0.00412003
     atom   14 type  1   force =     0.00483662    0.00279133    0.00093016
     atom   15 type  1   force =     0.00055992    0.00032419    0.00097065
     atom   16 type  1   force =     0.00005582    0.00134973   -0.00157167
     atom   17 type  1   force =     0.00409744    0.00354724   -0.00132874
     atom   18 type  1   force =     0.00036246    0.00027179    0.00108876
     atom   19 type  1   force =    -0.00000022    0.00000064   -0.00133359
     atom   20 type  1   force =    -0.00000121   -0.00000031   -0.00016577
     atom   21 type  1   force =    -0.00000102    0.00000043    0.00115823
     atom   22 type  1   force =     0.00119759   -0.00062574   -0.00157020
     atom   23 type  1   force =     0.00512138    0.00177456   -0.00132721
     atom   24 type  1   force =     0.00041523    0.00017938    0.00108879
     atom   25 type  1   force =    -0.00000028   -0.00019056   -0.00099554
     atom   26 type  1   force =    -0.00000180    0.00077311    0.00124455
     atom   27 type  1   force =    -0.00000103    0.00002742    0.00056559
     atom   28 type  1   force =    -0.00016509    0.00009371   -0.00099613
     atom   29 type  1   force =     0.00066908   -0.00038838    0.00124436
     atom   30 type  1   force =     0.00002334   -0.00001345    0.00056527
     atom   31 type  1   force =    -0.00114242   -0.00072567   -0.00157209
     atom   32 type  1   force =    -0.00102540   -0.00532320   -0.00132713
     atom   33 type  1   force =    -0.00005298   -0.00044949    0.00108924
     atom   34 type  1   force =    -0.00119928   -0.00062634   -0.00157154
     atom   35 type  1   force =    -0.00512465    0.00177526   -0.00132701
     atom   36 type  1   force =    -0.00041741    0.00018057    0.00108925
     atom   37 type  1   force =    -0.00426955    0.00246451   -0.00411928
     atom   38 type  1   force =    -0.00483814    0.00279483    0.00092978
     atom   39 type  1   force =    -0.00056062    0.00032526    0.00097117
     atom   40 type  1   force =     0.00016476    0.00009371   -0.00099659
     atom   41 type  1   force =    -0.00066936   -0.00038607    0.00124612
     atom   42 type  1   force =    -0.00002349   -0.00001266    0.00056529
     atom   43 type  1   force =     0.00000055   -0.00493488   -0.00412202
     atom   44 type  1   force =     0.00000246   -0.00558509    0.00093108
     atom   45 type  1   force =     0.00000061   -0.00064577    0.00097132
     atom   46 type  1   force =    -0.00298364   -0.00172542   -0.00518809
     atom   47 type  1   force =    -0.01710013   -0.00987589    0.00499500
     atom   48 type  1   force =    -0.00026986   -0.00015520    0.00120171
     atom   49 type  2   force =     0.00000028    0.00000085   -0.00061858
     atom   50 type  2   force =     0.00000019   -0.00000018    0.00134037
     atom   51 type  2   force =     0.00271175   -0.00222019    0.00011916
     atom   52 type  2   force =     0.00020611   -0.00025275   -0.00082663
     atom   53 type  2   force =     0.00056644   -0.00102406    0.00121767
     atom   54 type  2   force =     0.00119231    0.00069012    0.00091750
     atom   55 type  2   force =     0.00010066    0.00005989   -0.00038066
     atom   56 type  2   force =    -0.00000859   -0.00000477    0.00105578
     atom   57 type  2   force =    -0.00056461    0.00345549    0.00011918
     atom   58 type  2   force =    -0.00011661    0.00030667   -0.00082492
     atom   59 type  2   force =    -0.00060118    0.00099817    0.00121659
     atom   60 type  2   force =    -0.00327431   -0.00123794    0.00011957
     atom   61 type  2   force =    -0.00032280   -0.00005202   -0.00082266
     atom   62 type  2   force =    -0.00116582    0.00002085    0.00121746
     atom   63 type  2   force =    -0.00271182   -0.00222051    0.00011930
     atom   64 type  2   force =    -0.00020668   -0.00025153   -0.00082327
     atom   65 type  2   force =    -0.00056560   -0.00102292    0.00121854
     atom   66 type  2   force =     0.00000091   -0.00037329    0.00011333
     atom   67 type  2   force =    -0.00000010   -0.00018402   -0.00108060
     atom   68 type  2   force =     0.00000065   -0.00033444    0.00080864
     atom   69 type  2   force =    -0.00032380    0.00018672    0.00011464
     atom   70 type  2   force =    -0.00016054    0.00009312   -0.00107892
     atom   71 type  2   force =    -0.00028990    0.00016864    0.00080978
     atom   72 type  2   force =     0.00000014   -0.00137751    0.00091804
     atom   73 type  2   force =    -0.00000098   -0.00011766   -0.00038028
     atom   74 type  2   force =    -0.00000125    0.00001064    0.00105756
     atom   75 type  2   force =    -0.00114722   -0.00066267   -0.00015419
     atom   76 type  2   force =    -0.00014676   -0.00008329   -0.00015182
     atom   77 type  2   force =    -0.00182786   -0.00105735    0.00157294
     atom   78 type  2   force =    -0.00119175    0.00068890    0.00091913
     atom   79 type  2   force =    -0.00010286    0.00005989   -0.00037946
     atom   80 type  2   force =     0.00000944   -0.00000591    0.00105655
     atom   81 type  2   force =     0.00032498    0.00018738    0.00011483
     atom   82 type  2   force =     0.00015967    0.00009263   -0.00107948
     atom   83 type  2   force =     0.00029015    0.00016781    0.00081033
     atom   84 type  2   force =     0.00327575   -0.00123919    0.00011912
     atom   85 type  2   force =     0.00032240   -0.00005165   -0.00082606
     atom   86 type  2   force =     0.00116754    0.00002097    0.00121823
     atom   87 type  2   force =     0.00114749   -0.00066410   -0.00015553
     atom   88 type  2   force =     0.00014680   -0.00008433   -0.00015441
     atom   89 type  2   force =     0.00182683   -0.00105639    0.00157594
     atom   90 type  2   force =    -0.00000041    0.00132395   -0.00015582
     atom   91 type  2   force =    -0.00000052    0.00017090   -0.00015296
     atom   92 type  2   force =    -0.00000099    0.00210941    0.00157335
     atom   93 type  2   force =     0.00056546    0.00345781    0.00011907
     atom   94 type  2   force =     0.00011612    0.00030525   -0.00082477
     atom   95 type  2   force =     0.00060046    0.00099745    0.00121744
     atom   96 type  2   force =     0.00862472   -0.00497758    0.00903003
     atom   97 type  2   force =     0.00224688   -0.00129656   -0.00001222
     atom   98 type  2   force =     0.00015842   -0.00009069   -0.00003499
     atom   99 type  2   force =     0.00013324   -0.00068473    0.00090797
     atom  100 type  2   force =     0.00088760   -0.00051898   -0.00071248
     atom  101 type  2   force =     0.00030033   -0.00009963   -0.00013267
     atom  102 type  2   force =    -0.00052583    0.00045658    0.00090627
     atom  103 type  2   force =    -0.00000675    0.00102849   -0.00071315
     atom  104 type  2   force =     0.00006247    0.00031147   -0.00013362
     atom  105 type  2   force =     0.00000073    0.00994356    0.00902904
     atom  106 type  2   force =    -0.00000500    0.00260081   -0.00001498
     atom  107 type  2   force =    -0.00000090    0.00018210   -0.00003549
     atom  108 type  2   force =    -0.00861705   -0.00497417    0.00903097
     atom  109 type  2   force =    -0.00225030   -0.00129215   -0.00001607
     atom  110 type  2   force =    -0.00015666   -0.00009011   -0.00003472
     atom  111 type  2   force =     0.00000042   -0.00071480    0.00099856
     atom  112 type  2   force =     0.00000047   -0.01291655   -0.00090203
     atom  113 type  2   force =     0.00000050   -0.00011909   -0.00025657
     atom  114 type  2   force =    -0.00025744   -0.00014965    0.00050006
[...]

     ewald   stress (kbar) -14165.69     -0.04      0.02
                               -0.04 -14165.79     -0.02
                                0.02     -0.02 -19009.26

     hubbard stress (kbar)      0.00      0.00      0.00
                                0.00      0.00      0.00
                                0.00      0.00      0.00

     DFT-D   stress (kbar)      0.00      0.00      0.00
                                0.00      0.00      0.00
                                0.00      0.00      0.00

     XDM     stress (kbar)      0.00      0.00      0.00
                                0.00      0.00      0.00
                                0.00      0.00      0.00

     dft-nl  stress (kbar)     82.91      0.00     -0.00
                                0.00     82.91      0.00
                               -0.00      0.00     84.23

     TS-vdW  stress (kbar)      0.00      0.00      0.00
                                0.00      0.00      0.00
                                0.00      0.00      0.00

     MDB     stress (kbar)      0.00      0.00      0.00
                                0.00      0.00      0.00
                                0.00      0.00      0.00

     3D-RISM stress (kbar)      0.00      0.00      0.00
                                0.00      0.00      0.00
                                0.00      0.00      0.00

     Energy error            =      7.2E-04 Ry
     Gradient error          =      5.6E-03 Ry/Bohr

     number of scf cycles    =   9
     number of bfgs steps    =   8

     energy             old  =  -97467.6226424478 Ry
     energy             new  =  -97467.6233639888 Ry

     CASE: energy            _new < energy            _old

     new trust radius        =       0.0283020204 bohr
     new conv_thr            =       0.0000000056 Ry


ATOMIC_POSITIONS (angstrom)
Pb            2.3558224650        4.1652703339       22.0577566959
Pb            2.3557257044        3.9603075460        7.4674636682
Pb            2.3557566317        4.0839298491       14.7683653961
Pb            0.0100536941        8.1959318358       22.1392221085
Pb           -0.0007818762        8.1482557745        7.3555288742
Pb            0.0023716733        8.1633528145       14.7576450699
Pb           -2.3192042764       12.2303528968       22.1392433723
Pb           -2.3658405734       12.2446321272        7.3554377558
Pb           -2.3513451712       12.2401018651       14.7576244515
Pb           -4.6369239303       16.2769735192       22.0575165107
Pb           -4.8141451964       16.3793186076        7.4677816381
Pb           -4.7075274344       16.3178937160       14.7683443105
Pb            7.1763688634        4.1427790341       22.1251697069
Pb            7.0883431213        4.0920044065        7.3899182972
Pb            7.0667781377        4.0796056153       14.7579441124
Pb            4.7014641637        8.1959536482       22.1392013123
Pb            4.7123000208        8.1482696642        7.3554580441
Pb            4.7091230339        8.1633450004       14.7576202969
Pb            2.3557481898       12.2398996542       22.1227357801
Pb            2.3557451935       12.2398181432        7.3459997459
Pb            2.3557400395       12.2398965486       14.7536123048
Pb            0.0265075662       16.2932969146       22.1392408547
Pb           -0.0092212746       16.3264691357        7.3554988605
Pb            0.0020274582       16.3162635370       14.7575999185
Pb           11.7783149693        4.0435977959       22.1902772347
Pb           11.7783113118        4.0732285959        7.3939572970
Pb           11.7782797308        4.0774673460       14.7579569721
Pb            9.3913953929        8.1777870832       22.1901891427
Pb            9.4170204983        8.1629925997        7.3938888432
Pb            9.4206811070        8.1609600485       14.7579454333
Pb            7.0307259750       12.2303598491       22.1392156513
Pb            7.0773325960       12.2447270899        7.3554900568
Pb            7.0628373368       12.2400974773       14.7576549894
Pb            4.6850338923       16.2933053429       22.1392357517
Pb            4.7208288005       16.3264065018        7.3556223198
Pb            4.7094533498       16.3162618592       14.7576564978
Pb           16.3802826030        4.1427740788       22.1252619368
Pb           16.4682365106        4.0919781991        7.3900501619
Pb           16.4897985861        4.0796079148       14.7580364177
Pb           14.1652333714        8.1777832835       22.1902484404
Pb           14.1395359902        8.1629564674        7.3939302044
Pb           14.1358912409        8.1609668415       14.7579718426
Pb           11.7783245137       12.1134548233       22.1249861153
Pb           11.7782659419       12.2151359113        7.3898407943
Pb           11.7782872020       12.2401835285       14.7580023979
Pb            9.3485289086       16.2769470566       22.0575784422
Pb            9.5259475765       16.3795191747        7.4675426303
Pb            9.4190373517       16.3178948605       14.7683896312
I             2.3557171574        1.3597623041       12.8993118349
I             2.3557451450        1.3597075489       20.3035456232
I             0.0666085412        5.3423706535        5.5164192626
I             0.0022194026        5.4428160136       12.8786081224
I             0.0167064603        5.3984869299       20.2824627342
I            -2.3554353540        9.5198628907        5.4858310011
I            -2.3574691305        9.5188175972       12.8749574539
I            -2.3581216131        9.5183642283       20.2641702000
I            -4.7620917529       13.7059928928        5.5163661565
I            -4.7075408817       13.6003659865       12.8785700176
I            -4.7383682920       13.6344767504       20.2822942378
I             6.9496104211        1.3506987704        5.5164586259
I             7.0684959915        1.3564160804       12.8785326882
I             7.0232892303        1.3659411525       20.2823648472
I             4.6448321219        5.3423503149        5.5163442329
I             4.7092039413        5.4428287579       12.8785577448
I             4.6948264211        5.3985480456       20.2824085853
I             2.3557046961        9.5138693824        5.4730595569
I             2.3557163212        9.5184398560       12.8614885917
I             2.3557200996        9.5164142663       20.2568235595
I            -0.0050568019       13.6029461262        5.4730537122
I            -0.0011970462       13.6007288139       12.8614762268
I            -0.0029272116       13.6017362680       20.2568309315
I            11.7782709067        1.3596065854        5.4858808138
I            11.7782686184        1.3619757642       12.8749486980
I            11.7782796734        1.3627520739       20.2641690681
I             9.3976142767        5.4252765945        5.4937942743
I             9.4243679073        5.4408539749       12.8770908940
I             9.3661743559        5.4069855628       20.2726214468
I             7.0669000985        9.5198595002        5.4858076853
I             7.0689096259        9.5188309922       12.8749524374
I             7.0695969855        9.5183692693       20.2641417839
I             4.7165026654       13.6029669422        5.4730678525
I             4.7126364728       13.6007321011       12.8615223869
I             4.7143797718       13.6017436038       20.2568291618
I            16.6070087120        1.3506943783        5.5165262188
I            16.4880289863        1.3564266848       12.8786210770
I            16.5334510732        1.3659557006       20.2824250174
I            14.1590594217        5.4252183478        5.4938179030
I            14.1321754258        5.4408461930       12.8771483518
I            14.1905721705        5.4069646420       20.2726679099
I            11.7782870464        9.5486110213        5.4937547615
I            11.7782649321        9.5179367435       12.8771190224
I            11.7783547692        9.5848076185       20.2725500273
I             9.4735967557       13.7060894879        5.5163600256
I             9.4189749740       13.6003757949       12.8786081230
I             9.4499271575       13.6345470913       20.2822982037
I             0.0774734967        2.6747200828        2.1199839597
I             0.0087053626        2.7147055139        9.3503501897
I            -0.0015936115        2.7207712388       16.6542688640
I            -2.3607425274        6.8015214907        1.9069493948
I            -2.3451707241        6.8017408534        9.2551324206
I            -2.3510090860        6.7995596868       16.6525505976
I            -4.7123416632       10.8744434168        1.9068463164
I            -4.7043517285       10.8878961632        9.2550049039
I            -4.7091832462       10.8840209689       16.6525247481
I            -7.0667039071       15.0487457561        2.1195455961
I            -7.0668147443       14.9697412666        9.3503014837
I            -7.0667876937       14.9580532822       16.6542621873
I             4.6342275447        2.6747407291        2.1197842812
I             4.7028125546        2.7147482649        9.3502880697
I             4.7130905660        2.7207658389       16.6542312545
I             2.3557465356        6.8026737132        1.8894509819
I             2.3557560252        6.6648669901        9.1951805524
I             2.3557338581        6.8054764060       16.6556786398
I            -0.0021464208       10.8785420015        1.8896987293
I            -0.0163844550       10.8702969079        9.2178117982
I             0.0038479920       10.8821248755       16.6497737956
I            -2.3530706085       14.9585786617        1.8894287604
I            -2.4722041389       15.0272346427        9.1952638292
I            -2.3506768856       14.9572204712       16.6556566102
I             9.4267571453        2.7234871611        1.9069320196
I             9.4191184930        2.7098282407        9.2550730975
I             9.4200756963        2.7160086889       16.6524948717
I             7.0722350452        6.8015257711        1.9068561814
I             7.0566189773        6.8017361507        9.2550507274
I             7.0624682884        6.7995253299       16.6525107082
I             4.7136314545       10.8785612651        1.8896779030
I             4.7278585660       10.8702691255        9.2177891302
I             4.7075832020       10.8821079464       16.6497714332
I             2.3557578630       14.9626499245        1.8897151861
I             2.3557144355       14.9789080975        9.2178744040
I             2.3557005521       14.9556674399       16.6497662705
I            14.1298054922        2.7234574585        1.9069791062
I            14.1374112404        2.7098099192        9.2551678277
I            14.1364154170        2.7160122761       16.6525368608
I            11.7782650988        6.7998492801        1.8885308744
I            11.7782584479        6.7998488716        9.2506011932
I            11.7782551370        6.7998566605       16.6671952445
I             9.4238041756       10.8744535774        1.9068001777
I             9.4157902731       10.8879081285        9.2550187081
I             9.4206466005       10.8840006338       16.6525315606
I             7.0645437346       14.9585639259        1.8894286947
I             7.1836568385       15.0271970003        9.1952509985
I             7.0621315698       14.9572138336       16.6556939176
Pb            2.3558333672        1.3592258396        3.7714099530



     Writing config-only to output data dir ./PbI2.save/
     NEW-OLD atomic charge density approx. for the potential

     Check: negative core charge=   -0.000001


     -----------------------------------------------
     Non-local corr. energy    =      68.73165246 Ry
     -----------------------------------------------


     total cpu time spent up to now is    82022.1 secs

     Self-consistent Calculation

     iteration #  1     ecut=    70.00 Ry     beta= 0.70
     Davidson diagonalization with overlap

---- Real-time Memory Report at c_bands before calling an iterative solver
          2061 MiB given to the printing process from OS
             0 MiB allocation reported by mallinfo(arena+hblkhd)
       2003371 MiB available memory on the node where the printing process lives
------------------
     ethr =  1.00E-06,  avg # of iterations =  5.0

     Threshold (ethr) on eigenvalues was too large:
     Diagonalizing with lowered threshold

     Davidson diagonalization with overlap

---- Real-time Memory Report at c_bands before calling an iterative solver
          2061 MiB given to the printing process from OS
             0 MiB allocation reported by mallinfo(arena+hblkhd)
       1990316 MiB available memory on the node where the printing process lives
------------------
     ethr =  1.60E-08,  avg # of iterations = 15.0


     -----------------------------------------------
     Non-local corr. energy    =      68.72961273 Ry
     -----------------------------------------------


     total cpu time spent up to now is    83202.6 secs

     total energy              =  -97467.62424423 Ry
     estimated scf accuracy    <       0.00039164 Ry

     iteration #  2     ecut=    70.00 Ry     beta= 0.70
     Davidson diagonalization with overlap

---- Real-time Memory Report at c_bands before calling an iterative solver
          2061 MiB given to the printing process from OS
             0 MiB allocation reported by mallinfo(arena+hblkhd)
       1990312 MiB available memory on the node where the printing process lives
------------------
     ethr =  1.70E-08,  avg # of iterations = 16.0


     -----------------------------------------------
     Non-local corr. energy    =      68.73009802 Ry
     -----------------------------------------------


     total cpu time spent up to now is    84180.7 secs

     total energy              =  -97467.62414019 Ry
     estimated scf accuracy    <       0.00214113 Ry

     iteration #  3     ecut=    70.00 Ry     beta= 0.70
     Davidson diagonalization with overlap

---- Real-time Memory Report at c_bands before calling an iterative solver
          2061 MiB given to the printing process from OS
             0 MiB allocation reported by mallinfo(arena+hblkhd)
       1990316 MiB available memory on the node where the printing process lives
------------------
     ethr =  1.70E-08,  avg # of iterations = 19.0


     -----------------------------------------------
     Non-local corr. energy    =      68.73064739 Ry
     -----------------------------------------------


     total cpu time spent up to now is    85176.7 secs

     total energy              =  -97467.62443014 Ry
     estimated scf accuracy    <       0.00031969 Ry

     iteration #  4     ecut=    70.00 Ry     beta= 0.70
     Davidson diagonalization with overlap

---- Real-time Memory Report at c_bands before calling an iterative solver
          2061 MiB given to the printing process from OS
             0 MiB allocation reported by mallinfo(arena+hblkhd)
       1990311 MiB available memory on the node where the printing process lives
------------------
     ethr =  1.39E-08,  avg # of iterations = 20.0


     -----------------------------------------------
     Non-local corr. energy    =      68.73091116 Ry
     -----------------------------------------------


     total cpu time spent up to now is    85816.3 secs

     total energy              =  -97467.62445126 Ry
     estimated scf accuracy    <       0.00003269 Ry

     iteration #  5     ecut=    70.00 Ry     beta= 0.70
     Davidson diagonalization with overlap

---- Real-time Memory Report at c_bands before calling an iterative solver
          2061 MiB given to the printing process from OS
             0 MiB allocation reported by mallinfo(arena+hblkhd)
       1990310 MiB available memory on the node where the printing process lives
------------------
     ethr =  1.42E-09,  avg # of iterations = 19.0


     -----------------------------------------------
     Non-local corr. energy    =      68.73125461 Ry
     -----------------------------------------------


     total cpu time spent up to now is    86557.1 secs

     total energy              =  -97467.62444067 Ry
     estimated scf accuracy    <       0.00001393 Ry

     iteration #  6     ecut=    70.00 Ry     beta= 0.70
     Davidson diagonalization with overlap

---- Real-time Memory Report at c_bands before calling an iterative solver
          2061 MiB given to the printing process from OS
             0 MiB allocation reported by mallinfo(arena+hblkhd)
       1990300 MiB available memory on the node where the printing process lives
------------------
     c_bands:  2 eigenvalues not converged
     ethr =  6.06E-10,  avg # of iterations = 20.0


     -----------------------------------------------
     Non-local corr. energy    =      68.73158259 Ry
     -----------------------------------------------


     total cpu time spent up to now is    87293.9 secs

     total energy              =  -97467.62443645 Ry
     estimated scf accuracy    <       0.00000771 Ry

     iteration #  7     ecut=    70.00 Ry     beta= 0.70
     Davidson diagonalization with overlap

---- Real-time Memory Report at c_bands before calling an iterative solver
          2061 MiB given to the printing process from OS
             0 MiB allocation reported by mallinfo(arena+hblkhd)
       1990292 MiB available memory on the node where the printing process lives
------------------
     c_bands:  2 eigenvalues not converged
     ethr =  3.35E-10,  avg # of iterations = 20.0


     -----------------------------------------------
     Non-local corr. energy    =      68.73166262 Ry
     -----------------------------------------------


     total cpu time spent up to now is    88038.2 secs

     total energy              =  -97467.62443685 Ry
     estimated scf accuracy    <       0.00000337 Ry

     iteration #  8     ecut=    70.00 Ry     beta= 0.70
     Davidson diagonalization with overlap

---- Real-time Memory Report at c_bands before calling an iterative solver
          2061 MiB given to the printing process from OS
             0 MiB allocation reported by mallinfo(arena+hblkhd)
       1990291 MiB available memory on the node where the printing process lives
------------------
     c_bands:  2 eigenvalues not converged
     ethr =  1.46E-10,  avg # of iterations = 20.0


     -----------------------------------------------
     Non-local corr. energy    =      68.73170760 Ry
     -----------------------------------------------


     total cpu time spent up to now is    88740.5 secs

     total energy              =  -97467.62443740 Ry
     estimated scf accuracy    <       0.00000083 Ry

     iteration #  9     ecut=    70.00 Ry     beta= 0.70
     Davidson diagonalization with overlap

---- Real-time Memory Report at c_bands before calling an iterative solver
          2061 MiB given to the printing process from OS
             0 MiB allocation reported by mallinfo(arena+hblkhd)
       1990210 MiB available memory on the node where the printing process lives
------------------
     c_bands:  2 eigenvalues not converged
     ethr =  3.60E-11,  avg # of iterations = 20.0


     -----------------------------------------------
     Non-local corr. energy    =      68.73173217 Ry
     -----------------------------------------------


     total cpu time spent up to now is    89462.0 secs

     total energy              =  -97467.62443757 Ry
     estimated scf accuracy    <       0.00000005 Ry

     iteration # 10     ecut=    70.00 Ry     beta= 0.70
     Davidson diagonalization with overlap

---- Real-time Memory Report at c_bands before calling an iterative solver
          2061 MiB given to the printing process from OS
             0 MiB allocation reported by mallinfo(arena+hblkhd)
       1990094 MiB available memory on the node where the printing process lives
------------------
