
     Program PWSCF v.7.1 starts on 28Mar2024 at 14:25:39 

     This program is part of the open-source Quantum ESPRESSO suite
     for quantum simulation of materials; please cite
         "P. Giannozzi et al., J. Phys.:Condens. Matter 21 395502 (2009);
         "P. Giannozzi et al., J. Phys.:Condens. Matter 29 465901 (2017);
         "P. Giannozzi et al., J. Chem. Phys. 152 154105 (2020);
          URL http://www.quantum-espresso.org", 
     in publications or presentations arising from this work. More details at
     http://www.quantum-espresso.org/quote

     Parallel version (MPI & OpenMP), running on      20 processor cores
     Number of MPI processes:                20
     Threads/MPI process:                     1

     MPI processes distributed on     1 nodes
     1890322 MiB available memory on the printing compute node when the environment starts
 
     Reading input from espresso.pwi
Warning: card &CELL ignored
Warning: card    CELL_DYNAMICS    = 'BFGS' ignored
Warning: card / ignored

     Current dimensions of program PWSCF are:
     Max number of different atomic species (ntypx) = 10
     Max number of k-points (npk) =  40000
     Max angular momentum in pseudopotentials (lmaxx) =  4
     file Pb.pbe-dn-kjpaw_psl.1.0.0.UPF: wavefunction(s)  6S 6P 5D renormalized
     file I.pbe-dn-kjpaw_psl.1.0.0.UPF: wavefunction(s)  5S 5P renormalized

     **************************************************************************
     Initializing libbeef V0.1.2 with the BEEF-vdW functional.
     Citation: Wellendorff et al., PRB 85, 235149 (2012).
     **************************************************************************


     IMPORTANT: XC functional enforced from input :
     Exchange-correlation= BEEF-VDW
                           (   1   4  43  14   2   0   0)
     Any further DFT definition will be discarded
     Please, verify this is what you really want

 
     R & G space division:  proc/nbgrp/npool/nimage =      20
     Subspace diagonalization in iterative solution of the eigenvalue problem:
     a serial algorithm will be used

 
     Parallelization info
     --------------------
     sticks:   dense  smooth     PW     G-vecs:    dense   smooth      PW
     Min         381     306     80                42326    30292    4074
     Max         383     307     81                42331    30298    4079
     Sum        7639    6121   1615               846533   605897   81527
 
     Using Slab Decomposition
 


     bravais-lattice index     =            4
     lattice parameter (alat)  =      17.8060  a.u.
     unit-cell volume          =    7656.2263 (a.u.)^3
     number of atoms/cell      =           24
     number of atomic types    =            2
     number of electrons       =       380.00
     number of Kohn-Sham states=          228
     kinetic-energy cutoff     =      70.0000  Ry
     charge density cutoff     =     350.0000  Ry
     scf convergence threshold =      1.0E-07
     mixing beta               =       0.7000
     number of iterations used =            8  plain     mixing
     Exchange-correlation= BEEF-VDW
                           (   1   4  43  14   2   0   0)

     celldm(1)=  17.806016  celldm(2)=   0.000000  celldm(3)=   1.565971
     celldm(4)=   0.000000  celldm(5)=   0.000000  celldm(6)=   0.000000

     crystal axes: (cart. coord. in units of alat)
               a(1) = (   1.000000   0.000000   0.000000 )  
               a(2) = (  -0.500000   0.866025   0.000000 )  
               a(3) = (   0.000000   0.000000   1.565971 )  

     reciprocal axes: (cart. coord. in units 2 pi/alat)
               b(1) = (  1.000000  0.577350 -0.000000 )  
               b(2) = (  0.000000  1.154701  0.000000 )  
               b(3) = (  0.000000 -0.000000  0.638581 )  


     PseudoPot. # 1 for Pb read from file:
     /trace/group/acmegroup/atimmins/packages/espresso/pseudo/psl_1.0.0/pslibrary.1.0.0/pbe/PSEUDOPOTENTIALS/Pb.pbe-dn-kjpaw_psl.1.0.0.UPF
     MD5 check sum: 39ab5b8a6bbd56b7735ad9f188aac93a
     Pseudo is Projector augmented-wave + core cor, Zval = 14.0
     Generated using 'atomic' code by A. Dal Corso  v.7.1
     Shape of augmentation charge: PSQ
     Using radial grid of 1281 points,  6 beta functions with: 
                l(1) =   0
                l(2) =   0
                l(3) =   1
                l(4) =   1
                l(5) =   2
                l(6) =   2
     Q(r) pseudized with 0 coefficients 


     PseudoPot. # 2 for I  read from file:
     /trace/group/acmegroup/atimmins/packages/espresso/pseudo/psl_1.0.0/pslibrary.1.0.0/pbe/PSEUDOPOTENTIALS/I.pbe-dn-kjpaw_psl.1.0.0.UPF
     MD5 check sum: bfa8781bc1224d19af3f3980e3fab11e
     Pseudo is Projector augmented-wave + core cor, Zval = 17.0
     Generated using 'atomic' code by A. Dal Corso  v.7.1
     Shape of augmentation charge: PSQ
     Using radial grid of 1247 points,  6 beta functions with: 
                l(1) =   0
                l(2) =   0
                l(3) =   1
                l(4) =   1
                l(5) =   2
                l(6) =   2
     Q(r) pseudized with 0 coefficients 


     atomic species   valence    mass     pseudopotential
        Pb            14.00   207.20000     Pb( 1.00)
        I             17.00   126.90447     I ( 1.00)

     No symmetry found


                                    s                        frac. trans.

      isym =  1     identity                                     

 cryst.   s( 1) = (     1          0          0      )
                  (     0          1          0      )
                  (     0          0          1      )

 cart.    s( 1) = (  1.0000000  0.0000000  0.0000000 )
                  (  0.0000000  1.0000000  0.0000000 )
                  (  0.0000000  0.0000000  1.0000000 )


     point group C_1 (1)    
     there are  1 classes
     the character table:

       E    
A      1.00

     the symmetry operations in each class and the name of the first element:

     E        1
          identity                                               

   Cartesian axes

     site n.     atom                  positions (alat units)
         1           Pb  tau(   1) = (   0.2500170   0.4329745   1.5659650  )
         2           Pb  tau(   2) = (   0.2500068   0.4329836   0.7829793  )
         3           Pb  tau(   3) = (   0.0000153   0.8659852   1.5659567  )
         4           Pb  tau(   4) = (   0.0000051   0.8659943   0.7829710  )
         5           Pb  tau(   5) = (   0.7500170   0.4329726   1.5659715  )
         6           Pb  tau(   6) = (   0.7500068   0.4329816   0.7829858  )
         7           Pb  tau(   7) = (   0.5000153   0.8659833   1.5659633  )
         8           Pb  tau(   8) = (   0.5000051   0.8659923   0.7829776  )
         9           I   tau(   9) = (   0.2500209   0.1443009   1.3648506  )
        10           I   tau(  10) = (   0.0000091   0.5773207   0.5818567  )
        11           I   tau(  11) = (   0.0000193   0.5773116   1.3648424  )
        12           I   tau(  12) = (   0.7500107   0.1443080   0.5818714  )
        13           I   tau(  13) = (   0.7500209   0.1442990   1.3648571  )
        14           I   tau(  14) = (   0.5000091   0.5773187   0.5818632  )
        15           I   tau(  15) = (   0.5000193   0.5773097   1.3648489  )
        16           I   tau(  16) = (  -0.0000034   0.2886595   0.2011110  )
        17           I   tau(  17) = (   0.0000068   0.2886504   0.9840967  )
        18           I   tau(  18) = (  -0.2500051   0.7216702   0.2011027  )
        19           I   tau(  19) = (  -0.2499949   0.7216611   0.9840884  )
        20           I   tau(  20) = (   0.4999966   0.2886575   0.2011175  )
        21           I   tau(  21) = (   0.5000068   0.2886485   0.9841032  )
        22           I   tau(  22) = (   0.2499949   0.7216682   0.2011092  )
        23           I   tau(  23) = (   0.2500051   0.7216592   0.9840949  )
        24           Pb  tau(  24) = (   0.2500107   0.1443099   0.5818649  )

   Crystallographic axes

     site n.     atom                  positions (cryst. coord.)
         1           Pb  tau(   1) = (  0.4999949  0.4999559  0.9999959  )
         2           Pb  tau(   2) = (  0.4999900  0.4999663  0.4999959  )
         3           Pb  tau(   3) = (  0.4999921  0.9999536  0.9999906  )
         4           Pb  tau(   4) = (  0.4999871  0.9999640  0.4999906  )
         5           Pb  tau(   5) = (  0.9999938  0.4999537  1.0000001  )
         6           Pb  tau(   6) = (  0.9999888  0.4999641  0.5000001  )
         7           Pb  tau(   7) = (  0.9999910  0.9999514  0.9999948  )
         8           Pb  tau(   8) = (  0.9999860  0.9999618  0.4999948  )
         9           I   tau(   9) = (  0.3333331  0.1666243  0.8715680  )
        10           I   tau(  10) = (  0.3333253  0.6666325  0.3715628  )
        11           I   tau(  11) = (  0.3333303  0.6666220  0.8715628  )
        12           I   tau(  12) = (  0.8333270  0.1666326  0.3715722  )
        13           I   tau(  13) = (  0.8333320  0.1666221  0.8715722  )
        14           I   tau(  14) = (  0.8333242  0.6666303  0.3715669  )
        15           I   tau(  15) = (  0.8333292  0.6666198  0.8715669  )
        16           I   tau(  16) = (  0.1666542  0.3333152  0.1284257  )
        17           I   tau(  17) = (  0.1666592  0.3333048  0.6284257  )
        18           I   tau(  18) = (  0.1666514  0.8333129  0.1284204  )
        19           I   tau(  19) = (  0.1666564  0.8333025  0.6284204  )
        20           I   tau(  20) = (  0.6666531  0.3333130  0.1284299  )
        21           I   tau(  21) = (  0.6666581  0.3333026  0.6284299  )
        22           I   tau(  22) = (  0.6666503  0.8333107  0.1284246  )
        23           I   tau(  23) = (  0.6666553  0.8333003  0.6284246  )
        24           Pb  tau(  24) = (  0.3333281  0.1666348  0.3715680  )

     number of k points=     4  Gaussian smearing, width (Ry)=  0.0100
                       cart. coord. in units 2pi/alat
        k(    1) = (   0.0000000   0.0000000   0.0000000), wk =   0.5000000
        k(    2) = (   0.0000000  -0.5773503   0.0000000), wk =   0.5000000
        k(    3) = (   0.5000000  -0.2886751   0.0000000), wk =   0.5000000
        k(    4) = (  -0.5000000  -0.2886751   0.0000000), wk =   0.5000000

                       cryst. coord.
        k(    1) = (   0.0000000   0.0000000   0.0000000), wk =   0.5000000
        k(    2) = (   0.0000000  -0.5000000   0.0000000), wk =   0.5000000
        k(    3) = (   0.5000000  -0.5000000   0.0000000), wk =   0.5000000
        k(    4) = (  -0.5000000  -0.0000000   0.0000000), wk =   0.5000000

     Dense  grid:   846533 G-vectors     FFT dimensions: ( 108, 108, 180)

     Smooth grid:   605897 G-vectors     FFT dimensions: (  96,  96, 150)

     Dynamical RAM for                 wfc:      13.17 MB

     Dynamical RAM for     wfc (w. buffer):      65.86 MB

     Dynamical RAM for           str. fact:       1.29 MB

     Dynamical RAM for           local pot:       0.00 MB

     Dynamical RAM for          nlocal pot:      24.96 MB

     Dynamical RAM for                qrad:       3.00 MB

     Dynamical RAM for          rho,v,vnew:       4.34 MB

     Dynamical RAM for               rhoin:       1.45 MB

     Dynamical RAM for            rho*nmix:      10.33 MB

     Dynamical RAM for           G-vectors:       2.65 MB

     Dynamical RAM for          h,s,v(r/c):      38.07 MB

     Dynamical RAM for          <psi|beta>:       1.50 MB

     Dynamical RAM for                 psi:      52.69 MB

     Dynamical RAM for                hpsi:      52.69 MB

     Dynamical RAM for                spsi:      52.69 MB

     Dynamical RAM for      wfcinit/wfcrot:      27.53 MB

     Dynamical RAM for           addusdens:     129.83 MB

     Dynamical RAM for          addusforce:     148.30 MB

     Dynamical RAM for         addusstress:     129.83 MB

     Estimated static dynamical RAM per process >     109.49 MB

     Estimated max dynamical RAM per process >     317.46 MB

     Estimated total dynamical RAM >       6.20 GB

     Atomic positions and unit cell read from directory:
     ./PbI2.save/
     Atomic positions from file used, from input discarded
 

     Check: negative core charge=   -0.000001

     The initial density is read from file :
     ./PbI2.save/charge-density



     %%%%%%%%%%%%%%%%%%%%%%%%%%%%%%%%%%%%%%%%%%%%%%%%%%%%%%%%%%%%%%%%%%%%%%%%
     %                                                                      %
     % You are using vdW-DF, which was implemented by the Thonhauser group. %
     % Please cite the following two papers that made this development      %
     % possible and the two reviews that describe the various versions:     %
     %                                                                      %
     %   T. Thonhauser et al., PRL 115, 136402 (2015).                      %
     %   T. Thonhauser et al., PRB 76, 125112 (2007).                       %
     %   K. Berland et al., Rep. Prog. Phys. 78, 066501 (2015).             %
     %   D.C. Langreth et al., J. Phys.: Condens. Matter 21, 084203 (2009). %
     %                                                                      %
     % If you are calculating stress with vdW-DF, please also cite:         %
     %                                                                      %
     %   R. Sabatini et al., J. Phys.: Condens. Matter 24, 424209 (2012).   %
     %                                                                      %
     %%%%%%%%%%%%%%%%%%%%%%%%%%%%%%%%%%%%%%%%%%%%%%%%%%%%%%%%%%%%%%%%%%%%%%%%

     %%%%%%%%%%%%%%%%%%%%%%%%%%%%%%%%%%%%%%%%%%%%%%%%%%%%%%%%%%%%%%%%%%%%%%%%
     %                                                                      %
     %  vdW-DF NEWS:                                                        %
     %                                                                      %
     %  * vdW-DF3 is now available. DOI: 10.1021/acs.jctc.0c00471           %
     %    use with input_dft = 'vdW-DF3-opt1' or 'vdW-DF3-opt2'             %
     %                                                                      %
     %  * Unscreened and range-separated vdW-DF hybrid functionals          %
     %    DOI: 10.1063/1.4986522 and 10.1088/1361-648X/ac2ad2               %
     %    use with input_dft = 'vdW-DF-cx0' (etc) and 'vdW-DF-ahcx'         %
     %                                                                      %
     %%%%%%%%%%%%%%%%%%%%%%%%%%%%%%%%%%%%%%%%%%%%%%%%%%%%%%%%%%%%%%%%%%%%%%%%


     Carrying out vdW-DF run using the following parameters:
     Nqs    =  20  Npoints =  1024  r_max =  100.000
     q_mesh =  0.00001000  0.04494208  0.09755937  0.15916263
               0.23128650  0.31572767  0.41458969  0.53033537
               0.66584808  0.82450364  1.01025438  1.22772762
               1.48234092  1.78043706  2.12944203  2.53805004
               3.01644009  3.57652955  4.23227104  5.00000000


     -----------------------------------------------
     Non-local corr. energy    =      11.19619768 Ry
     -----------------------------------------------

     Starting wfcs from file
     Checking if some PAW data can be deallocated... 
       PAW data deallocated on   15 nodes for type:  1
       PAW data deallocated on    5 nodes for type:  2

     total cpu time spent up to now is        7.9 secs

     Self-consistent Calculation

     iteration #  1     ecut=    70.00 Ry     beta= 0.70
     Davidson diagonalization with overlap

---- Real-time Memory Report at c_bands before calling an iterative solver
           374 MiB given to the printing process from OS
             0 MiB allocation reported by mallinfo(arena+hblkhd)
       1886768 MiB available memory on the node where the printing process lives
------------------
     ethr =  1.00E-05,  avg # of iterations =  1.0

     Threshold (ethr) on eigenvalues was too large:
     Diagonalizing with lowered threshold

     Davidson diagonalization with overlap

---- Real-time Memory Report at c_bands before calling an iterative solver
           472 MiB given to the printing process from OS
             0 MiB allocation reported by mallinfo(arena+hblkhd)
       1886057 MiB available memory on the node where the printing process lives
------------------
     c_bands:  1 eigenvalues not converged
     ethr =  4.93E-13,  avg # of iterations = 12.0


     -----------------------------------------------
     Non-local corr. energy    =      11.19619930 Ry
     -----------------------------------------------


     total cpu time spent up to now is       42.7 secs

     End of self-consistent calculation

          k = 0.0000 0.0000 0.0000 ( 75645 PWs)   bands (ev):

   -41.1387 -41.1368 -41.1345 -41.1226 -41.1212 -41.1208 -41.1194 -41.1185
   -41.1172 -41.0734 -41.0731 -41.0718 -41.0714 -41.0697 -41.0693 -41.0540
   -41.0524 -41.0508 -41.0503 -41.0492 -41.0478 -41.0472 -41.0463 -41.0442
   -41.0377 -41.0370 -41.0362 -41.0355 -41.0344 -41.0337 -40.8118 -40.8117
   -40.8111 -40.8111 -40.8107 -40.8063 -40.8063 -40.8012 -40.8012 -40.7990
   -40.5240 -40.5238 -40.5235 -40.5226 -40.5224 -40.5221 -40.5051 -40.5049
   -40.5047 -40.5046 -40.5045 -40.5044 -40.4994 -40.4992 -40.4991 -40.4148
   -40.4143 -40.4143 -40.4138 -40.4138 -40.4133 -40.3942 -40.3936 -40.3935
   -40.3930 -40.3929 -40.3924 -40.3867 -40.3860 -40.3854 -40.3222 -40.3222
   -40.3002 -40.2993 -40.2925 -13.2832 -13.2831 -13.1477 -13.1472 -13.1294
   -13.1291 -13.1236 -13.0785 -13.0785 -13.0670 -13.0663 -13.0577 -13.0540
   -13.0518 -13.0495 -13.0488 -13.0378 -13.0374 -13.0367 -13.0338 -13.0333
   -13.0272 -13.0269 -13.0264 -13.0011 -12.5692 -12.5691 -12.5530 -12.5522
   -12.5522 -12.4999 -12.4979 -12.4820 -12.4786 -12.4752 -12.4731 -12.4651
   -12.4617 -12.4596 -12.4579 -12.4524 -12.4498 -12.4480 -12.4460 -12.4453
    -8.2786  -7.9451  -7.8806  -7.8786  -7.7729  -7.7709  -7.6551  -7.6414
    -7.5809  -7.2969  -7.2967  -7.2932  -7.1544  -7.1539  -7.0452  -3.9121
    -3.7557  -3.7551  -3.6424  -3.2993  -3.2185  -3.1280  -3.1244  -2.7934
     0.7534   0.7536   0.8146   1.4592   1.5099   1.5101   1.6010   1.6024
     1.7710   1.7741   1.7744   1.8181   2.1795   2.1815   2.2019   2.3217
     2.3319   2.3326   2.3394   2.5278   2.5281   2.5616   2.5626   2.5874
     2.5885   2.6009   2.6173   2.6178   2.6350   2.6836   2.7326   2.8230
     2.8232   3.1673   3.1700   3.1861   3.1955   3.1956   3.2460   3.2670
     3.2673   3.3230   3.3771   3.3774   3.5501   5.0325   5.5845   5.5877
     5.8927   6.4434   6.5545   6.5550   6.6483   6.6840   6.6841   6.9822
     7.0979   7.0981   7.1583   7.1773   7.1779   7.3515   7.3515   7.4485
     7.4489   7.7871   7.7875   7.8165   7.8712   8.0268   8.1271   8.1282
     9.1843   9.1850   9.2624   9.9584  10.0408  10.0412  10.0945  10.5024
    10.8759  11.1045  11.1051  11.2865

     occupation numbers 
     1.0000   1.0000   1.0000   1.0000   1.0000   1.0000   1.0000   1.0000
     1.0000   1.0000   1.0000   1.0000   1.0000   1.0000   1.0000   1.0000
     1.0000   1.0000   1.0000   1.0000   1.0000   1.0000   1.0000   1.0000
     1.0000   1.0000   1.0000   1.0000   1.0000   1.0000   1.0000   1.0000
     1.0000   1.0000   1.0000   1.0000   1.0000   1.0000   1.0000   1.0000
     1.0000   1.0000   1.0000   1.0000   1.0000   1.0000   1.0000   1.0000
     1.0000   1.0000   1.0000   1.0000   1.0000   1.0000   1.0000   1.0000
     1.0000   1.0000   1.0000   1.0000   1.0000   1.0000   1.0000   1.0000
     1.0000   1.0000   1.0000   1.0000   1.0000   1.0000   1.0000   1.0000
     1.0000   1.0000   1.0000   1.0000   1.0000   1.0000   1.0000   1.0000
     1.0000   1.0000   1.0000   1.0000   1.0000   1.0000   1.0000   1.0000
     1.0000   1.0000   1.0000   1.0000   1.0000   1.0000   1.0000   1.0000
     1.0000   1.0000   1.0000   1.0000   1.0000   1.0000   1.0000   1.0000
     1.0000   1.0000   1.0000   1.0000   1.0000   1.0000   1.0000   1.0000
     1.0000   1.0000   1.0000   1.0000   1.0000   1.0000   1.0000   1.0000
     1.0000   1.0000   1.0000   1.0000   1.0000   1.0000   1.0000   1.0000
     1.0000   1.0000   1.0000   1.0000   1.0000   1.0000   1.0000   1.0000
     1.0000   1.0000   1.0000   1.0000   1.0000   1.0000   1.0000   1.0000
     1.0000   1.0000   1.0000   1.0000   1.0000   1.0000   1.0000   1.0000
     1.0000   1.0000   1.0000   1.0000   1.0000   1.0000   1.0000   1.0000
     1.0000   1.0000   1.0000   1.0000   1.0000   1.0000   1.0000   1.0000
     1.0000   1.0000   1.0000   1.0000   1.0000   1.0000   1.0000   1.0000
     1.0000   1.0000   1.0000   1.0000   1.0000   1.0000   1.0000   1.0000
     1.0000   1.0000   1.0000   1.0000   1.0000   0.9986   0.0030   0.0027
     0.0000   0.0000   0.0000   0.0000   0.0000   0.0000   0.0000   0.0000
     0.0000   0.0000   0.0000   0.0000   0.0000   0.0000   0.0000   0.0000
     0.0000   0.0000   0.0000   0.0000   0.0000   0.0000   0.0000   0.0000
     0.0000   0.0000   0.0000   0.0000   0.0000   0.0000   0.0000   0.0000
     0.0000   0.0000   0.0000   0.0000

          k = 0.0000-0.5774 0.0000 ( 75730 PWs)   bands (ev):

   -41.1387 -41.1368 -41.1345 -41.1226 -41.1212 -41.1208 -41.1194 -41.1185
   -41.1172 -41.0734 -41.0731 -41.0718 -41.0714 -41.0697 -41.0693 -41.0540
   -41.0524 -41.0508 -41.0503 -41.0492 -41.0478 -41.0472 -41.0463 -41.0442
   -41.0377 -41.0370 -41.0362 -41.0355 -41.0344 -41.0337 -40.8118 -40.8117
   -40.8111 -40.8111 -40.8107 -40.8063 -40.8063 -40.8012 -40.8012 -40.7990
   -40.5240 -40.5238 -40.5235 -40.5226 -40.5224 -40.5221 -40.5051 -40.5049
   -40.5047 -40.5046 -40.5045 -40.5044 -40.4994 -40.4992 -40.4991 -40.4148
   -40.4143 -40.4143 -40.4138 -40.4138 -40.4133 -40.3942 -40.3936 -40.3935
   -40.3930 -40.3929 -40.3924 -40.3867 -40.3860 -40.3854 -40.3222 -40.3222
   -40.3002 -40.2993 -40.2925 -13.2832 -13.2831 -13.1467 -13.1459 -13.1292
   -13.1289 -13.1233 -13.0787 -13.0783 -13.0673 -13.0631 -13.0579 -13.0518
   -13.0508 -13.0493 -13.0487 -13.0422 -13.0363 -13.0342 -13.0339 -13.0329
   -13.0317 -13.0311 -13.0265 -13.0011 -12.5681 -12.5675 -12.5528 -12.5520
   -12.5519 -12.5012 -12.4943 -12.4858 -12.4785 -12.4756 -12.4734 -12.4620
   -12.4603 -12.4580 -12.4560 -12.4523 -12.4520 -12.4502 -12.4486 -12.4481
    -8.1125  -8.0828  -7.8923  -7.8778  -7.8308  -7.7618  -7.6365  -7.5912
    -7.5087  -7.4647  -7.3080  -7.2457  -7.2067  -7.1426  -7.0368  -3.7949
    -3.7476  -3.7434  -3.5181  -3.4720  -3.2091  -3.1170  -3.0097  -2.8796
     1.0698   1.0789   1.2051   1.2431   1.3477   1.4856   1.6245   1.6920
     1.7160   1.7706   1.8304   1.8546   1.8792   1.9715   2.0144   2.0436
     2.0749   2.1311   2.2458   2.2474   2.2912   2.3499   2.4271   2.4861
     2.5561   2.6046   2.6376   2.6862   2.7130   2.7620   2.8521   2.8542
     2.9746   3.0846   3.0868   3.1064   3.1472   3.1786   3.1794   3.2774
     3.3329   3.3857   3.5306   3.5570   3.6267   5.1330   5.5103   5.5991
     6.3592   6.4812   6.7955   6.8986   6.9495   6.9632   7.0487   7.0557
     7.0845   7.1033   7.2292   7.3122   7.3793   7.4767   7.5052   7.5893
     7.6297   7.6327   7.6822   7.7074   7.7970   7.9393   7.9747   8.0347
     9.6888   9.8579  10.1380  10.1499  10.2138  10.3368  10.3953  10.4144
    10.6715  10.7568  10.8915  10.9115

     occupation numbers 
     1.0000   1.0000   1.0000   1.0000   1.0000   1.0000   1.0000   1.0000
     1.0000   1.0000   1.0000   1.0000   1.0000   1.0000   1.0000   1.0000
     1.0000   1.0000   1.0000   1.0000   1.0000   1.0000   1.0000   1.0000
     1.0000   1.0000   1.0000   1.0000   1.0000   1.0000   1.0000   1.0000
     1.0000   1.0000   1.0000   1.0000   1.0000   1.0000   1.0000   1.0000
     1.0000   1.0000   1.0000   1.0000   1.0000   1.0000   1.0000   1.0000
     1.0000   1.0000   1.0000   1.0000   1.0000   1.0000   1.0000   1.0000
     1.0000   1.0000   1.0000   1.0000   1.0000   1.0000   1.0000   1.0000
     1.0000   1.0000   1.0000   1.0000   1.0000   1.0000   1.0000   1.0000
     1.0000   1.0000   1.0000   1.0000   1.0000   1.0000   1.0000   1.0000
     1.0000   1.0000   1.0000   1.0000   1.0000   1.0000   1.0000   1.0000
     1.0000   1.0000   1.0000   1.0000   1.0000   1.0000   1.0000   1.0000
     1.0000   1.0000   1.0000   1.0000   1.0000   1.0000   1.0000   1.0000
     1.0000   1.0000   1.0000   1.0000   1.0000   1.0000   1.0000   1.0000
     1.0000   1.0000   1.0000   1.0000   1.0000   1.0000   1.0000   1.0000
     1.0000   1.0000   1.0000   1.0000   1.0000   1.0000   1.0000   1.0000
     1.0000   1.0000   1.0000   1.0000   1.0000   1.0000   1.0000   1.0000
     1.0000   1.0000   1.0000   1.0000   1.0000   1.0000   1.0000   1.0000
     1.0000   1.0000   1.0000   1.0000   1.0000   1.0000   1.0000   1.0000
     1.0000   1.0000   1.0000   1.0000   1.0000   1.0000   1.0000   1.0000
     1.0000   1.0000   1.0000   1.0000   1.0000   1.0000   1.0000   1.0000
     1.0000   1.0000   1.0000   1.0000   1.0000   1.0000   1.0000   1.0000
     1.0000   1.0000   1.0000   1.0000   1.0000   1.0000   1.0000   1.0000
     1.0000   1.0000   1.0000   1.0000   1.0000   0.9738   0.0238   0.0018
     0.0000   0.0000   0.0000   0.0000   0.0000   0.0000   0.0000   0.0000
     0.0000   0.0000   0.0000   0.0000   0.0000   0.0000   0.0000   0.0000
     0.0000   0.0000   0.0000   0.0000   0.0000   0.0000   0.0000   0.0000
     0.0000   0.0000   0.0000   0.0000   0.0000   0.0000   0.0000   0.0000
     0.0000   0.0000   0.0000   0.0000

          k = 0.5000-0.2887 0.0000 ( 75730 PWs)   bands (ev):

   -41.1387 -41.1368 -41.1345 -41.1226 -41.1212 -41.1208 -41.1194 -41.1185
   -41.1172 -41.0734 -41.0731 -41.0718 -41.0714 -41.0697 -41.0693 -41.0540
   -41.0524 -41.0508 -41.0503 -41.0492 -41.0478 -41.0472 -41.0463 -41.0442
   -41.0377 -41.0370 -41.0362 -41.0355 -41.0344 -41.0337 -40.8118 -40.8117
   -40.8111 -40.8111 -40.8107 -40.8063 -40.8063 -40.8012 -40.8012 -40.7990
   -40.5240 -40.5238 -40.5235 -40.5226 -40.5224 -40.5221 -40.5051 -40.5049
   -40.5047 -40.5046 -40.5045 -40.5044 -40.4994 -40.4993 -40.4991 -40.4148
   -40.4143 -40.4143 -40.4138 -40.4138 -40.4133 -40.3942 -40.3936 -40.3935
   -40.3930 -40.3929 -40.3924 -40.3867 -40.3860 -40.3854 -40.3222 -40.3222
   -40.3002 -40.2993 -40.2925 -13.2832 -13.2831 -13.1464 -13.1462 -13.1291
   -13.1290 -13.1233 -13.0788 -13.0783 -13.0679 -13.0621 -13.0583 -13.0524
   -13.0499 -13.0496 -13.0492 -13.0411 -13.0371 -13.0348 -13.0333 -13.0328
   -13.0315 -13.0307 -13.0272 -13.0011 -12.5682 -12.5674 -12.5528 -12.5520
   -12.5519 -12.4995 -12.4964 -12.4854 -12.4780 -12.4760 -12.4735 -12.4602
   -12.4589 -12.4576 -12.4571 -12.4566 -12.4525 -12.4506 -12.4482 -12.4457
    -8.1119  -8.0831  -7.8907  -7.8807  -7.8311  -7.7600  -7.6364  -7.5917
    -7.5089  -7.4645  -7.3079  -7.2453  -7.2066  -7.1431  -7.0368  -3.7946
    -3.7474  -3.7439  -3.5177  -3.4725  -3.2106  -3.1139  -3.0103  -2.8806
     1.0701   1.0798   1.2056   1.2413   1.3478   1.4847   1.6239   1.6922
     1.7154   1.7696   1.8319   1.8551   1.8795   1.9724   2.0148   2.0448
     2.0745   2.1312   2.2463   2.2465   2.2920   2.3495   2.4286   2.4861
     2.5532   2.6038   2.6366   2.6875   2.7116   2.7605   2.8494   2.8567
     2.9749   3.0853   3.0868   3.1072   3.1479   3.1785   3.1800   3.2769
     3.3332   3.3870   3.5304   3.5565   3.6267   5.1335   5.5130   5.5964
     6.3602   6.4806   6.7939   6.8990   6.9504   6.9628   7.0489   7.0566
     7.0842   7.1048   7.2281   7.3129   7.3785   7.4762   7.5045   7.5889
     7.6296   7.6326   7.6825   7.7086   7.7970   7.9392   7.9746   8.0335
     9.6894   9.8576  10.1387  10.1502  10.2135  10.3364  10.3951  10.4155
    10.6714  10.7568  10.8910  10.9106

     occupation numbers 
     1.0000   1.0000   1.0000   1.0000   1.0000   1.0000   1.0000   1.0000
     1.0000   1.0000   1.0000   1.0000   1.0000   1.0000   1.0000   1.0000
     1.0000   1.0000   1.0000   1.0000   1.0000   1.0000   1.0000   1.0000
     1.0000   1.0000   1.0000   1.0000   1.0000   1.0000   1.0000   1.0000
     1.0000   1.0000   1.0000   1.0000   1.0000   1.0000   1.0000   1.0000
     1.0000   1.0000   1.0000   1.0000   1.0000   1.0000   1.0000   1.0000
     1.0000   1.0000   1.0000   1.0000   1.0000   1.0000   1.0000   1.0000
     1.0000   1.0000   1.0000   1.0000   1.0000   1.0000   1.0000   1.0000
     1.0000   1.0000   1.0000   1.0000   1.0000   1.0000   1.0000   1.0000
     1.0000   1.0000   1.0000   1.0000   1.0000   1.0000   1.0000   1.0000
     1.0000   1.0000   1.0000   1.0000   1.0000   1.0000   1.0000   1.0000
     1.0000   1.0000   1.0000   1.0000   1.0000   1.0000   1.0000   1.0000
     1.0000   1.0000   1.0000   1.0000   1.0000   1.0000   1.0000   1.0000
     1.0000   1.0000   1.0000   1.0000   1.0000   1.0000   1.0000   1.0000
     1.0000   1.0000   1.0000   1.0000   1.0000   1.0000   1.0000   1.0000
     1.0000   1.0000   1.0000   1.0000   1.0000   1.0000   1.0000   1.0000
     1.0000   1.0000   1.0000   1.0000   1.0000   1.0000   1.0000   1.0000
     1.0000   1.0000   1.0000   1.0000   1.0000   1.0000   1.0000   1.0000
     1.0000   1.0000   1.0000   1.0000   1.0000   1.0000   1.0000   1.0000
     1.0000   1.0000   1.0000   1.0000   1.0000   1.0000   1.0000   1.0000
     1.0000   1.0000   1.0000   1.0000   1.0000   1.0000   1.0000   1.0000
     1.0000   1.0000   1.0000   1.0000   1.0000   1.0000   1.0000   1.0000
     1.0000   1.0000   1.0000   1.0000   1.0000   1.0000   1.0000   1.0000
     1.0000   1.0000   1.0000   1.0000   1.0000   0.9735   0.0222   0.0020
     0.0000   0.0000   0.0000   0.0000   0.0000   0.0000   0.0000   0.0000
     0.0000   0.0000   0.0000   0.0000   0.0000   0.0000   0.0000   0.0000
     0.0000   0.0000   0.0000   0.0000   0.0000   0.0000   0.0000   0.0000
     0.0000   0.0000   0.0000   0.0000   0.0000   0.0000   0.0000   0.0000
     0.0000   0.0000   0.0000   0.0000

          k =-0.5000-0.2887 0.0000 ( 75730 PWs)   bands (ev):

   -41.1387 -41.1368 -41.1345 -41.1226 -41.1212 -41.1208 -41.1194 -41.1185
   -41.1172 -41.0734 -41.0731 -41.0718 -41.0714 -41.0697 -41.0693 -41.0540
   -41.0524 -41.0508 -41.0503 -41.0492 -41.0478 -41.0472 -41.0463 -41.0442
   -41.0377 -41.0370 -41.0362 -41.0355 -41.0344 -41.0337 -40.8118 -40.8117
   -40.8111 -40.8111 -40.8107 -40.8063 -40.8063 -40.8012 -40.8012 -40.7990
   -40.5240 -40.5238 -40.5235 -40.5226 -40.5224 -40.5221 -40.5051 -40.5049
   -40.5047 -40.5046 -40.5045 -40.5044 -40.4994 -40.4993 -40.4991 -40.4148
   -40.4143 -40.4143 -40.4138 -40.4138 -40.4133 -40.3942 -40.3936 -40.3935
   -40.3930 -40.3929 -40.3924 -40.3867 -40.3860 -40.3854 -40.3222 -40.3222
   -40.3002 -40.2993 -40.2925 -13.2832 -13.2831 -13.1466 -13.1460 -13.1292
   -13.1290 -13.1233 -13.0788 -13.0783 -13.0677 -13.0626 -13.0581 -13.0522
   -13.0502 -13.0496 -13.0489 -13.0416 -13.0368 -13.0345 -13.0334 -13.0331
   -13.0313 -13.0311 -13.0269 -13.0011 -12.5681 -12.5675 -12.5528 -12.5520
   -12.5519 -12.5005 -12.4952 -12.4856 -12.4783 -12.4756 -12.4736 -12.4610
   -12.4597 -12.4582 -12.4562 -12.4546 -12.4523 -12.4507 -12.4483 -12.4465
    -8.1121  -8.0830  -7.8914  -7.8794  -7.8309  -7.7608  -7.6364  -7.5915
    -7.5088  -7.4646  -7.3080  -7.2455  -7.2067  -7.1429  -7.0368  -3.7948
    -3.7475  -3.7436  -3.5179  -3.4722  -3.2100  -3.1153  -3.0100  -2.8801
     1.0700   1.0794   1.2054   1.2421   1.3477   1.4851   1.6242   1.6921
     1.7156   1.7701   1.8312   1.8549   1.8793   1.9720   2.0146   2.0443
     2.0747   2.1312   2.2461   2.2469   2.2916   2.3497   2.4279   2.4861
     2.5545   2.6041   2.6371   2.6869   2.7122   2.7612   2.8506   2.8556
     2.9748   3.0850   3.0868   3.1069   3.1476   3.1785   3.1797   3.2771
     3.3331   3.3864   3.5305   3.5567   3.6267   5.1333   5.5118   5.5976
     6.3598   6.4809   6.7946   6.8989   6.9499   6.9630   7.0488   7.0562
     7.0843   7.1041   7.2286   7.3126   7.3789   7.4764   7.5048   7.5891
     7.6296   7.6326   7.6824   7.7081   7.7969   7.9392   7.9747   8.0339
     9.6891   9.8578  10.1384  10.1500  10.2136  10.3365  10.3952  10.4150
    10.6714  10.7568  10.8912  10.9110

     occupation numbers 
     1.0000   1.0000   1.0000   1.0000   1.0000   1.0000   1.0000   1.0000
     1.0000   1.0000   1.0000   1.0000   1.0000   1.0000   1.0000   1.0000
     1.0000   1.0000   1.0000   1.0000   1.0000   1.0000   1.0000   1.0000
     1.0000   1.0000   1.0000   1.0000   1.0000   1.0000   1.0000   1.0000
     1.0000   1.0000   1.0000   1.0000   1.0000   1.0000   1.0000   1.0000
     1.0000   1.0000   1.0000   1.0000   1.0000   1.0000   1.0000   1.0000
     1.0000   1.0000   1.0000   1.0000   1.0000   1.0000   1.0000   1.0000
     1.0000   1.0000   1.0000   1.0000   1.0000   1.0000   1.0000   1.0000
     1.0000   1.0000   1.0000   1.0000   1.0000   1.0000   1.0000   1.0000
     1.0000   1.0000   1.0000   1.0000   1.0000   1.0000   1.0000   1.0000
     1.0000   1.0000   1.0000   1.0000   1.0000   1.0000   1.0000   1.0000
     1.0000   1.0000   1.0000   1.0000   1.0000   1.0000   1.0000   1.0000
     1.0000   1.0000   1.0000   1.0000   1.0000   1.0000   1.0000   1.0000
     1.0000   1.0000   1.0000   1.0000   1.0000   1.0000   1.0000   1.0000
     1.0000   1.0000   1.0000   1.0000   1.0000   1.0000   1.0000   1.0000
     1.0000   1.0000   1.0000   1.0000   1.0000   1.0000   1.0000   1.0000
     1.0000   1.0000   1.0000   1.0000   1.0000   1.0000   1.0000   1.0000
     1.0000   1.0000   1.0000   1.0000   1.0000   1.0000   1.0000   1.0000
     1.0000   1.0000   1.0000   1.0000   1.0000   1.0000   1.0000   1.0000
     1.0000   1.0000   1.0000   1.0000   1.0000   1.0000   1.0000   1.0000
     1.0000   1.0000   1.0000   1.0000   1.0000   1.0000   1.0000   1.0000
     1.0000   1.0000   1.0000   1.0000   1.0000   1.0000   1.0000   1.0000
     1.0000   1.0000   1.0000   1.0000   1.0000   1.0000   1.0000   1.0000
     1.0000   1.0000   1.0000   1.0000   1.0000   0.9736   0.0230   0.0019
     0.0000   0.0000   0.0000   0.0000   0.0000   0.0000   0.0000   0.0000
     0.0000   0.0000   0.0000   0.0000   0.0000   0.0000   0.0000   0.0000
     0.0000   0.0000   0.0000   0.0000   0.0000   0.0000   0.0000   0.0000
     0.0000   0.0000   0.0000   0.0000   0.0000   0.0000   0.0000   0.0000
     0.0000   0.0000   0.0000   0.0000

     the Fermi energy is     5.3197 ev

!    total energy              =  -16521.93853099 Ry
     total all-electron energy =   -589787.409573 Ry
     estimated scf accuracy    <          2.0E-09 Ry
     smearing contrib. (-TS)   =      -0.00136814 Ry
     internal energy E=F+TS    =  -16521.93716285 Ry

     The total energy is F=E-TS. E is the sum of the following terms:
     one-electron contribution =   -2880.49309475 Ry
     hartree contribution      =    1619.15389804 Ry
     xc contribution           =   -1113.08284561 Ry
     ewald contribution        =   -2436.12475486 Ry
     one-center paw contrib.   =  -11711.39036567 Ry
      -> PAW hartree energy AE =     191.69610808 Ry
      -> PAW hartree energy PS =    -192.16794189 Ry
      -> PAW xc energy AE      =   -1596.84011190 Ry
      -> PAW xc energy PS      =      66.60347023 Ry
      -> total E_H with PAW    =    1618.68206422 Ry
      -> total E_XC with PAW   =   -2643.31948728 Ry

     convergence has been achieved in   1 iterations


     -----------------------------------------------
     Non-local corr. energy    =      11.19619930 Ry
     -----------------------------------------------


     Forces acting on atoms (cartesian axes, Ry/au):

     atom    1 type  1   force =     0.00000141   -0.00080726    0.00010386
     atom    2 type  1   force =    -0.00000956    0.00037456    0.00048004
     atom    3 type  1   force =    -0.00070614    0.00040389    0.00011251
     atom    4 type  1   force =     0.00046988   -0.00025374    0.00061951
     atom    5 type  1   force =    -0.00001025    0.00001672   -0.00006561
     atom    6 type  1   force =    -0.00000690    0.00001049    0.00071207
     atom    7 type  1   force =     0.00070304    0.00040040    0.00010877
     atom    8 type  1   force =    -0.00041216   -0.00020979    0.00056125
     atom    9 type  2   force =     0.00000102    0.00000045    0.00068919
     atom   10 type  2   force =    -0.00019253   -0.00011114   -0.00052124
     atom   11 type  2   force =    -0.00001741   -0.00001844    0.00008856
     atom   12 type  2   force =     0.00000191    0.00022126   -0.00051802
     atom   13 type  2   force =     0.00000586    0.00002101    0.00010054
     atom   14 type  2   force =     0.00019418   -0.00011008   -0.00051475
     atom   15 type  2   force =     0.00002484   -0.00001590    0.00008217
     atom   16 type  2   force =    -0.00048500    0.00028510   -0.00048595
     atom   17 type  2   force =    -0.00023640    0.00014377   -0.00017088
     atom   18 type  2   force =    -0.00000565   -0.00059371   -0.00051627
     atom   19 type  2   force =    -0.00001138   -0.00028411   -0.00016311
     atom   20 type  2   force =     0.00049552    0.00029770   -0.00049799
     atom   21 type  2   force =     0.00023426    0.00015488   -0.00016408
     atom   22 type  2   force =    -0.00000088    0.00000196    0.00084743
     atom   23 type  2   force =    -0.00002192    0.00003945   -0.00050644
     atom   24 type  1   force =    -0.00001573    0.00003253   -0.00038155
     The non-local contrib.  to forces
     atom    1 type  1   force =     0.00006952    0.01927753   -0.02331383
     atom    2 type  1   force =    -0.00015321    0.02438404    0.06416213
     atom    3 type  1   force =     0.01673001   -0.00974199   -0.02334799
     atom    4 type  1   force =     0.02341769   -0.01332874    0.06594842
     atom    5 type  1   force =    -0.00037907    0.00080307   -0.07983413
     atom    6 type  1   force =    -0.00007207    0.00015583   -0.04999964
     atom    7 type  1   force =    -0.01665974   -0.00978158   -0.02334084
     atom    8 type  1   force =    -0.02252274   -0.01263068    0.06513258
     atom    9 type  2   force =     0.00000054   -0.00001376    0.26241716
     atom   10 type  2   force =    -0.02856945   -0.01662279    0.20714690
     atom   11 type  2   force =    -0.00432749   -0.00245219    0.26935236
     atom   12 type  2   force =     0.00006189    0.03290500    0.20725025
     atom   13 type  2   force =    -0.00001557    0.00475131    0.26913345
     atom   14 type  2   force =     0.02869874   -0.01662769    0.20706283
     atom   15 type  2   force =     0.00446169   -0.00254725    0.26952509
     atom   16 type  2   force =     0.09433232   -0.05427240   -0.14024592
     atom   17 type  2   force =     0.01546407   -0.00912194   -0.23346149
     atom   18 type  2   force =    -0.00013071    0.10697395   -0.14185504
     atom   19 type  2   force =     0.00014623    0.01785651   -0.23328573
     atom   20 type  2   force =    -0.09368954   -0.05375060   -0.14095756
     atom   21 type  2   force =    -0.01535431   -0.00922611   -0.23337828
     atom   22 type  2   force =     0.00000712   -0.00002443   -0.26246089
     atom   23 type  2   force =    -0.00078155    0.00156785   -0.17695884
     atom   24 type  1   force =    -0.00097175    0.00197455    0.08318201
     The ionic contribution  to forces
     atom    1 type  1   force =    -0.00529333    0.19511623   -2.66887047
     atom    2 type  1   force =     0.01026506   -3.02731555   -1.40585099
     atom    3 type  1   force =     0.17109231   -0.09132277   -2.66001002
     atom    4 type  1   force =    -2.65904955    1.52176268   -1.41696151
     atom    5 type  1   force =     0.01181948   -0.02505137   -0.90578381
     atom    6 type  1   force =    -0.00298235    0.00494312    2.92278645
     atom    7 type  1   force =    -0.17423444   -0.08704139   -2.66402837
     atom    8 type  1   force =     2.65048484    1.50483290   -1.41145307
     atom    9 type  2   force =    -0.00150753    0.00297965  -17.47764579
     atom   10 type  2   force =     1.40701293    0.83643221   -9.15070729
     atom   11 type  2   force =     0.47248607    0.26362653  -17.98462045
     atom   12 type  2   force =    -0.00971039   -1.63476232   -9.16124168
     atom   13 type  2   force =     0.00370659   -0.53285761  -17.97424283
     atom   14 type  2   force =    -1.41295632    0.82869524   -9.14109692
     atom   15 type  2   force =    -0.47581655    0.26983773  -17.99278564
     atom   16 type  2   force =    -3.95254452    2.27227300   10.17482569
     atom   17 type  2   force =    -0.51489600    0.31187197   13.88205782
     atom   18 type  2   force =     0.00652536   -4.51621110   10.22445607
     atom   19 type  2   force =    -0.01129243   -0.59781782   13.86168249
     atom   20 type  2   force =     3.93957965    2.25724341   10.19712458
     atom   21 type  2   force =     0.50800713    0.32082704   13.87281038
     atom   22 type  2   force =    -0.00365394    0.00767887   13.80304083
     atom   23 type  2   force =     0.02507456   -0.05018446   14.37476091
     atom   24 type  1   force =     0.01788338   -0.03555618    8.70175364
     The local contribution  to forces
     atom    1 type  1   force =     0.00522727   -0.21492718    2.69199735
     atom    2 type  1   force =    -0.01012377    3.00524267    1.34419117
     atom    3 type  1   force =    -0.18829093    0.10132905    2.68317974
     atom    4 type  1   force =     2.63782955   -1.50968146    1.35369660
     atom    5 type  1   force =    -0.01145797    0.02428068    0.98401438
     atom    6 type  1   force =     0.00304584   -0.00508480   -2.87285092
     atom    7 type  1   force =     0.19136172    0.09708242    2.68718703
     atom    8 type  1   force =    -2.63008136   -1.49339108    1.34892702
     atom    9 type  2   force =     0.00150872   -0.00296845   17.22144404
     atom   10 type  2   force =    -1.37940352   -0.82035896    8.94747524
     atom   11 type  2   force =    -0.46836148   -0.26130120   17.72098602
     atom   12 type  2   force =     0.00964914    1.60295703    8.95791251
     atom   13 type  2   force =    -0.00368479    0.52833461   17.71083363
     atom   14 type  2   force =     1.38522157   -0.81261904    8.93795289
     atom   15 type  2   force =     0.47157031   -0.26741743   17.72897623
     atom   16 type  2   force =     3.85996399   -2.21900419  -10.03801247
     atom   17 type  2   force =     0.49954401   -0.30281459  -13.65380435
     atom   18 type  2   force =    -0.00640232    4.41118332  -10.08612630
     atom   19 type  2   force =     0.01113942    0.58008591  -13.63359138
     atom   20 type  2   force =    -3.84761657   -2.20447326  -10.05963872
     atom   21 type  2   force =    -0.49276474   -0.31165826  -13.64463049
     atom   22 type  2   force =     0.00364666   -0.00765442  -13.54515141
     atom   23 type  2   force =    -0.02433866    0.04870544  -14.20200110
     atom   24 type  1   force =    -0.01695261    0.03366584   -8.78223807
     The core correction contribution to forces
     atom    1 type  1   force =    -0.00000166   -0.00024782    0.00032547
     atom    2 type  1   force =     0.00000314   -0.00191627   -0.00196519
     atom    3 type  1   force =    -0.00021458    0.00012614    0.00032544
     atom    4 type  1   force =    -0.00170942    0.00098242   -0.00200804
     atom    5 type  1   force =     0.00000767   -0.00001577    0.00154526
     atom    6 type  1   force =     0.00000180   -0.00000357    0.00086257
     atom    7 type  1   force =     0.00021343    0.00012738    0.00032561
     atom    8 type  1   force =     0.00168982    0.00096745   -0.00198884
     atom    9 type  2   force =     0.00000014    0.00000125   -0.00549658
     atom   10 type  2   force =     0.00075700    0.00043870   -0.00441823
     atom   11 type  2   force =     0.00022644    0.00013324   -0.00562678
     atom   12 type  2   force =    -0.00000075   -0.00087135   -0.00442053
     atom   13 type  2   force =    -0.00000062   -0.00025578   -0.00562134
     atom   14 type  2   force =    -0.00075958    0.00043937   -0.00441583
     atom   15 type  2   force =    -0.00023088    0.00013507   -0.00563086
     atom   16 type  2   force =    -0.00217569    0.00125261    0.00304536
     atom   17 type  2   force =    -0.00039499    0.00023214    0.00516296
     atom   18 type  2   force =     0.00000283   -0.00246861    0.00310885
     atom   19 type  2   force =    -0.00000280   -0.00045888    0.00515437
     atom   20 type  2   force =     0.00216154    0.00124119    0.00307332
     atom   21 type  2   force =     0.00039331    0.00023445    0.00515919
     atom   22 type  2   force =    -0.00000103    0.00000328    0.00545241
     atom   23 type  2   force =     0.00002262   -0.00004557    0.00382674
     atom   24 type  1   force =     0.00002681   -0.00005467   -0.00310466
     The Hubbard contrib.    to forces
     atom    1 type  1   force =     0.00000000    0.00000000    0.00000000
     atom    2 type  1   force =     0.00000000    0.00000000    0.00000000
     atom    3 type  1   force =     0.00000000    0.00000000    0.00000000
     atom    4 type  1   force =     0.00000000    0.00000000    0.00000000
     atom    5 type  1   force =     0.00000000    0.00000000    0.00000000
     atom    6 type  1   force =     0.00000000    0.00000000    0.00000000
     atom    7 type  1   force =     0.00000000    0.00000000    0.00000000
     atom    8 type  1   force =     0.00000000    0.00000000    0.00000000
     atom    9 type  2   force =     0.00000000    0.00000000    0.00000000
     atom   10 type  2   force =     0.00000000    0.00000000    0.00000000
     atom   11 type  2   force =     0.00000000    0.00000000    0.00000000
     atom   12 type  2   force =     0.00000000    0.00000000    0.00000000
     atom   13 type  2   force =     0.00000000    0.00000000    0.00000000
     atom   14 type  2   force =     0.00000000    0.00000000    0.00000000
     atom   15 type  2   force =     0.00000000    0.00000000    0.00000000
     atom   16 type  2   force =     0.00000000    0.00000000    0.00000000
     atom   17 type  2   force =     0.00000000    0.00000000    0.00000000
     atom   18 type  2   force =     0.00000000    0.00000000    0.00000000
     atom   19 type  2   force =     0.00000000    0.00000000    0.00000000
     atom   20 type  2   force =     0.00000000    0.00000000    0.00000000
     atom   21 type  2   force =     0.00000000    0.00000000    0.00000000
     atom   22 type  2   force =     0.00000000    0.00000000    0.00000000
     atom   23 type  2   force =     0.00000000    0.00000000    0.00000000
     atom   24 type  1   force =     0.00000000    0.00000000    0.00000000
     The SCF correction term to forces
     atom    1 type  1   force =    -0.00000002   -0.00002630    0.00001830
     atom    2 type  1   force =    -0.00000041   -0.00002062   -0.00000411
     atom    3 type  1   force =    -0.00002258    0.00001317    0.00001831
     atom    4 type  1   force =    -0.00001802    0.00001107   -0.00000298
     atom    5 type  1   force =     0.00000001   -0.00000016    0.00004566
     atom    6 type  1   force =     0.00000026   -0.00000037   -0.00003344
     atom    7 type  1   force =     0.00002244    0.00001327    0.00001831
     atom    8 type  1   force =     0.00001765    0.00001135   -0.00000347
     atom    9 type  2   force =    -0.00000048    0.00000148    0.00002333
     atom   10 type  2   force =     0.00001087   -0.00000058    0.00003510
     atom   11 type  2   force =    -0.00004059   -0.00002511    0.00005039
     atom   12 type  2   force =     0.00000238   -0.00000738    0.00003440
     atom   13 type  2   force =     0.00000062    0.00004821    0.00005060
     atom   14 type  2   force =    -0.00000986    0.00000176    0.00003524
     atom   15 type  2   force =     0.00004064   -0.00002430    0.00005032
     atom   16 type  2   force =    -0.00006073    0.00003579   -0.00004564
     atom   17 type  2   force =     0.00004689   -0.00002409   -0.00007285
     atom   18 type  2   force =    -0.00000045   -0.00007155   -0.00004688
     atom   19 type  2   force =    -0.00000144    0.00004989   -0.00006989
     atom   20 type  2   force =     0.00006081    0.00003667   -0.00004663
     atom   21 type  2   force =    -0.00004676   -0.00002252   -0.00007190
     atom   22 type  2   force =     0.00000068   -0.00000162    0.00001946
     atom   23 type  2   force =     0.00000148   -0.00000410   -0.00008119
     atom   24 type  1   force =    -0.00000120    0.00000272    0.00007849

     Total force =     0.002956     Total SCF correction =     0.000291


     Computing stress (Cartesian axis) and pressure



     -----------------------------------------------
     Non-local corr. energy    =      11.19619930 Ry
     -----------------------------------------------

          total   stress  (Ry/bohr**3)                   (kbar)     P=      -15.61
  -0.00010575   0.00000003  -0.00000004          -15.56        0.01       -0.01
   0.00000003  -0.00010562   0.00000008            0.01      -15.54        0.01
  -0.00000004   0.00000008  -0.00010693           -0.01        0.01      -15.73

     kinetic stress (kbar)  15275.18      0.04     -0.07
                                0.04  15275.34      0.13
                               -0.07      0.13  15293.01

     local   stress (kbar)  -6957.23      0.97      0.03
                                0.97  -6952.96      0.18
                                0.03      0.18    913.18

     nonloc. stress (kbar)  -1516.60      0.01     -0.03
                                0.01  -1516.54      0.07
                               -0.03      0.07  -1511.78

     hartree stress (kbar)  11559.69     -0.34     -0.12
                               -0.34  11558.19      0.14
                               -0.12      0.14   7992.19

     exc-cor stress (kbar)   6804.67     -0.00     -0.00
                               -0.00   6804.66      0.00
                               -0.00      0.00   6804.46

     corecor stress (kbar) -11103.04     -0.00      0.00
                               -0.00 -11103.04     -0.00
                                0.00     -0.00 -11103.24

     ewald   stress (kbar) -14159.33     -0.67      0.18
                               -0.67 -14162.28     -0.51
                                0.18     -0.51 -18485.57

     hubbard stress (kbar)      0.00      0.00      0.00
                                0.00      0.00      0.00
                                0.00      0.00      0.00

     DFT-D   stress (kbar)      0.00      0.00      0.00
                                0.00      0.00      0.00
                                0.00      0.00      0.00

     XDM     stress (kbar)      0.00      0.00      0.00
                                0.00      0.00      0.00
                                0.00      0.00      0.00

     dft-nl  stress (kbar)     81.09      0.00      0.00
                                0.00     81.09     -0.00
                                0.00     -0.00     82.03

     TS-vdW  stress (kbar)      0.00      0.00      0.00
                                0.00      0.00      0.00
                                0.00      0.00      0.00

     MDB     stress (kbar)      0.00      0.00      0.00
                                0.00      0.00      0.00
                                0.00      0.00      0.00

     3D-RISM stress (kbar)      0.00      0.00      0.00
                                0.00      0.00      0.00
                                0.00      0.00      0.00



     -----------------------------------------------
     Non-local corr. energy    =      11.19619930 Ry
     -----------------------------------------------



     -----------------------------------------------
     Non-local corr. energy    =      11.19619930 Ry
     -----------------------------------------------



     -----------------------------------------------
     Non-local corr. energy    =      11.19619930 Ry
     -----------------------------------------------



     -----------------------------------------------
     Non-local corr. energy    =      11.19619930 Ry
     -----------------------------------------------



     -----------------------------------------------
     Non-local corr. energy    =      11.19619930 Ry
     -----------------------------------------------



     -----------------------------------------------
     Non-local corr. energy    =      11.19619930 Ry
     -----------------------------------------------



     -----------------------------------------------
     Non-local corr. energy    =      11.19619930 Ry
     -----------------------------------------------



     -----------------------------------------------
     Non-local corr. energy    =      11.19619930 Ry
     -----------------------------------------------



     -----------------------------------------------
     Non-local corr. energy    =      11.19619930 Ry
     -----------------------------------------------



     -----------------------------------------------
     Non-local corr. energy    =      11.19619930 Ry
     -----------------------------------------------



     -----------------------------------------------
     Non-local corr. energy    =      11.19619930 Ry
     -----------------------------------------------



     -----------------------------------------------
     Non-local corr. energy    =      11.19619930 Ry
     -----------------------------------------------



     -----------------------------------------------
     Non-local corr. energy    =      11.19619930 Ry
     -----------------------------------------------



     -----------------------------------------------
     Non-local corr. energy    =      11.19619930 Ry
     -----------------------------------------------



     -----------------------------------------------
     Non-local corr. energy    =      11.19619930 Ry
     -----------------------------------------------



     -----------------------------------------------
     Non-local corr. energy    =      11.19619930 Ry
     -----------------------------------------------



     -----------------------------------------------
     Non-local corr. energy    =      11.19619930 Ry
     -----------------------------------------------



     -----------------------------------------------
     Non-local corr. energy    =      11.19619930 Ry
     -----------------------------------------------



     -----------------------------------------------
     Non-local corr. energy    =      11.19619930 Ry
     -----------------------------------------------



     -----------------------------------------------
     Non-local corr. energy    =      11.19619930 Ry
     -----------------------------------------------



     -----------------------------------------------
     Non-local corr. energy    =      11.19619930 Ry
     -----------------------------------------------



     -----------------------------------------------
     Non-local corr. energy    =      11.19619930 Ry
     -----------------------------------------------



     -----------------------------------------------
     Non-local corr. energy    =      11.19619930 Ry
     -----------------------------------------------



     -----------------------------------------------
     Non-local corr. energy    =      11.19619930 Ry
     -----------------------------------------------



     -----------------------------------------------
     Non-local corr. energy    =      11.19619930 Ry
     -----------------------------------------------



     -----------------------------------------------
     Non-local corr. energy    =      11.19619930 Ry
     -----------------------------------------------



     -----------------------------------------------
     Non-local corr. energy    =      11.19619930 Ry
     -----------------------------------------------



     -----------------------------------------------
     Non-local corr. energy    =      11.19619930 Ry
     -----------------------------------------------



     -----------------------------------------------
     Non-local corr. energy    =      11.19619930 Ry
     -----------------------------------------------



     -----------------------------------------------
     Non-local corr. energy    =      11.19619930 Ry
     -----------------------------------------------



     -----------------------------------------------
     Non-local corr. energy    =      11.19619930 Ry
     -----------------------------------------------



     -----------------------------------------------
     Non-local corr. energy    =      11.19619930 Ry
     -----------------------------------------------



     -----------------------------------------------
     Non-local corr. energy    =      11.19619930 Ry
     -----------------------------------------------



     -----------------------------------------------
     Non-local corr. energy    =      11.19619930 Ry
     -----------------------------------------------

 BEEFens 2000 ensemble energies
             -0.948733229602499E+01
             -0.954218018177234E+02
             -0.434508069550189E+02
              0.333682230735374E+02
             -0.730316784071637E+02
             -0.893476698332748E+02
              0.459011243075990E+02
              0.100073244152043E+00
              0.772135536334105E+02
             -0.488042470771853E+01
              0.396542999770520E+02
              0.397300987324684E+01
             -0.307367394156736E+01
             -0.254269190015521E+01
              0.492100186974301E+02
             -0.372389083827877E+02
             -0.728929967865462E+02
             -0.235314269691748E+02
              0.210013289602587E+02
             -0.535062648385178E+00
              0.107520804325349E+03
              0.896858402395761E+02
             -0.552523658374415E+02
              0.190811890921543E+02
             -0.115149110067005E+03
              0.944791443673605E+02
              0.323564623384832E+02
              0.852940350685853E+02
              0.574468272913707E+02
             -0.266726521865083E+02
              0.210829971215546E+02
             -0.374732616489435E+02
              0.157079438726055E+02
              0.572229486584717E+02
              0.616974270484332E+02
             -0.267013586778356E+02
              0.135769962097020E+03
             -0.547761036306736E+02
             -0.363218439997883E+02
              0.542947362558892E+02
              0.239542278185206E+02
              0.413922394594374E+02
             -0.797773807949016E+02
             -0.519197302624127E+01
              0.765263448264662E+02
              0.100056888023490E+03
             -0.101645055197635E+03
              0.643929846866613E+01
              0.351749084167865E+02
              0.227615847769281E+02
              0.396572166908256E+02
              0.871788833175955E+02
             -0.567001058146072E+02
             -0.550554466163612E+02
             -0.765412698548769E+02
             -0.110139680937755E+02
             -0.652491238667094E+02
              0.840703651942164E+01
             -0.940104055895097E+01
             -0.518372659968360E+02
              0.844898936044241E+02
              0.857615380766877E+02
             -0.235081445058217E+02
             -0.646974088920809E+02
             -0.393105660662576E+02
             -0.244886215044975E+01
              0.623224796684516E+02
             -0.879338006112505E+01
             -0.622379441220122E+02
              0.574616669148963E+02
             -0.106904361304333E+03
              0.945676506749630E+02
             -0.109329436047821E+03
             -0.478653094123617E+02
             -0.156501225398738E+02
             -0.997125626046883E+01
              0.571731211228041E+01
              0.754086575286689E+02
              0.474480709788919E+02
             -0.794929391773453E+02
             -0.105654736754387E+03
             -0.550370638594097E+02
             -0.408742912347241E+02
              0.618124950873687E+01
             -0.130006462278066E+02
             -0.382728029674394E+02
              0.466848523643896E+02
             -0.401406405133956E+02
              0.156020045368232E+03
             -0.715760163486110E+02
              0.156539517064333E+02
              0.164161491296363E+02
              0.232710896597493E+02
              0.540548683801215E+02
              0.386099191169546E+02
              0.366883513755005E+02
             -0.601437967597710E+02
              0.357436673196526E+02
              0.878000793370416E+01
             -0.114294568590117E+01
              0.705812698024002E+02
             -0.834464100672421E+02
              0.141222861532224E+03
             -0.331959732875767E+02
             -0.150640712469945E+03
              0.817554726176201E+01
              0.138696224564113E+02
             -0.413324775847933E+02
             -0.792320057108792E+02
             -0.398031261055754E+02
             -0.293884753482463E+02
              0.105300758107114E+01
             -0.625135925492783E+02
              0.341249982312434E+01
              0.677762222101944E+01
              0.143871528014876E+02
              0.135988386771790E+03
              0.160434146131268E+02
             -0.824568006795167E+02
             -0.618332443522599E+02
             -0.195017358224059E+02
             -0.535613193979386E+02
              0.909806360895109E+02
             -0.578104388115968E+02
              0.279222239318224E+01
             -0.114131768392176E+02
              0.149652445236497E+02
              0.537097764383046E+02
             -0.584008382805511E+02
             -0.114729444677718E+03
             -0.209098829448259E+02
             -0.240458641318944E+02
             -0.174159278030899E+02
              0.580316662433529E+02
             -0.100826993472021E+03
             -0.114021866349494E+03
             -0.149021917714355E+02
             -0.249247990405381E+02
             -0.405750385115749E+01
              0.311949263613017E+02
              0.688618070088060E+02
              0.348884167883920E+02
             -0.339320261812391E+02
             -0.360394389652050E+02
             -0.104318087720708E+03
             -0.786863409411239E+01
             -0.496977506073029E+02
             -0.311274850298615E+02
              0.865354008381743E+02
             -0.667644935924154E+02
             -0.226488816036749E+02
              0.804564725865907E+02
             -0.110637443620282E+02
             -0.209825649476030E+02
              0.136427179948621E+02
              0.320882845517372E+02
             -0.516472945676684E+02
              0.302207838316681E+02
              0.202093253743541E+02
              0.473845734436779E+02
             -0.488063344645077E+02
             -0.397927387589392E+02
              0.603737294416801E+02
             -0.500672001066107E+01
             -0.235842263101611E+02
             -0.205306404312721E+02
             -0.285997056058131E+02
             -0.383642854402808E+02
             -0.901248163680799E+02
             -0.113878924145457E+03
             -0.358108166958677E+02
             -0.354570654591104E+02
             -0.414438759860973E+02
             -0.694719786489301E+02
             -0.358519373283834E+02
              0.617617265795273E+02
              0.266611393872779E+02
              0.874045810692622E+02
             -0.371989994131192E+02
              0.299723877795153E+02
              0.162137907664332E+02
             -0.921750792656651E+02
             -0.219102521278917E+02
              0.493586346808170E+02
             -0.148053012211085E+03
              0.320693700570891E+02
              0.249110304862456E+02
              0.943605153992203E+02
             -0.292059797303734E+02
              0.815952407807896E+02
              0.124826367288496E+03
              0.103648401394521E+03
             -0.583970759305496E+02
             -0.317325092663868E+02
             -0.177882081946502E+02
              0.415042560309994E+02
              0.212548041286234E+02
             -0.224409055591379E+02
              0.605394694209006E+02
              0.120142402124213E+03
             -0.420619599584035E+02
             -0.295817373414337E+02
              0.198224189334750E+02
             -0.683468458898682E+02
             -0.589412432423902E+02
              0.524796018460133E+01
              0.175939231077223E+01
             -0.110469198041046E+02
              0.103206380326334E+03
              0.325118851357008E+02
             -0.170526593947324E+02
             -0.668279157997509E+01
             -0.135841214107470E+03
             -0.145588176590780E+02
             -0.308958648034244E+02
             -0.375347424599744E+01
              0.675551314445726E+02
             -0.363430333726274E+01
              0.941657807112418E+02
             -0.609702527527901E+02
             -0.615150261429247E+02
              0.621046800582648E+02
              0.818405583438208E+02
              0.108789158633256E+03
             -0.620974573262067E+02
             -0.348621481327259E+02
              0.646905643894881E+02
              0.714097877796564E+02
             -0.800265472875424E+02
             -0.203985238425595E+02
              0.858449407178183E+02
              0.555966043138544E+02
              0.335649751399792E+02
              0.307675591705679E+02
             -0.222183694834096E+02
             -0.480531117951455E+01
              0.357324004191717E+02
             -0.375943913646444E+02
             -0.477041245966525E+02
              0.114819432160706E+02
             -0.219319009991133E+02
              0.323685569673937E+02
             -0.552904380370154E+02
              0.664358908379866E+02
             -0.971175113435049E+01
              0.654107837358514E+02
             -0.239724739438298E+02
             -0.803576209694352E+02
             -0.902175605211539E+00
              0.209874730825925E+02
              0.176521353760270E+02
              0.779911019339681E+01
              0.937407891133995E+01
              0.152587969180777E+02
              0.122668427580595E+03
             -0.904093259217534E+02
              0.200488586170745E+02
             -0.487232360072002E+01
              0.211625718957271E+01
              0.490292819153859E+02
              0.357160226368054E+02
             -0.372093954170900E+02
              0.106673095077844E+02
             -0.625895792382597E+02
             -0.204863232265678E+02
             -0.130491295193394E+01
             -0.135559875074314E+03
              0.325599245204269E+02
              0.665827723913497E+02
              0.337418737008300E+02
              0.491771047594427E+02
             -0.292026871209602E+02
              0.286117089371184E+02
              0.728803233097290E+02
             -0.558794909424804E+02
              0.328186556284417E+02
              0.911233831659682E+02
             -0.125314158265660E+02
              0.579012850442855E+02
             -0.177762588555281E+02
             -0.244990792040363E+02
             -0.543564049519489E+01
             -0.635741359006643E+02
              0.370178735775366E+02
              0.346272530011086E+02
              0.678606151436651E+02
             -0.373847532506817E+02
              0.604504378217298E+02
              0.120954805623446E+03
              0.650234656008834E+02
             -0.553258116630972E+02
             -0.212482753710264E+02
             -0.105765059728723E+03
              0.100148439562059E+02
              0.143024082872662E+02
             -0.342635007379204E+01
             -0.208107039962320E+02
              0.157969149560153E+02
              0.762339036436770E+02
             -0.896717146789115E+00
              0.352156026898960E+02
              0.342868028919049E+02
             -0.169671199531645E+02
             -0.109490825329624E+03
              0.405650395699228E+02
             -0.777869817969773E+00
              0.569364151387638E+02
             -0.153774522853928E+02
             -0.209156337729119E+02
             -0.247331147043187E+02
              0.159639953981720E+02
              0.490472916846397E+01
              0.285984311532348E+02
              0.296773630624933E+02
             -0.795042075813388E+02
              0.429631884006210E+02
              0.520221472825884E+02
              0.420953663753713E+02
              0.812407561015670E+02
              0.326858396697932E+02
              0.940181933681801E+02
             -0.282638563337042E+02
             -0.317750742305140E+02
              0.462037982030750E+02
              0.464940981495135E+02
              0.133068283028808E+01
              0.748586910395684E+01
              0.502487171869619E+02
              0.384399463862469E+02
             -0.241818758015515E+02
             -0.477094314355674E+01
             -0.825978015575151E+01
             -0.843903243750759E+01
             -0.884707090962377E+02
             -0.279510447020460E+02
              0.425843114783692E+02
              0.245307877550796E+02
              0.360472452446976E+02
             -0.675973130361511E+02
             -0.961272650043872E+02
              0.239384593060175E+02
              0.945581618102299E+02
              0.489837960514211E+02
             -0.484871565133309E+02
             -0.946261879730365E+02
             -0.504839355963611E+01
              0.310050861980842E+02
              0.313487683659565E+02
             -0.122721842444646E+02
              0.826018664481152E+02
              0.253547889844701E+02
             -0.577723725679759E+02
              0.632237561495792E+02
              0.339247998953806E+02
              0.465887302746339E+01
             -0.197523388702818E+02
             -0.418652528872620E+02
             -0.644766721665876E+02
              0.207982078232784E+02
             -0.129374648954920E+02
             -0.416895139877451E+02
              0.314702301828980E+01
             -0.386712979558411E+02
              0.235742039258473E+02
             -0.102607500020401E+03
              0.243197961991427E+02
             -0.111469375688633E+02
             -0.487510418706479E+01
              0.313680523583071E+02
              0.298186004738435E+02
              0.130866527811312E+03
              0.333258818702899E+01
             -0.425330336272263E+02
             -0.969163531929545E+02
              0.502866276066526E+02
             -0.526272801200548E+01
              0.349805241493716E+02
              0.210669334148922E+02
             -0.124242630495452E+02
              0.799616247349647E+02
              0.659546385385910E+02
             -0.166555716538832E+02
              0.695402503898684E+02
             -0.870587258119710E+02
              0.210269309759788E+02
              0.508389180730840E+02
             -0.622030730346757E+02
             -0.806356332832370E+02
             -0.882599947752267E+02
             -0.873054577154717E+02
              0.833786501569763E+02
             -0.674407704186692E+02
             -0.109975752628980E+02
              0.416973864175899E+02
             -0.338140796004462E+02
              0.134215756554275E+02
              0.211817656749087E+02
              0.466866639340942E+02
             -0.752818590233750E+02
              0.530737146371660E+02
             -0.261509080460438E+02
             -0.111181651766459E+03
              0.410230720620921E+02
             -0.268389099399178E+02
             -0.622571791918259E+02
             -0.290422526539641E+02
              0.522536056760270E+02
              0.404741038204463E+02
              0.139620778161669E+02
              0.243387138757870E+02
             -0.164618516930119E+01
              0.214575050359177E+02
             -0.683198011880638E+02
              0.125640692590600E+02
             -0.146098104752655E+02
             -0.559647529639020E+02
              0.156913681522490E+02
             -0.856543355435656E+01
              0.802021497380505E+02
              0.132932646817574E+02
              0.893548383275097E+02
              0.124539757062988E+02
              0.251611380789300E+02
             -0.242358815124493E+02
             -0.220567352938020E+02
              0.512665453192242E+02
              0.198298405298245E+02
             -0.444195040223375E+02
              0.100258660840520E+03
              0.740634480210156E+02
              0.748326804920253E+02
              0.502073070846037E+02
             -0.182286541766829E+02
             -0.124116300714480E+03
             -0.897773964981229E+01
             -0.347197394748588E+02
             -0.476142372403099E+02
              0.531035986298612E+02
             -0.116081409909886E+03
              0.494714500229982E+02
              0.399509158084195E+02
             -0.395692827874318E+02
             -0.660407972576297E+01
             -0.161432407900197E+02
             -0.354190878362749E+02
              0.377674119774146E+02
              0.465193846205550E+02
             -0.673777154565823E+01
             -0.271963054462215E+02
              0.104499145559364E+02
             -0.110101216888006E+01
             -0.727068798054651E+02
             -0.509230594565680E+02
             -0.392241821122332E+01
             -0.566595214270788E+02
             -0.304005500751801E+02
              0.190956097149791E+01
             -0.944446337858410E+02
             -0.495052924889318E+02
              0.297023375350734E+01
             -0.119647964532163E+03
              0.157424332662822E+02
             -0.114893075187749E+03
              0.624278686455611E+02
             -0.497877088774708E+02
              0.666925725845470E+02
             -0.236974001133546E+02
             -0.948775782433776E+02
             -0.529876926053954E+01
             -0.508960861481863E+02
             -0.280771047684216E+02
              0.184195157699445E+02
             -0.105764686748426E+03
              0.180260625119209E+02
              0.514818268984268E+02
             -0.101533633496482E+03
             -0.118670550730996E+02
             -0.939468518211733E+02
             -0.104657394968745E+03
             -0.670741945295520E+02
             -0.100147265596253E+02
             -0.514298190108475E+02
              0.510887659400698E+02
              0.568186249665180E+02
             -0.418059942343533E+02
              0.288594884771041E+02
             -0.406169284448699E+02
              0.362674083169637E+02
             -0.547305046954493E+02
             -0.549073372103190E+02
              0.514153706121867E+02
              0.391412141656160E+02
              0.148508017470722E+02
              0.568985157907995E+02
              0.126342550975522E+03
             -0.206323997564612E+02
              0.389442335382561E+02
             -0.111170826979330E+03
             -0.102441364531583E+03
             -0.496729574989212E+01
              0.110714191617397E+02
              0.321403080519402E+02
             -0.824781843433433E+02
              0.160458964684519E+02
              0.994087595239505E+02
             -0.786407768743029E+02
             -0.145550631213905E+02
             -0.109069300769140E+03
             -0.112053083745070E+02
              0.582702506010338E+01
             -0.755993744209665E+02
              0.232250538537322E+02
             -0.112264810144715E+03
             -0.476044470137083E+01
             -0.830271326245855E+01
              0.109337395461427E+02
             -0.684982069944371E+02
              0.510757833675140E+02
             -0.824777110573172E+01
             -0.957333258013819E+01
              0.888130772214538E+01
              0.349897177310657E+02
              0.720247577968639E+02
             -0.199195589802072E+02
              0.548895329390255E+02
              0.940714063459482E+02
              0.178567427431874E+02
             -0.380998488573755E+01
              0.288253035787682E+02
              0.869873706256232E+01
             -0.114048295866330E+02
              0.434808448280362E+02
             -0.123823795464610E+02
             -0.617600433252815E+02
              0.344097730758843E+02
             -0.438456384541950E+02
             -0.352721144613995E+02
             -0.472640365031978E+00
             -0.802503492954427E+02
             -0.203844958987344E+02
             -0.879814015421141E+02
             -0.475235531362195E+01
             -0.237273594508600E+02
              0.442480477506372E+02
             -0.936645968134387E+02
              0.866263173717095E+01
              0.274118485794389E+01
             -0.756533686512046E+02
              0.443245434464421E+02
              0.837460271661578E+02
              0.221454876808061E+02
             -0.724711072754880E+02
             -0.800265835987081E+02
              0.107682155380193E+03
              0.812714932297811E+02
              0.350610157003630E+02
             -0.267907089938315E+02
             -0.502552208369727E+02
              0.473640440240970E+02
              0.199715481346388E+02
              0.932051799708655E+02
              0.853590517498639E+02
              0.724166482262528E+02
              0.378384885033035E+02
             -0.150232540139454E+03
             -0.404085303285035E+02
              0.191466944397968E+02
             -0.316896716015490E+02
              0.869640063219254E+02
              0.373206662428259E+02
             -0.345564771341925E+02
             -0.105514072216296E+02
              0.100838888007297E+03
              0.983884354193242E+01
             -0.109862052812405E+02
             -0.170487171084939E+03
              0.417343044736245E+02
             -0.372588342380310E+02
              0.766221175710345E+02
             -0.658391597271012E+02
             -0.101758615706643E+02
              0.266849862182615E+02
             -0.578366753794252E+02
             -0.958646716861757E+02
              0.430912547629896E+01
              0.326488194556414E+02
             -0.392088020302060E+01
             -0.251535485216821E+02
             -0.139370026232205E+02
             -0.575805741652832E+02
             -0.108870041641361E+03
              0.131158192096751E+01
             -0.409080866074714E+02
             -0.100070946799117E+02
             -0.436109404312890E+02
              0.173983427868246E+03
              0.365620178740080E+02
             -0.586320374966601E+02
             -0.550665353816843E+02
              0.233264657973005E+02
              0.423696564474423E+02
              0.667768304091383E+02
             -0.478766468365859E+02
             -0.105459167066303E+03
             -0.306730559122488E+02
             -0.574865428998356E+02
              0.588883778937262E+02
              0.676229165954239E+02
              0.905791959336455E+01
              0.261887629877876E+02
              0.460055000197534E+02
              0.557168028459042E+02
             -0.106019730016519E+03
             -0.223901317888619E+02
              0.697151700023255E+01
             -0.159502863012541E+02
             -0.461687827139056E+02
              0.201985348503240E+01
             -0.177217499195321E+02
             -0.425102271155137E+02
             -0.428626627839667E+02
              0.176382844478921E+02
             -0.132865313958029E+03
             -0.677110889672982E+02
             -0.575442289456121E+02
              0.119222765228923E+03
             -0.208975330589071E+02
             -0.123741751358377E+02
              0.128938047304262E+03
             -0.632811846344538E+02
              0.782707434143877E+02
             -0.493453952658541E+02
             -0.143124057347245E+01
              0.226514087979541E+01
             -0.107909074116682E+02
             -0.591748659837850E+02
              0.167843095703513E+02
              0.913365673825933E+01
             -0.456444421912739E+02
              0.416282234685211E+02
[...]
              0.542902730566741E+02
              0.246810803978839E+02
              0.401363076283567E+02
             -0.215944022714651E+01
              0.123273505396021E+03
              0.206700664303257E+02
             -0.190189710579148E+02
              0.220755090327839E+01
             -0.125806003739386E+02
              0.101302082873490E+03
             -0.589758055905563E+01
              0.218729123840930E+02
              0.730454350839367E+02
              0.159848096828269E+02
             -0.575816067412278E+02
             -0.840359830539601E+02
              0.828919523707214E+00
             -0.945050170295281E+02
              0.321161535727973E+02
             -0.190872956938018E+02
             -0.445198536260095E+02
              0.399163849920366E+02
              0.152408774399451E+02
              0.359858790861031E+02
              0.318903814778196E+01
              0.573939972258530E+02
             -0.936710614827004E+02
             -0.863502946031537E+01
             -0.817828174103690E+02
              0.146967902217048E+02
              0.442948709595212E+02
             -0.830639108082590E+01
             -0.308264122153121E+02
              0.658903698070491E+02
             -0.304102603326958E+02
              0.214748682405729E+02
             -0.190496601574112E+02
              0.470132333932481E+02
              0.568005448524988E+02
             -0.245095278925098E+02
              0.486896489890551E+02
              0.187270880795729E+02
             -0.502976381985419E+02
             -0.301319174979226E+02
              0.812142988644580E+02
              0.385364090513182E+02
             -0.374554333909376E+01
             -0.110390299725341E+02
              0.119332923730639E+03
              0.716129344360675E+02
              0.262069135930557E+02
             -0.766444034816836E+02
              0.119836103518046E+03
             -0.542008820809834E+02
             -0.671826803065270E+02
             -0.104137150906272E+03
              0.501572152000325E+02
             -0.952308892491412E+02
              0.412058624881764E+02
              0.677965737026354E+02
              0.501633683341454E+02
              0.106540070364675E+02
              0.300209757028182E+02
             -0.749882335376232E+02
             -0.266047076636384E+02
             -0.243497090539059E+02
              0.362698155077689E+02
              0.810265653467767E+02
              0.797896412624448E+02
              0.611620332686564E+02
             -0.151599842101674E+02
              0.217087223968193E+02
              0.305807642727558E+01
             -0.240193137212965E+02
              0.358120917543201E+02
              0.343828894648935E+02
             -0.488787443771921E+02
             -0.494525661774227E+02
             -0.227368737778810E+02
              0.525436877216240E+02
              0.266720096987592E+02
             -0.356958451719876E+02
             -0.623774853740291E+02
             -0.856961416703461E+02
              0.176063204519889E+01
              0.244026678709462E+02
             -0.331386756502844E+02
              0.121713429676521E+03
              0.119722093607083E+01
             -0.141456808113738E+03
              0.354567511901598E+02
              0.583620937183163E+02
             -0.211543041022830E+02
              0.216809727660217E+01
             -0.319793200499641E+02
              0.543439392822129E+02
              0.267007470723701E+02
             -0.714373552891675E+02
              0.848270263128593E+02
              0.588962337085280E+01
             -0.339054297664569E+02
             -0.417205300346143E+02
              0.170058269161804E+03
              0.761144125482145E+02
             -0.190427420519887E+02
              0.418507334774325E+02
             -0.827960805082636E+02
             -0.180457698573064E+02
             -0.736342290072382E+02
              0.284028269372307E+02
              0.528821349659804E+02
              0.581948487477275E+02
             -0.254884074174024E+02
              0.446097740180824E+01
              0.724688861609593E+02
              0.231574688267457E+02
              0.432713001571710E+02
              0.176359428046487E+02
             -0.970867088123026E+01
              0.172190631710123E+00
             -0.134315972362913E+02
              0.149868854809051E+02
              0.509895919310679E+01
             -0.657893116564759E+02
              0.100925979820947E+03
              0.388976302223818E+02
             -0.714571037615734E+02
             -0.525906092521653E+02
             -0.741573772631378E+02
             -0.320335861529555E+02
             -0.232569543998432E+02
             -0.585668001825446E+02
             -0.578805758274398E+02
              0.696979515590396E+02
              0.554572659689467E+02
             -0.772189093002862E+01
              0.831566958176055E+02
              0.119130571214021E+02
             -0.133807949669757E+03
              0.718743507546859E+02
              0.122621233436261E+02
              0.564153569345887E+02
              0.760785512724263E+01
              0.647481596663121E+01
              0.115286302648686E+02
              0.305214855925606E+02
             -0.557815455423543E+02
             -0.263260012239825E+02
             -0.529057006751759E+02
             -0.436169663833158E+02
              0.182417838066428E+02
             -0.485128371510683E+02
              0.233168388348191E+02
              0.320103547843461E+02
             -0.297647803129776E+02
             -0.190124490945975E+02
              0.131873262011769E+01
              0.832126891087856E+02
              0.125252730346882E+02
              0.798918405412163E+02
              0.287030085077268E+02
             -0.105469985901961E+03
             -0.349804633757531E+02
              0.359869591372544E+02
              0.830695313992567E+02
              0.136762353972146E+02
              0.341589051702600E+02
              0.764148785156756E+02
             -0.442302179878714E+02
             -0.680198072207165E+02
              0.942063441259276E+02
              0.554071898161044E+01
             -0.995554281405811E+02
              0.364333498382337E+02
              0.629654759602256E+02
             -0.161110768219672E+02
             -0.656356351731355E+02
              0.136305018133672E+02
              0.288773244057984E+01
             -0.318759026057053E+02
              0.121652170961586E+02
             -0.105598826913879E+02
              0.148098976120090E+03
              0.431240694351940E+02
             -0.627215900058579E+02
              0.184776348306753E+02
              0.901769990016720E+02
             -0.610157330115612E+02
             -0.159776715323087E+02
             -0.577134464387124E+02
              0.463069793284573E+02
              0.145593006294044E+02
              0.306332299599448E+02
              0.555040702991852E+01
              0.104692619271521E+03
             -0.597023029667639E+02
             -0.470268809693936E+02
             -0.454063725528767E+02
              0.399550913553823E+02
              0.104043739872356E+03
             -0.174079295187962E+02
              0.425242489062569E+02
             -0.604688625442453E+02
              0.116362127507701E+02
             -0.193093040034223E+02
              0.433997212461315E+01
             -0.235111366899925E+02
             -0.190877948197376E+02
             -0.188332082481677E+02
              0.154074633913232E+02
              0.301361526048910E+02
             -0.660371840841959E+02
              0.488908277971337E+02
             -0.786128666060084E+02
              0.592232283508672E+02
             -0.626235152442160E+02
              0.101673347496304E+03
              0.558822580418483E+02
              0.643337792481723E+02
              0.160135718710663E+02
              0.187556185914724E+02
             -0.140511880756020E+03
              0.225938166365209E+02
              0.507887200717312E+01
              0.133418114524957E+02
             -0.229147835126618E+02
              0.108594575326720E+03
             -0.251672799273912E+02
             -0.448556577348660E+02
             -0.104961435739251E+03
             -0.364252637442252E+02
             -0.503902904449010E+02
             -0.439036772198817E+02
             -0.982552584135277E+01
             -0.239518044355503E+02
             -0.306186587427188E+02
             -0.467708696260240E+02
              0.357346268873331E+02
              0.112901878311973E+03
              0.953606754388359E+02
             -0.169170198813265E+02
             -0.114575507952385E+03
             -0.489016292372617E+02
              0.234048535593267E+02
              0.235006477373433E+02
              0.374512708927479E+02
              0.263302670660098E+02
              0.462005163384492E+01
              0.111896488621732E+03
             -0.271665747915457E+02
              0.550062470747116E+02
              0.284357021576637E+02
             -0.381790201514450E+02
             -0.183012509553184E+02
              0.506948221105694E+02
             -0.271600910235383E+02
             -0.166771878423796E+02
             -0.123524971513076E+02
              0.652891429733892E+02
             -0.859529099320629E+02
             -0.698862515634050E+01
             -0.663296326040872E+02
             -0.140859555832719E+03
             -0.437644783023075E+00
             -0.208583045313636E+02
              0.547745209611479E+02
              0.607896048726617E+02
              0.831890704521682E+02
             -0.540761006488623E+02
              0.841918800393186E+02
              0.210598707747268E+02
             -0.313207847363012E+02
              0.112201295988287E+02
             -0.264595148612142E+02
             -0.156387428709018E+02
              0.486821509320259E+02
             -0.402961461875728E+02
              0.108055237514648E+03
             -0.287872599606428E+02
             -0.598226790053324E+02
              0.113024049876297E+03
             -0.611807280918827E+02
             -0.492836191960976E+01
              0.587314808773345E+01
              0.324904931798471E+02
             -0.476799667621166E+02
             -0.363449244882910E+02
              0.579925477764617E+02
             -0.874056729923561E+02
              0.719803505977731E+02
              0.106462672145784E+02
              0.516018159159858E+02
              0.746963447487804E+02
              0.192150072333797E+02
             -0.103936578420811E+03
             -0.449632618865884E+02
             -0.750667423091638E+02
             -0.445731325269016E+02
             -0.118749887876151E+02
              0.161289635989925E+02
             -0.348976119850482E+02
             -0.589028977448834E+00
             -0.104174676058878E+03
              0.576148742856708E+01
             -0.672411426181465E+02
              0.651113639692437E+02
             -0.380627563381140E+02
             -0.925757844147794E+01
              0.492221164591927E+02
              0.977042106404043E+01
              0.456961964532591E+02
             -0.872245792194063E+02
              0.144184875693586E+02
              0.594578646345104E+01
              0.375775519652657E+02
              0.602179086864983E+02
             -0.111076695052352E+02
             -0.684274613353620E+02
             -0.397648503813525E+02
             -0.278504175507776E+02
             -0.812759611957063E+01
              0.638363402528810E+02
              0.415085927230344E+02
             -0.419438480367324E+02
             -0.394046097835790E+02
              0.289487762253234E+02
              0.315215097095176E+02
             -0.852103741997134E+02
              0.198109337608931E+02
              0.609476188355631E+02
             -0.277860622344717E+01
              0.770615050246931E+02
              0.354597928029816E+02
              0.604636320447933E+02
              0.920494837182675E+02
              0.137553434574725E+02
             -0.125275908268867E+03
              0.172752390658385E+02
              0.135502126065440E+03
              0.984952741516202E+02
             -0.679143844165687E+02
              0.613551311012176E+01
              0.881822445997394E+02
              0.762813035513862E+02
              0.335716859652908E+02
             -0.203456682940373E+02
              0.337530292554784E+02
              0.698212331001353E+02
             -0.322905085061830E+02
             -0.208440376827958E+02
              0.472866458650585E+02
             -0.279654911500865E+01
              0.425944233568743E+02
             -0.129997585023041E+02
              0.885869489011268E+02
             -0.336753808100981E+02
              0.203442359089072E+02
             -0.374599848094018E+02
              0.438120745475233E+02
             -0.592559623372483E+01
              0.653436555417785E+02
              0.463267659919435E+01
              0.293091573461244E+02
             -0.415936977138590E+02
             -0.290062135150671E+02
             -0.148392331887156E+02
             -0.134973512436127E+02
              0.712151298048021E+02
              0.350888379731687E+02
              0.862851173088989E+02
              0.796244874907176E+02
              0.223342198053844E+02
              0.391531639282840E+01
              0.848419621551589E+02
              0.477058390705873E+02
              0.232938672402213E+00
              0.827291354667620E+02
             -0.678593540655647E+02
              0.237996132523213E+02
             -0.442822230161214E+02
             -0.119259617913596E+02
              0.114275396998580E+03
             -0.159634563819204E+02
             -0.484089792626708E+01
             -0.123974910940639E+02
              0.939231310132676E+02
             -0.201280184304613E+02
             -0.172767880438687E+01
              0.189368535926954E+03
             -0.560147230613013E+02
             -0.700188713146375E+02
             -0.700506395415400E+02
             -0.446776244958776E+02
              0.408823207425033E+02
             -0.182993297198952E+02
              0.103741825683346E+02
             -0.470733657964479E+01
              0.241126934934348E+02
              0.385078931285620E+02
              0.448885789358908E+02
              0.647234931371961E+02
              0.414048219491057E+02
              0.422094994341334E+02
             -0.782027349811484E+02
             -0.807475329095497E+02
             -0.182127887121906E+02
             -0.721589539436017E+02
              0.114587483599384E+03
              0.964559393548237E+02
              0.455373040296354E+02
              0.125444178861095E+03
             -0.626168359860321E+02
             -0.270392339993622E+02
             -0.389933183751857E+02
              0.108609596787560E+03
 
 BEEF-vdW xc energy contributions
            1 :    -981.2321934776965     
            2 :     898.8449495159623     
            3 :    -758.5204505108350     
            4 :     597.9242980329524     
            5 :    -452.4345738423604     
            6 :     343.6069513359278     
            7 :    -275.6235889079358     
            8 :     238.7834060076020     
            9 :    -216.8147594273469     
           10 :     194.7358462433117     
           11 :    -164.4933762138239     
           12 :     126.5100581010475     
           13 :    -87.08624570940151     
           14 :     53.65730483992002     
           15 :    -30.69919626634146     
           16 :     18.10020831585575     
           17 :    -12.10135284836065     
           18 :     7.718975990667104     
           19 :    -1.266442243489564     
           20 :    -8.140967668001622     
           21 :     18.66187206872178     
           22 :    -27.20275435178587     
           23 :     31.40688621381059     
           24 :    -31.03854990359901     
           25 :     28.06008259089390     
           26 :    -25.48473993503330     
           27 :     25.73115837999831     
           28 :    -29.38046530786778     
           29 :     34.94908393839705     
           30 :    -39.74393466588981     
           31 :    -85.03162620623084     
           32 :    -61.22580110305807     

     Writing all to output data dir ./PbI2.save/
 
     init_run     :      4.24s CPU      7.25s WALL (       1 calls)
     electrons    :     33.02s CPU     34.84s WALL (       1 calls)
     forces       :      3.53s CPU      3.83s WALL (       1 calls)
     stress       :     43.66s CPU     44.32s WALL (       1 calls)

     Called by init_run:
     wfcinit      :      0.79s CPU      3.46s WALL (       1 calls)
     potinit      :      2.22s CPU      2.33s WALL (       1 calls)
     hinit0       :      0.60s CPU      0.63s WALL (       1 calls)

     Called by electrons:
     c_bands      :     27.87s CPU     28.95s WALL (       2 calls)
     sum_band     :      3.70s CPU      4.15s WALL (       2 calls)
     v_of_rho     :      2.31s CPU      2.44s WALL (       2 calls)
     v_h          :      0.01s CPU      0.02s WALL (       2 calls)
     v_xc         :     21.48s CPU     23.86s WALL (      38 calls)
     newd         :      0.80s CPU      1.14s WALL (       2 calls)
     PAW_pot      :      0.89s CPU      0.89s WALL (       2 calls)
     mix_rho      :      0.00s CPU      0.00s WALL (       2 calls)
     vdW_kernel   :      1.17s CPU      1.18s WALL (       1 calls)

     Called by c_bands:
     init_us_2    :      0.51s CPU      0.53s WALL (      24 calls)
     init_us_2:cp :      0.51s CPU      0.52s WALL (      24 calls)
     cegterg      :     27.09s CPU     27.96s WALL (       8 calls)

     Called by sum_band:
     sum_band:wei :      0.00s CPU      0.00s WALL (       2 calls)
     sum_band:loo :      2.77s CPU      2.81s WALL (       2 calls)
     sum_band:buf :      0.14s CPU      0.15s WALL (       8 calls)
     sum_band:ini :      0.18s CPU      0.19s WALL (       8 calls)
     sum_band:cal :      0.59s CPU      0.59s WALL (       8 calls)
     sum_band:bec :      0.00s CPU      0.00s WALL (       8 calls)
     addusdens    :      0.89s CPU      1.30s WALL (       2 calls)
     addusd:skk   :      0.01s CPU      0.02s WALL (       4 calls)
     addusd:dgemm :      0.50s CPU      0.89s WALL (       4 calls)
     addusd:qvan2 :      0.36s CPU      0.36s WALL (       4 calls)

     Called by *egterg:
     cdiaghg      :      6.81s CPU      6.84s WALL (      52 calls)
     cegterg:over :      2.78s CPU      2.84s WALL (      52 calls)
     cegterg:upda :      2.16s CPU      2.29s WALL (      52 calls)
     cegterg:last :      0.75s CPU      0.75s WALL (       8 calls)
     h_psi        :     11.62s CPU     11.89s WALL (      60 calls)
     s_psi        :      1.75s CPU      1.77s WALL (      60 calls)
     g_psi        :      0.09s CPU      0.09s WALL (      52 calls)

     Called by h_psi:
     h_psi:calbec :      1.84s CPU      1.86s WALL (      60 calls)
     vloc_psi     :      7.83s CPU      7.90s WALL (      60 calls)
     add_vuspsi   :      1.75s CPU      1.76s WALL (      60 calls)

     General routines
     calbec       :      4.95s CPU      4.98s WALL (      88 calls)
     fft          :      9.63s CPU      9.73s WALL (    2232 calls)
     ffts         :      0.01s CPU      0.01s WALL (       4 calls)
     fftw         :      8.79s CPU      8.86s WALL (    9706 calls)
     interpolate  :      0.02s CPU      0.02s WALL (       2 calls)
 
     Parallel routines

     PAW routines
     PAW_pot      :      0.89s CPU      0.89s WALL (       2 calls)
 
     PWSCF        :   1m43.54s CPU   1m53.21s WALL

 
   This run was terminated on:  14:27:32  28Mar2024            

=------------------------------------------------------------------------------=
   JOB DONE.
=------------------------------------------------------------------------------=
