
     Program PWSCF v.7.1 starts on 20Feb2024 at 15:45:53 

     This program is part of the open-source Quantum ESPRESSO suite
     for quantum simulation of materials; please cite
         "P. Giannozzi et al., J. Phys.:Condens. Matter 21 395502 (2009);
         "P. Giannozzi et al., J. Phys.:Condens. Matter 29 465901 (2017);
         "P. Giannozzi et al., J. Chem. Phys. 152 154105 (2020);
          URL http://www.quantum-espresso.org", 
     in publications or presentations arising from this work. More details at
     http://www.quantum-espresso.org/quote

     Parallel version (MPI & OpenMP), running on     128 processor cores
     Number of MPI processes:               128
     Threads/MPI process:                     1

     MPI processes distributed on     1 nodes
     1896350 MiB available memory on the printing compute node when the environment starts
 
     Reading input from espresso.pwi

     Current dimensions of program PWSCF are:
     Max number of different atomic species (ntypx) = 10
     Max number of k-points (npk) =  40000
     Max angular momentum in pseudopotentials (lmaxx) =  4
     file I.pbe-dn-kjpaw_psl.1.0.0.UPF: wavefunction(s)  5S 5P renormalized

     **************************************************************************
     Initializing libbeef V0.1.2 with the BEEF-vdW functional.
     Citation: Wellendorff et al., PRB 85, 235149 (2012).
     **************************************************************************


     IMPORTANT: XC functional enforced from input :
     Exchange-correlation= BEEF-VDW
                           (   1   4  43  14   2   0   0)
     Any further DFT definition will be discarded
     Please, verify this is what you really want

     Found identity + (  0.5000 -0.5000  0.5000) symmetry
     This is a supercell, fractional translations are disabled
 
     K-points division:     npool     =       4
     R & G space division:  proc/nbgrp/npool/nimage =      32
     Subspace diagonalization in iterative solution of the eigenvalue problem:
     a serial algorithm will be used

 
     Parallelization info
     --------------------
     sticks:   dense  smooth     PW     G-vecs:    dense   smooth      PW
     Min          37      30      8                 2087     1492     234
     Max          38      31      9                 2096     1499     245
     Sum        1199     963    281                66921    47833    7709
 
     Using Slab Decomposition
 


     bravais-lattice index     =            8
     lattice parameter (alat)  =       5.4432  a.u.
     unit-cell volume          =     604.7422 (a.u.)^3
     number of atoms/cell      =            2
     number of atomic types    =            1
     number of electrons       =        34.00
     number of Kohn-Sham states=           21
     kinetic-energy cutoff     =      70.0000  Ry
     charge density cutoff     =     350.0000  Ry
     scf convergence threshold =      1.0E-07
     mixing beta               =       0.7000
     number of iterations used =            8  plain     mixing
     energy convergence thresh.=      1.0E-04
     force convergence thresh. =      1.0E-03
     press convergence thresh. =      5.0E-01
     Exchange-correlation= BEEF-VDW
                           (   1   4  43  14   2   0   0)
     nstep                     =           50


     celldm(1)=   5.443219  celldm(2)=   1.456972  celldm(3)=   2.573663
     celldm(4)=   0.000000  celldm(5)=   0.000000  celldm(6)=   0.000000

     crystal axes: (cart. coord. in units of alat)
               a(1) = (   1.000000   0.000000   0.000000 )  
               a(2) = (   0.000000   1.456972   0.000000 )  
               a(3) = (   0.000000   0.000000   2.573663 )  

     reciprocal axes: (cart. coord. in units 2 pi/alat)
               b(1) = (  1.000000  0.000000  0.000000 )  
               b(2) = (  0.000000  0.686355  0.000000 )  
               b(3) = (  0.000000  0.000000  0.388551 )  


     PseudoPot. # 1 for I  read from file:
     /trace/group/acmegroup/atimmins/packages/espresso/pseudo/psl_1.0.0/pslibrary.1.0.0/pbe/PSEUDOPOTENTIALS/I.pbe-dn-kjpaw_psl.1.0.0.UPF
     MD5 check sum: bfa8781bc1224d19af3f3980e3fab11e
     Pseudo is Projector augmented-wave + core cor, Zval = 17.0
     Generated using 'atomic' code by A. Dal Corso  v.7.1
     Shape of augmentation charge: PSQ
     Using radial grid of 1247 points,  6 beta functions with: 
                l(1) =   0
                l(2) =   0
                l(3) =   1
                l(4) =   1
                l(5) =   2
                l(6) =   2
     Q(r) pseudized with 0 coefficients 


     atomic species   valence    mass     pseudopotential
        I             17.00   126.90447     I ( 1.00)

      8 Sym. Ops., with inversion, found


                                    s                        frac. trans.

      isym =  1     identity                                     

 cryst.   s( 1) = (     1          0          0      )
                  (     0          1          0      )
                  (     0          0          1      )

 cart.    s( 1) = (  1.0000000  0.0000000  0.0000000 )
                  (  0.0000000  1.0000000  0.0000000 )
                  (  0.0000000  0.0000000  1.0000000 )


      isym =  2     180 deg rotation - cart. axis [0,0,1]        

 cryst.   s( 2) = (    -1          0          0      )
                  (     0         -1          0      )
                  (     0          0          1      )

 cart.    s( 2) = ( -1.0000000  0.0000000  0.0000000 )
                  (  0.0000000 -1.0000000  0.0000000 )
                  (  0.0000000  0.0000000  1.0000000 )


      isym =  3     180 deg rotation - cart. axis [0,1,0]        

 cryst.   s( 3) = (    -1          0          0      )
                  (     0          1          0      )
                  (     0          0         -1      )

 cart.    s( 3) = ( -1.0000000  0.0000000  0.0000000 )
                  (  0.0000000  1.0000000  0.0000000 )
                  (  0.0000000  0.0000000 -1.0000000 )


      isym =  4     180 deg rotation - cart. axis [1,0,0]        

 cryst.   s( 4) = (     1          0          0      )
                  (     0         -1          0      )
                  (     0          0         -1      )

 cart.    s( 4) = (  1.0000000  0.0000000  0.0000000 )
                  (  0.0000000 -1.0000000  0.0000000 )
                  (  0.0000000  0.0000000 -1.0000000 )


      isym =  5     inversion                                    

 cryst.   s( 5) = (    -1          0          0      )
                  (     0         -1          0      )
                  (     0          0         -1      )

 cart.    s( 5) = ( -1.0000000  0.0000000  0.0000000 )
                  (  0.0000000 -1.0000000  0.0000000 )
                  (  0.0000000  0.0000000 -1.0000000 )


      isym =  6     inv. 180 deg rotation - cart. axis [0,0,1]   

 cryst.   s( 6) = (     1          0          0      )
                  (     0          1          0      )
                  (     0          0         -1      )

 cart.    s( 6) = (  1.0000000  0.0000000  0.0000000 )
                  (  0.0000000  1.0000000  0.0000000 )
                  (  0.0000000  0.0000000 -1.0000000 )


      isym =  7     inv. 180 deg rotation - cart. axis [0,1,0]   

 cryst.   s( 7) = (     1          0          0      )
                  (     0         -1          0      )
                  (     0          0          1      )

 cart.    s( 7) = (  1.0000000  0.0000000  0.0000000 )
                  (  0.0000000 -1.0000000  0.0000000 )
                  (  0.0000000  0.0000000  1.0000000 )


      isym =  8     inv. 180 deg rotation - cart. axis [1,0,0]   

 cryst.   s( 8) = (    -1          0          0      )
                  (     0          1          0      )
                  (     0          0          1      )

 cart.    s( 8) = ( -1.0000000  0.0000000  0.0000000 )
                  (  0.0000000  1.0000000  0.0000000 )
                  (  0.0000000  0.0000000  1.0000000 )


     point group D_2h (mmm) 
     there are  8 classes
     the character table:

       E     C2    C2'   C2''  i     s_v   s_v'  s_v''
A_g    1.00  1.00  1.00  1.00  1.00  1.00  1.00  1.00
B_1g   1.00  1.00 -1.00 -1.00  1.00  1.00 -1.00 -1.00
B_2g   1.00 -1.00  1.00 -1.00  1.00 -1.00  1.00 -1.00
B_3g   1.00 -1.00 -1.00  1.00  1.00 -1.00 -1.00  1.00
A_u    1.00  1.00  1.00  1.00 -1.00 -1.00 -1.00 -1.00
B_1u   1.00  1.00 -1.00 -1.00 -1.00 -1.00  1.00  1.00
B_2u   1.00 -1.00  1.00 -1.00 -1.00  1.00 -1.00  1.00
B_3u   1.00 -1.00 -1.00  1.00 -1.00  1.00  1.00 -1.00

     the symmetry operations in each class and the name of the first element:

     E        1
          identity                                               
     C2       2
          180 deg rotation - cart. axis [0,0,1]                  
     C2'      4
          180 deg rotation - cart. axis [1,0,0]                  
     C2''     3
          180 deg rotation - cart. axis [0,1,0]                  
     i        5
          inversion                                              
     s_v      6
          inv. 180 deg rotation - cart. axis [0,0,1]             
     s_v'     8
          inv. 180 deg rotation - cart. axis [1,0,0]             
     s_v''    7
          inv. 180 deg rotation - cart. axis [0,1,0]             

   Cartesian axes

     site n.     atom                  positions (alat units)
         1           I   tau(   1) = (   0.0000000   0.7284860   0.0000000  )
         2           I   tau(   2) = (   0.5000000   0.0000000   1.2868316  )

   Crystallographic axes

     site n.     atom                  positions (cryst. coord.)
         1           I   tau(   1) = (  0.0000000  0.5000000  0.0000000  )
         2           I   tau(   2) = (  0.5000000  0.0000000  0.5000000  )

     number of k points=    24  Gaussian smearing, width (Ry)=  0.0100
                       cart. coord. in units 2pi/alat
        k(    1) = (   0.0000000   0.0000000   0.0000000), wk =   0.0416667
        k(    2) = (   0.0000000   0.0000000  -0.1942756), wk =   0.0416667
        k(    3) = (   0.0000000   0.1715888   0.0000000), wk =   0.0833333
        k(    4) = (   0.0000000   0.1715888  -0.1942756), wk =   0.0833333
        k(    5) = (   0.0000000  -0.3431775   0.0000000), wk =   0.0416667
        k(    6) = (   0.0000000  -0.3431775  -0.1942756), wk =   0.0416667
        k(    7) = (   0.1666667   0.0000000   0.0000000), wk =   0.0833333
        k(    8) = (   0.1666667   0.0000000  -0.1942756), wk =   0.0833333
        k(    9) = (   0.1666667   0.1715888   0.0000000), wk =   0.1666667
        k(   10) = (   0.1666667   0.1715888  -0.1942756), wk =   0.1666667
        k(   11) = (   0.1666667  -0.3431775   0.0000000), wk =   0.0833333
        k(   12) = (   0.1666667  -0.3431775  -0.1942756), wk =   0.0833333
        k(   13) = (   0.3333333   0.0000000   0.0000000), wk =   0.0833333
        k(   14) = (   0.3333333   0.0000000  -0.1942756), wk =   0.0833333
        k(   15) = (   0.3333333   0.1715888   0.0000000), wk =   0.1666667
        k(   16) = (   0.3333333   0.1715888  -0.1942756), wk =   0.1666667
        k(   17) = (   0.3333333  -0.3431775   0.0000000), wk =   0.0833333
        k(   18) = (   0.3333333  -0.3431775  -0.1942756), wk =   0.0833333
        k(   19) = (  -0.5000000   0.0000000   0.0000000), wk =   0.0416667
        k(   20) = (  -0.5000000   0.0000000  -0.1942756), wk =   0.0416667
        k(   21) = (  -0.5000000   0.1715888   0.0000000), wk =   0.0833333
        k(   22) = (  -0.5000000   0.1715888  -0.1942756), wk =   0.0833333
        k(   23) = (  -0.5000000  -0.3431775   0.0000000), wk =   0.0416667
        k(   24) = (  -0.5000000  -0.3431775  -0.1942756), wk =   0.0416667

                       cryst. coord.
        k(    1) = (   0.0000000   0.0000000   0.0000000), wk =   0.0416667
        k(    2) = (   0.0000000   0.0000000  -0.5000000), wk =   0.0416667
        k(    3) = (   0.0000000   0.2500000   0.0000000), wk =   0.0833333
        k(    4) = (   0.0000000   0.2500000  -0.5000000), wk =   0.0833333
        k(    5) = (   0.0000000  -0.5000000   0.0000000), wk =   0.0416667
        k(    6) = (   0.0000000  -0.5000000  -0.5000000), wk =   0.0416667
        k(    7) = (   0.1666667   0.0000000   0.0000000), wk =   0.0833333
        k(    8) = (   0.1666667   0.0000000  -0.5000000), wk =   0.0833333
        k(    9) = (   0.1666667   0.2500000   0.0000000), wk =   0.1666667
        k(   10) = (   0.1666667   0.2500000  -0.5000000), wk =   0.1666667
        k(   11) = (   0.1666667  -0.5000000   0.0000000), wk =   0.0833333
        k(   12) = (   0.1666667  -0.5000000  -0.5000000), wk =   0.0833333
        k(   13) = (   0.3333333   0.0000000   0.0000000), wk =   0.0833333
        k(   14) = (   0.3333333   0.0000000  -0.5000000), wk =   0.0833333
        k(   15) = (   0.3333333   0.2500000   0.0000000), wk =   0.1666667
        k(   16) = (   0.3333333   0.2500000  -0.5000000), wk =   0.1666667
        k(   17) = (   0.3333333  -0.5000000   0.0000000), wk =   0.0833333
        k(   18) = (   0.3333333  -0.5000000  -0.5000000), wk =   0.0833333
        k(   19) = (  -0.5000000   0.0000000   0.0000000), wk =   0.0416667
        k(   20) = (  -0.5000000   0.0000000  -0.5000000), wk =   0.0416667
        k(   21) = (  -0.5000000   0.2500000   0.0000000), wk =   0.0833333
        k(   22) = (  -0.5000000   0.2500000  -0.5000000), wk =   0.0833333
        k(   23) = (  -0.5000000  -0.5000000   0.0000000), wk =   0.0416667
        k(   24) = (  -0.5000000  -0.5000000  -0.5000000), wk =   0.0416667

     Dense  grid:    66921 G-vectors     FFT dimensions: (  36,  48,  90)

     Smooth grid:    47833 G-vectors     FFT dimensions: (  30,  45,  75)

     Dynamical RAM for                 wfc:       0.06 MB

     Dynamical RAM for     wfc (w. buffer):       0.42 MB

     Dynamical RAM for           str. fact:       0.03 MB

     Dynamical RAM for           local pot:       0.00 MB

     Dynamical RAM for          nlocal pot:       0.10 MB

     Dynamical RAM for                qrad:       3.00 MB

     Dynamical RAM for          rho,v,vnew:       0.21 MB

     Dynamical RAM for               rhoin:       0.07 MB

     Dynamical RAM for            rho*nmix:       0.51 MB

     Dynamical RAM for           G-vectors:       0.13 MB

     Dynamical RAM for          h,s,v(r/c):       0.32 MB

     Dynamical RAM for          <psi|beta>:       0.01 MB

     Dynamical RAM for                 psi:       0.24 MB

     Dynamical RAM for                hpsi:       0.24 MB

     Dynamical RAM for                spsi:       0.24 MB

     Dynamical RAM for      wfcinit/wfcrot:       0.13 MB

     Dynamical RAM for           addusdens:       1.53 MB

     Dynamical RAM for          addusforce:       1.54 MB

     Dynamical RAM for         addusstress:       1.62 MB

     Estimated static dynamical RAM per process >       4.23 MB

     Estimated max dynamical RAM per process >       6.36 MB

     Estimated total dynamical RAM >     765.55 MB

     Check: negative core charge=   -0.000002

     Initial potential from superposition of free atoms

     starting charge      33.9999, renormalised to      34.0000


     %%%%%%%%%%%%%%%%%%%%%%%%%%%%%%%%%%%%%%%%%%%%%%%%%%%%%%%%%%%%%%%%%%%%%%%%
     %                                                                      %
     % You are using vdW-DF, which was implemented by the Thonhauser group. %
     % Please cite the following two papers that made this development      %
     % possible and the two reviews that describe the various versions:     %
     %                                                                      %
     %   T. Thonhauser et al., PRL 115, 136402 (2015).                      %
     %   T. Thonhauser et al., PRB 76, 125112 (2007).                       %
     %   K. Berland et al., Rep. Prog. Phys. 78, 066501 (2015).             %
     %   D.C. Langreth et al., J. Phys.: Condens. Matter 21, 084203 (2009). %
     %                                                                      %
     % If you are calculating stress with vdW-DF, please also cite:         %
     %                                                                      %
     %   R. Sabatini et al., J. Phys.: Condens. Matter 24, 424209 (2012).   %
     %                                                                      %
     %%%%%%%%%%%%%%%%%%%%%%%%%%%%%%%%%%%%%%%%%%%%%%%%%%%%%%%%%%%%%%%%%%%%%%%%

     %%%%%%%%%%%%%%%%%%%%%%%%%%%%%%%%%%%%%%%%%%%%%%%%%%%%%%%%%%%%%%%%%%%%%%%%
     %                                                                      %
     %  vdW-DF NEWS:                                                        %
     %                                                                      %
     %  * vdW-DF3 is now available. DOI: 10.1021/acs.jctc.0c00471           %
     %    use with input_dft = 'vdW-DF3-opt1' or 'vdW-DF3-opt2'             %
     %                                                                      %
     %  * Unscreened and range-separated vdW-DF hybrid functionals          %
     %    DOI: 10.1063/1.4986522 and 10.1088/1361-648X/ac2ad2               %
     %    use with input_dft = 'vdW-DF-cx0' (etc) and 'vdW-DF-ahcx'         %
     %                                                                      %
     %%%%%%%%%%%%%%%%%%%%%%%%%%%%%%%%%%%%%%%%%%%%%%%%%%%%%%%%%%%%%%%%%%%%%%%%


     Carrying out vdW-DF run using the following parameters:
     Nqs    =  20  Npoints =  1024  r_max =  100.000
     q_mesh =  0.00001000  0.04494208  0.09755937  0.15916263
               0.23128650  0.31572767  0.41458969  0.53033537
               0.66584808  0.82450364  1.01025438  1.22772762
               1.48234092  1.78043706  2.12944203  2.53805004
               3.01644009  3.57652955  4.23227104  5.00000000


     -----------------------------------------------
     Non-local corr. energy    =       1.15683129 Ry
     -----------------------------------------------

     Starting wfcs are   18 randomized atomic wfcs +    3 random wfcs
     Checking if some PAW data can be deallocated... 

     total cpu time spent up to now is        0.8 secs

     Self-consistent Calculation

     iteration #  1     ecut=    70.00 Ry     beta= 0.70
     Davidson diagonalization with overlap

---- Real-time Memory Report at c_bands before calling an iterative solver
           143 MiB given to the printing process from OS
             0 MiB allocation reported by mallinfo(arena+hblkhd)
       1892813 MiB available memory on the node where the printing process lives
------------------
     ethr =  1.00E-02,  avg # of iterations =  8.2

     Threshold (ethr) on eigenvalues was too large:
     Diagonalizing with lowered threshold

     Davidson diagonalization with overlap

---- Real-time Memory Report at c_bands before calling an iterative solver
           146 MiB given to the printing process from OS
             0 MiB allocation reported by mallinfo(arena+hblkhd)
       1892738 MiB available memory on the node where the printing process lives
------------------
     ethr =  1.37E-04,  avg # of iterations =  7.6


     -----------------------------------------------
     Non-local corr. energy    =       1.15685569 Ry
     -----------------------------------------------


     total cpu time spent up to now is        1.4 secs

     total energy              =   -1127.12210260 Ry
     estimated scf accuracy    <       0.04204439 Ry

     iteration #  2     ecut=    70.00 Ry     beta= 0.70
     Davidson diagonalization with overlap

---- Real-time Memory Report at c_bands before calling an iterative solver
           156 MiB given to the printing process from OS
             0 MiB allocation reported by mallinfo(arena+hblkhd)
       1891896 MiB available memory on the node where the printing process lives
------------------
     ethr =  1.24E-04,  avg # of iterations =  2.1


     -----------------------------------------------
     Non-local corr. energy    =       1.15770227 Ry
     -----------------------------------------------


     total cpu time spent up to now is        1.6 secs

     total energy              =   -1127.12713251 Ry
     estimated scf accuracy    <       0.00074579 Ry

     iteration #  3     ecut=    70.00 Ry     beta= 0.70
     Davidson diagonalization with overlap

---- Real-time Memory Report at c_bands before calling an iterative solver
           157 MiB given to the printing process from OS
             0 MiB allocation reported by mallinfo(arena+hblkhd)
       1891823 MiB available memory on the node where the printing process lives
------------------
     c_bands:  1 eigenvalues not converged
     ethr =  2.19E-06,  avg # of iterations = 11.8


     -----------------------------------------------
     Non-local corr. energy    =       1.15775010 Ry
     -----------------------------------------------


     total cpu time spent up to now is        2.0 secs

     total energy              =   -1127.12732172 Ry
     estimated scf accuracy    <       0.00591276 Ry

     iteration #  4     ecut=    70.00 Ry     beta= 0.70
     Davidson diagonalization with overlap

---- Real-time Memory Report at c_bands before calling an iterative solver
           158 MiB given to the printing process from OS
             0 MiB allocation reported by mallinfo(arena+hblkhd)
       1891771 MiB available memory on the node where the printing process lives
------------------
     ethr =  2.19E-06,  avg # of iterations =  5.6


     -----------------------------------------------
     Non-local corr. energy    =       1.15785240 Ry
     -----------------------------------------------


     total cpu time spent up to now is        2.2 secs

     total energy              =   -1127.12806258 Ry
     estimated scf accuracy    <       0.00035606 Ry

     iteration #  5     ecut=    70.00 Ry     beta= 0.70
     Davidson diagonalization with overlap

---- Real-time Memory Report at c_bands before calling an iterative solver
           159 MiB given to the printing process from OS
             0 MiB allocation reported by mallinfo(arena+hblkhd)
       1891758 MiB available memory on the node where the printing process lives
------------------
     ethr =  1.05E-06,  avg # of iterations =  2.2


     -----------------------------------------------
     Non-local corr. energy    =       1.15812245 Ry
     -----------------------------------------------


     total cpu time spent up to now is        2.4 secs

     total energy              =   -1127.12808288 Ry
     estimated scf accuracy    <       0.00008850 Ry

     iteration #  6     ecut=    70.00 Ry     beta= 0.70
     Davidson diagonalization with overlap

---- Real-time Memory Report at c_bands before calling an iterative solver
           159 MiB given to the printing process from OS
             0 MiB allocation reported by mallinfo(arena+hblkhd)
       1891736 MiB available memory on the node where the printing process lives
------------------
     ethr =  2.60E-07,  avg # of iterations =  3.5


     -----------------------------------------------
     Non-local corr. energy    =       1.15814534 Ry
     -----------------------------------------------


     total cpu time spent up to now is        2.7 secs

     total energy              =   -1127.12808851 Ry
     estimated scf accuracy    <       0.00000366 Ry

     iteration #  7     ecut=    70.00 Ry     beta= 0.70
     Davidson diagonalization with overlap

---- Real-time Memory Report at c_bands before calling an iterative solver
           159 MiB given to the printing process from OS
             0 MiB allocation reported by mallinfo(arena+hblkhd)
       1891711 MiB available memory on the node where the printing process lives
------------------
     ethr =  1.08E-08,  avg # of iterations =  4.4


     -----------------------------------------------
     Non-local corr. energy    =       1.15815832 Ry
     -----------------------------------------------


     total cpu time spent up to now is        3.0 secs

     total energy              =   -1127.12809128 Ry
     estimated scf accuracy    <       0.00000434 Ry

     iteration #  8     ecut=    70.00 Ry     beta= 0.70
     Davidson diagonalization with overlap

---- Real-time Memory Report at c_bands before calling an iterative solver
           159 MiB given to the printing process from OS
             0 MiB allocation reported by mallinfo(arena+hblkhd)
       1891682 MiB available memory on the node where the printing process lives
------------------
     ethr =  1.08E-08,  avg # of iterations =  1.0


     -----------------------------------------------
     Non-local corr. energy    =       1.15818800 Ry
     -----------------------------------------------


     total cpu time spent up to now is        3.1 secs

     total energy              =   -1127.12809121 Ry
     estimated scf accuracy    <       0.00000095 Ry

     iteration #  9     ecut=    70.00 Ry     beta= 0.70
     Davidson diagonalization with overlap

---- Real-time Memory Report at c_bands before calling an iterative solver
           160 MiB given to the printing process from OS
             0 MiB allocation reported by mallinfo(arena+hblkhd)
       1891678 MiB available memory on the node where the printing process lives
------------------
     ethr =  2.79E-09,  avg # of iterations =  3.1


     -----------------------------------------------
     Non-local corr. energy    =       1.15818685 Ry
     -----------------------------------------------


     total cpu time spent up to now is        3.4 secs

     End of self-consistent calculation

          k = 0.0000 0.0000 0.0000 (  5991 PWs)   bands (ev):

   -41.6326 -41.6318 -41.4438 -41.4430 -41.4331 -41.4323 -41.0775 -41.0774
   -41.0766 -41.0766  -9.3831  -9.1387   0.7564   2.2943   2.6396   2.7106
     7.9237   8.1050   8.8716   9.6767  12.2956

     occupation numbers 
     1.0000   1.0000   1.0000   1.0000   1.0000   1.0000   1.0000   1.0000
     1.0000   1.0000   1.0000   1.0000   1.0000   1.0000   1.0000   1.0000
     0.0000   0.0000   0.0000   0.0000   0.0000

          k = 0.0000 0.0000-0.1943 (  5962 PWs)   bands (ev):

   -41.6326 -41.6318 -41.4438 -41.4430 -41.4331 -41.4323 -41.0775 -41.0774
   -41.0766 -41.0766  -9.2646  -9.2645   1.5691   1.5692   2.4922   2.4922
     8.0126   8.0126  10.0407  10.0408  11.9552

     occupation numbers 
     1.0000   1.0000   1.0000   1.0000   1.0000   1.0000   1.0000   1.0000
     1.0000   1.0000   1.0000   1.0000   1.0000   1.0000   1.0000   1.0000
     0.0000   0.0000   0.0000   0.0000   0.0000

          k = 0.0000 0.1716 0.0000 (  5973 PWs)   bands (ev):

   -41.6326 -41.6317 -41.4439 -41.4430 -41.4331 -41.4323 -41.0775 -41.0772
   -41.0766 -41.0763  -9.2781  -9.1001   1.0540   1.5201   1.7847   2.4244
     8.0008   8.1315  10.2202  11.4163  11.6585

     occupation numbers 
     1.0000   1.0000   1.0000   1.0000   1.0000   1.0000   1.0000   1.0000
     1.0000   1.0000   1.0000   1.0000   1.0000   1.0000   1.0000   1.0000
     0.0000   0.0000   0.0000   0.0000   0.0000

          k = 0.0000 0.1716-0.1943 (  5972 PWs)   bands (ev):

   -41.6326 -41.6317 -41.4439 -41.4430 -41.4331 -41.4323 -41.0775 -41.0772
   -41.0766 -41.0763  -9.1908  -9.1908   1.2476   1.2476   2.1522   2.1522
     8.0653   8.0654  10.4970  10.4970  12.1585

     occupation numbers 
     1.0000   1.0000   1.0000   1.0000   1.0000   1.0000   1.0000   1.0000
     1.0000   1.0000   1.0000   1.0000   1.0000   1.0000   1.0000   1.0000
     0.0000   0.0000   0.0000   0.0000   0.0000

          k = 0.0000-0.3432 0.0000 (  5978 PWs)   bands (ev):

   -41.6325 -41.6317 -41.4439 -41.4431 -41.4331 -41.4323 -41.0776 -41.0770
   -41.0767 -41.0761  -9.1145  -9.1145   0.9910   0.9910   1.7737   1.7738
     8.1192   8.1192  11.3587  11.3588  12.0860

     occupation numbers 
     1.0000   1.0000   1.0000   1.0000   1.0000   1.0000   1.0000   1.0000
     1.0000   1.0000   1.0000   1.0000   1.0000   1.0000   1.0000   1.0000
     0.0000   0.0000   0.0000   0.0000   0.0000

          k = 0.0000-0.3432-0.1943 (  5980 PWs)   bands (ev):

   -41.6325 -41.6317 -41.4439 -41.4431 -41.4331 -41.4323 -41.0776 -41.0770
   -41.0767 -41.0761  -9.1140  -9.1139   0.7224   0.7224   2.1885   2.1885
     8.1194   8.1194   9.6175   9.6175  14.8500

     occupation numbers 
     1.0000   1.0000   1.0000   1.0000   1.0000   1.0000   1.0000   1.0000
     1.0000   1.0000   1.0000   1.0000   1.0000   1.0000   1.0000   1.0000
     0.0000   0.0000   0.0000   0.0000   0.0000

          k = 0.1667 0.0000 0.0000 (  5981 PWs)   bands (ev):

   -41.6072 -41.6064 -41.4503 -41.4495 -41.4396 -41.4388 -41.0769 -41.0769
   -41.0760 -41.0760  -8.9292  -8.6909   1.2026   2.7070   3.0126   3.1055
     4.6619   4.9036   9.3657  10.1608  12.7465

     occupation numbers 
     1.0000   1.0000   1.0000   1.0000   1.0000   1.0000   1.0000   1.0000
     1.0000   1.0000   1.0000   1.0000   1.0000   1.0000   1.0000   1.0000
     0.3557   0.0020   0.0000   0.0000   0.0000

          k = 0.1667 0.0000-0.1943 (  5988 PWs)   bands (ev):

   -41.6072 -41.6064 -41.4503 -41.4495 -41.4396 -41.4388 -41.0769 -41.0769
   -41.0761 -41.0760  -8.8136  -8.8135   1.9880   1.9880   2.8968   2.8968
     4.7820   4.7820  10.5240  10.5241  12.3419

     occupation numbers 
     1.0000   1.0000   1.0000   1.0000   1.0000   1.0000   1.0000   1.0000
     1.0000   1.0000   1.0000   1.0000   1.0000   1.0000   1.0000   1.0000
     0.0528   0.0528   0.0000   0.0000   0.0000

          k = 0.1667 0.1716 0.0000 (  5987 PWs)   bands (ev):

   -41.6072 -41.6063 -41.4504 -41.4495 -41.4396 -41.4388 -41.0770 -41.0767
   -41.0761 -41.0758  -8.8251  -8.6515   1.4936   1.9429   2.1983   2.8117
     4.7644   4.9392  10.6723  11.8539  12.0564

     occupation numbers 
     1.0000   1.0000   1.0000   1.0000   1.0000   1.0000   1.0000   1.0000
     1.0000   1.0000   1.0000   1.0000   1.0000   1.0000   1.0000   1.0000
     0.0756   0.0006   0.0000   0.0000   0.0000

          k = 0.1667 0.1716-0.1943 (  5964 PWs)   bands (ev):

   -41.6072 -41.6063 -41.4504 -41.4495 -41.4396 -41.4388 -41.0770 -41.0767
   -41.0761 -41.0758  -8.7399  -8.7399   1.6802   1.6802   2.5500   2.5500
     4.8516   4.8516  10.9577  10.9578  12.5809

     occupation numbers 
     1.0000   1.0000   1.0000   1.0000   1.0000   1.0000   1.0000   1.0000
     1.0000   1.0000   1.0000   1.0000   1.0000   1.0000   1.0000   1.0000
     0.0096   0.0096   0.0000   0.0000   0.0000

          k = 0.1667-0.3432 0.0000 (  5946 PWs)   bands (ev):

   -41.6071 -41.6063 -41.4504 -41.4496 -41.4396 -41.4388 -41.0770 -41.0765
   -41.0762 -41.0756  -8.6637  -8.6637   1.4166   1.4166   2.1918   2.1918
     4.9228   4.9228  11.7358  11.7359  12.4624

     occupation numbers 
     1.0000   1.0000   1.0000   1.0000   1.0000   1.0000   1.0000   1.0000
     1.0000   1.0000   1.0000   1.0000   1.0000   1.0000   1.0000   1.0000
     0.0010   0.0010   0.0000   0.0000   0.0000

          k = 0.1667-0.3432-0.1943 (  5992 PWs)   bands (ev):

   -41.6071 -41.6063 -41.4504 -41.4496 -41.4396 -41.4388 -41.0770 -41.0765
   -41.0761 -41.0756  -8.6632  -8.6632   1.1604   1.1604   2.5832   2.5832
     4.9224   4.9224  10.0998  10.0999  14.7927

     occupation numbers 
     1.0000   1.0000   1.0000   1.0000   1.0000   1.0000   1.0000   1.0000
     1.0000   1.0000   1.0000   1.0000   1.0000   1.0000   1.0000   1.0000
     0.0010   0.0010   0.0000   0.0000   0.0000

          k = 0.3333 0.0000 0.0000 (  5996 PWs)   bands (ev):

   -41.5563 -41.5554 -41.4633 -41.4625 -41.4526 -41.4518 -41.0759 -41.0758
   -41.0750 -41.0749  -7.6737  -7.4711   0.5257   0.7375   2.4199   3.7565
     3.8230   4.0607  10.8055  11.5698  11.9738

     occupation numbers 
     1.0000   1.0000   1.0000   1.0000   1.0000   1.0000   1.0000   1.0000
     1.0000   1.0000   1.0000   1.0000   1.0000   1.0000   1.0000   1.0000
     1.0000   1.0000   0.0000   0.0000   0.0000

          k = 0.3333 0.0000-0.1943 (  5988 PWs)   bands (ev):

   -41.5563 -41.5554 -41.4633 -41.4625 -41.4526 -41.4518 -41.0758 -41.0758
   -41.0750 -41.0749  -7.5748  -7.5748   0.6167   0.6167   3.0841   3.0841
     3.9034   3.9034  11.4325  11.4325  12.3544

     occupation numbers 
     1.0000   1.0000   1.0000   1.0000   1.0000   1.0000   1.0000   1.0000
     1.0000   1.0000   1.0000   1.0000   1.0000   1.0000   1.0000   1.0000
     1.0000   1.0000   0.0000   0.0000   0.0000

          k = 0.3333 0.1716 0.0000 (  5991 PWs)   bands (ev):

   -41.5562 -41.5554 -41.4633 -41.4625 -41.4526 -41.4518 -41.0759 -41.0756
   -41.0750 -41.0747  -7.5741  -7.4264   0.6235   0.7784   2.6759   3.0399
     3.2402   3.7035  11.3794  11.9008  12.0453

     occupation numbers 
     1.0000   1.0000   1.0000   1.0000   1.0000   1.0000   1.0000   1.0000
     1.0000   1.0000   1.0000   1.0000   1.0000   1.0000   1.0000   1.0000
     1.0000   1.0000   0.0000   0.0000   0.0000

          k = 0.3333 0.1716-0.1943 (  5992 PWs)   bands (ev):

   -41.5562 -41.5554 -41.4633 -41.4625 -41.4526 -41.4518 -41.0759 -41.0756
   -41.0750 -41.0747  -7.5014  -7.5013   0.6948   0.6948   2.8306   2.8306
     3.5140   3.5140  11.7575  11.7576  12.2715

     occupation numbers 
     1.0000   1.0000   1.0000   1.0000   1.0000   1.0000   1.0000   1.0000
     1.0000   1.0000   1.0000   1.0000   1.0000   1.0000   1.0000   1.0000
     1.0000   1.0000   0.0000   0.0000   0.0000

          k = 0.3333-0.3432 0.0000 (  5962 PWs)   bands (ev):

   -41.5561 -41.5553 -41.4634 -41.4626 -41.4526 -41.4518 -41.0760 -41.0754
   -41.0751 -41.0745  -7.4251  -7.4251   0.7715   0.7715   2.5232   2.5233
     3.2560   3.2560  11.2525  11.2526  11.8362

     occupation numbers 
     1.0000   1.0000   1.0000   1.0000   1.0000   1.0000   1.0000   1.0000
     1.0000   1.0000   1.0000   1.0000   1.0000   1.0000   1.0000   1.0000
     1.0000   1.0000   0.0000   0.0000   0.0000

          k = 0.3333-0.3432-0.1943 (  5972 PWs)   bands (ev):

   -41.5561 -41.5553 -41.4634 -41.4626 -41.4526 -41.4518 -41.0760 -41.0754
   -41.0751 -41.0745  -7.4247  -7.4247   0.7764   0.7764   2.3267   2.3267
     3.5182   3.5182  11.4824  11.5274  11.5274

     occupation numbers 
     1.0000   1.0000   1.0000   1.0000   1.0000   1.0000   1.0000   1.0000
     1.0000   1.0000   1.0000   1.0000   1.0000   1.0000   1.0000   1.0000
     1.0000   1.0000   0.0000   0.0000   0.0000

          k =-0.5000 0.0000 0.0000 (  5978 PWs)   bands (ev):

   -41.5307 -41.5299 -41.4698 -41.4689 -41.4591 -41.4582 -41.0753 -41.0752
   -41.0745 -41.0744  -6.5368  -6.5367  -1.4449  -1.4449   3.7778   3.7778
     4.5831   4.5831  11.0249  11.0249  12.5237

     occupation numbers 
     1.0000   1.0000   1.0000   1.0000   1.0000   1.0000   1.0000   1.0000
     1.0000   1.0000   1.0000   1.0000   1.0000   1.0000   1.0000   1.0000
     0.6732   0.6732   0.0000   0.0000   0.0000

          k =-0.5000 0.0000-0.1943 (  5984 PWs)   bands (ev):

   -41.5307 -41.5299 -41.4698 -41.4689 -41.4591 -41.4582 -41.0753 -41.0752
   -41.0745 -41.0744  -6.5357  -6.5356  -1.4593  -1.4592   3.8596   3.8596
     4.5843   4.5843  10.2996  10.2996  12.4325

     occupation numbers 
     1.0000   1.0000   1.0000   1.0000   1.0000   1.0000   1.0000   1.0000
     1.0000   1.0000   1.0000   1.0000   1.0000   1.0000   1.0000   1.0000
     0.6686   0.6686   0.0000   0.0000   0.0000

          k =-0.5000 0.1716 0.0000 (  6004 PWs)   bands (ev):

   -41.5306 -41.5298 -41.4698 -41.4690 -41.4591 -41.4582 -41.0754 -41.0750
   -41.0745 -41.0742  -6.4629  -6.4628  -1.3768  -1.3767   3.8901   3.8901
     3.8973   3.8973  10.5714  10.5715  10.8816

     occupation numbers 
     1.0000   1.0000   1.0000   1.0000   1.0000   1.0000   1.0000   1.0000
     1.0000   1.0000   1.0000   1.0000   1.0000   1.0000   1.0000   1.0000
     1.0000   1.0000   0.0000   0.0000   0.0000

          k =-0.5000 0.1716-0.1943 (  5984 PWs)   bands (ev):

   -41.5306 -41.5298 -41.4698 -41.4690 -41.4591 -41.4582 -41.0754 -41.0750
   -41.0745 -41.0742  -6.4622  -6.4622  -1.3832  -1.3832   3.8821   3.8821
     3.9239   3.9239  10.7401  10.7402  10.8071

     occupation numbers 
     1.0000   1.0000   1.0000   1.0000   1.0000   1.0000   1.0000   1.0000
     1.0000   1.0000   1.0000   1.0000   1.0000   1.0000   1.0000   1.0000
     1.0000   1.0000   0.0000   0.0000   0.0000

          k =-0.5000-0.3432 0.0000 (  6008 PWs)   bands (ev):

   -41.5305 -41.5297 -41.4699 -41.4691 -41.4591 -41.4582 -41.0754 -41.0748
   -41.0746 -41.0740  -6.3857  -6.3857  -1.3067  -1.3066   3.3261   3.3261
     4.0104   4.0104   9.6544   9.6544  10.6698

     occupation numbers 
     1.0000   1.0000   1.0000   1.0000   1.0000   1.0000   1.0000   1.0000
     1.0000   1.0000   1.0000   1.0000   1.0000   1.0000   1.0000   1.0000
     1.0000   1.0000   0.0000   0.0000   0.0000

          k =-0.5000-0.3432-0.1943 (  5952 PWs)   bands (ev):

   -41.5305 -41.5297 -41.4699 -41.4691 -41.4591 -41.4582 -41.0754 -41.0748
   -41.0746 -41.0740  -6.3855  -6.3855  -1.3039  -1.3038   3.2994   3.2994
     3.9866   3.9866   9.9511   9.9511  11.2848

     occupation numbers 
     1.0000   1.0000   1.0000   1.0000   1.0000   1.0000   1.0000   1.0000
     1.0000   1.0000   1.0000   1.0000   1.0000   1.0000   1.0000   1.0000
     1.0000   1.0000   0.0000   0.0000   0.0000

     the Fermi energy is     4.6263 ev

!    total energy              =   -1127.12809137 Ry
     total all-electron energy =    -28490.290049 Ry
     estimated scf accuracy    <       0.00000003 Ry
     smearing contrib. (-TS)   =      -0.00101549 Ry
     internal energy E=F+TS    =   -1127.12707588 Ry

     The total energy is F=E-TS. E is the sum of the following terms:
     one-electron contribution =    -298.71813035 Ry
     hartree contribution      =     161.09654078 Ry
     xc contribution           =    -107.95349799 Ry
     ewald contribution        =    -238.46543493 Ry
     one-center paw contrib.   =    -643.08655340 Ry
      -> PAW hartree energy AE =     153.31586283 Ry
      -> PAW hartree energy PS =    -154.41121703 Ry
      -> PAW xc energy AE      =    -373.23137622 Ry
      -> PAW xc energy PS      =      52.78334346 Ry
      -> total E_H with PAW    =     160.00118658 Ry
      -> total E_XC with PAW   =    -428.40153074 Ry

     convergence has been achieved in   9 iterations


     -----------------------------------------------
     Non-local corr. energy    =       1.15818685 Ry
     -----------------------------------------------


     Forces acting on atoms (cartesian axes, Ry/au):

     atom    1 type  1   force =     0.00000000    0.00000000    0.00000000
     atom    2 type  1   force =     0.00000000    0.00000000    0.00000000
     The non-local contrib.  to forces
     atom    1 type  1   force =     0.00000000    0.00000000    0.00000000
     atom    2 type  1   force =     0.00000000    0.00000000    0.00000000
     The ionic contribution  to forces
     atom    1 type  1   force =    -0.00000000    0.00000002   -0.00000037
     atom    2 type  1   force =     0.00000000   -0.00000002    0.00000037
     The local contribution  to forces
     atom    1 type  1   force =     0.00000000    0.00000306   -0.00000000
     atom    2 type  1   force =     0.00000196    0.00000000    0.00000540
     The core correction contribution to forces
     atom    1 type  1   force =    -0.00000000    0.00000025   -0.00000000
     atom    2 type  1   force =     0.00000017   -0.00000000    0.00000044
     The Hubbard contrib.    to forces
     atom    1 type  1   force =     0.00000000    0.00000000    0.00000000
     atom    2 type  1   force =     0.00000000    0.00000000    0.00000000
     The SCF correction term to forces
     atom    1 type  1   force =    -0.00000000    0.00000000   -0.00000000
     atom    2 type  1   force =     0.00000000   -0.00000000    0.00000000

     Total force =     0.000000     Total SCF correction =     0.000000


     Computing stress (Cartesian axis) and pressure



     -----------------------------------------------
     Non-local corr. energy    =       1.15818685 Ry
     -----------------------------------------------

          total   stress  (Ry/bohr**3)                   (kbar)     P=       19.08
   0.00020968   0.00000000   0.00000000           30.85        0.00        0.00
   0.00000000   0.00011428   0.00000000            0.00       16.81        0.00
   0.00000000   0.00000000   0.00006523            0.00        0.00        9.60

     kinetic stress (kbar)  13042.49      0.00      0.00
                                0.00  13588.88      0.00
                                0.00      0.00  13596.82

     local   stress (kbar) -24867.24     -0.00     -0.00
                               -0.00   5019.25      0.00
                               -0.00      0.00   6168.20

     nonloc. stress (kbar)   2130.00      0.00      0.00
                                0.00   2600.08      0.00
                                0.00      0.00   2613.30

     hartree stress (kbar)  20996.03      0.00      0.00
                                0.00   9337.16     -0.00
                                0.00     -0.00   8853.95

     exc-cor stress (kbar)   8578.29     -0.00      0.00
                               -0.00   8557.22      0.00
                                0.00      0.00   8556.39

     corecor stress (kbar) -13668.33     -0.00     -0.00
                               -0.00 -13679.92     -0.00
                               -0.00     -0.00 -13680.47

     ewald   stress (kbar)  -6281.46      0.00      0.00
                                0.00 -25516.34     -0.00
                                0.00     -0.00 -26209.52

     hubbard stress (kbar)      0.00      0.00      0.00
                                0.00      0.00      0.00
                                0.00      0.00      0.00

     DFT-D   stress (kbar)      0.00      0.00      0.00
                                0.00      0.00      0.00
                                0.00      0.00      0.00

     XDM     stress (kbar)      0.00      0.00      0.00
                                0.00      0.00      0.00
                                0.00      0.00      0.00

     dft-nl  stress (kbar)    101.06     -0.00     -0.00
                               -0.00    110.49      0.00
                               -0.00      0.00    110.93

     TS-vdW  stress (kbar)      0.00      0.00      0.00
                                0.00      0.00      0.00
                                0.00      0.00      0.00

     MDB     stress (kbar)      0.00      0.00      0.00
                                0.00      0.00      0.00
                                0.00      0.00      0.00

     3D-RISM stress (kbar)      0.00      0.00      0.00
                                0.00      0.00      0.00
                                0.00      0.00      0.00


     BFGS Geometry Optimization
     Energy error            =      0.0E+00 Ry
     Gradient error          =      0.0E+00 Ry/Bohr
     Cell gradient error     =      3.1E+01 kbar

     number of scf cycles    =   1
     number of bfgs steps    =   0

     enthalpy           new  =   -1127.1280913705 Ry

     new trust radius        =       0.0257817483 bohr
     new conv_thr            =       0.0000001000 Ry

     new unit-cell volume =    610.64323 a.u.^3 (    90.48799 Ang^3 )
     density =      4.65763 g/cm^3

CELL_PARAMETERS (alat=  5.44321892)
   1.005242002   0.000000000   0.000000000
   0.000000000   1.461134538   0.000000000
   0.000000000   0.000000000   2.577859899

ATOMIC_POSITIONS (angstrom)
I             0.0000000000        2.1043459732        0.0000000000
I             1.4477632992        0.0000000000        3.7126691317



     Writing config-only to output data dir ./PbI2.save/
     NEW-OLD atomic charge density approx. for the potential

     Check: negative core charge=   -0.000002


     -----------------------------------------------
     Non-local corr. energy    =       1.16601213 Ry
     -----------------------------------------------

     extrapolated charge   34.32856, renormalised to   34.00000

     total cpu time spent up to now is        3.9 secs

     Self-consistent Calculation

     iteration #  1     ecut=    70.00 Ry     beta= 0.70
     Davidson diagonalization with overlap

---- Real-time Memory Report at c_bands before calling an iterative solver
           161 MiB given to the printing process from OS
             0 MiB allocation reported by mallinfo(arena+hblkhd)
       1891336 MiB available memory on the node where the printing process lives
------------------
     ethr =  1.00E-06,  avg # of iterations =  4.7


     -----------------------------------------------
     Non-local corr. energy    =       1.13904125 Ry
     -----------------------------------------------


     total cpu time spent up to now is        4.1 secs

     total energy              =   -1127.08881731 Ry
     estimated scf accuracy    <       0.04303587 Ry

     iteration #  2     ecut=    70.00 Ry     beta= 0.70
     Davidson diagonalization with overlap

---- Real-time Memory Report at c_bands before calling an iterative solver
           162 MiB given to the printing process from OS
             0 MiB allocation reported by mallinfo(arena+hblkhd)
       1891662 MiB available memory on the node where the printing process lives
------------------
     ethr =  1.27E-04,  avg # of iterations =  3.1


     -----------------------------------------------
     Non-local corr. energy    =       1.14979311 Ry
     -----------------------------------------------


     total cpu time spent up to now is        4.4 secs

     total energy              =   -1127.12917038 Ry
     estimated scf accuracy    <       0.06536340 Ry

     iteration #  3     ecut=    70.00 Ry     beta= 0.70
     Davidson diagonalization with overlap

---- Real-time Memory Report at c_bands before calling an iterative solver
           163 MiB given to the printing process from OS
             0 MiB allocation reported by mallinfo(arena+hblkhd)
       1891665 MiB available memory on the node where the printing process lives
------------------
     ethr =  1.27E-04,  avg # of iterations =  1.0


     -----------------------------------------------
     Non-local corr. energy    =       1.15089316 Ry
     -----------------------------------------------


     total cpu time spent up to now is        4.6 secs

     total energy              =   -1127.13034349 Ry
     estimated scf accuracy    <       0.01933149 Ry

     iteration #  4     ecut=    70.00 Ry     beta= 0.70
     Davidson diagonalization with overlap

---- Real-time Memory Report at c_bands before calling an iterative solver
           163 MiB given to the printing process from OS
             0 MiB allocation reported by mallinfo(arena+hblkhd)
       1891662 MiB available memory on the node where the printing process lives
------------------
     ethr =  5.69E-05,  avg # of iterations =  1.0


     -----------------------------------------------
     Non-local corr. energy    =       1.15106181 Ry
     -----------------------------------------------


     total cpu time spent up to now is        4.8 secs

     total energy              =   -1127.13064499 Ry
     estimated scf accuracy    <       0.01410828 Ry

     iteration #  5     ecut=    70.00 Ry     beta= 0.70
     Davidson diagonalization with overlap

---- Real-time Memory Report at c_bands before calling an iterative solver
           163 MiB given to the printing process from OS
             0 MiB allocation reported by mallinfo(arena+hblkhd)
       1891790 MiB available memory on the node where the printing process lives
------------------
     ethr =  4.15E-05,  avg # of iterations =  1.0


     -----------------------------------------------
     Non-local corr. energy    =       1.15371369 Ry
     -----------------------------------------------


     total cpu time spent up to now is        4.9 secs

     total energy              =   -1127.12945736 Ry
     estimated scf accuracy    <       0.01236683 Ry

     iteration #  6     ecut=    70.00 Ry     beta= 0.70
     Davidson diagonalization with overlap

---- Real-time Memory Report at c_bands before calling an iterative solver
           163 MiB given to the printing process from OS
             0 MiB allocation reported by mallinfo(arena+hblkhd)
       1891779 MiB available memory on the node where the printing process lives
------------------
     ethr =  3.64E-05,  avg # of iterations =  1.0


     -----------------------------------------------
     Non-local corr. energy    =       1.15481661 Ry
     -----------------------------------------------


     total cpu time spent up to now is        5.1 secs

     total energy              =   -1127.12927844 Ry
     estimated scf accuracy    <       0.00581377 Ry

     iteration #  7     ecut=    70.00 Ry     beta= 0.70
     Davidson diagonalization with overlap

---- Real-time Memory Report at c_bands before calling an iterative solver
           164 MiB given to the printing process from OS
             0 MiB allocation reported by mallinfo(arena+hblkhd)
       1891773 MiB available memory on the node where the printing process lives
------------------
     ethr =  1.71E-05,  avg # of iterations =  1.0


     -----------------------------------------------
     Non-local corr. energy    =       1.15752058 Ry
     -----------------------------------------------


     total cpu time spent up to now is        5.3 secs

     total energy              =   -1127.12863158 Ry
     estimated scf accuracy    <       0.00425725 Ry

     iteration #  8     ecut=    70.00 Ry     beta= 0.70
     Davidson diagonalization with overlap

---- Real-time Memory Report at c_bands before calling an iterative solver
           164 MiB given to the printing process from OS
             0 MiB allocation reported by mallinfo(arena+hblkhd)
       1891777 MiB available memory on the node where the printing process lives
------------------
     ethr =  1.25E-05,  avg # of iterations =  1.0


     -----------------------------------------------
     Non-local corr. energy    =       1.15849790 Ry
     -----------------------------------------------


     total cpu time spent up to now is        5.5 secs

     total energy              =   -1127.12866853 Ry
     estimated scf accuracy    <       0.00122898 Ry

     iteration #  9     ecut=    70.00 Ry     beta= 0.70
     Davidson diagonalization with overlap

---- Real-time Memory Report at c_bands before calling an iterative solver
           164 MiB given to the printing process from OS
             0 MiB allocation reported by mallinfo(arena+hblkhd)
       1891784 MiB available memory on the node where the printing process lives
------------------
     ethr =  3.61E-06,  avg # of iterations =  3.5


     -----------------------------------------------
     Non-local corr. energy    =       1.15880705 Ry
     -----------------------------------------------


     total cpu time spent up to now is        5.7 secs

     total energy              =   -1127.12889310 Ry
     estimated scf accuracy    <       0.00012955 Ry

     iteration # 10     ecut=    70.00 Ry     beta= 0.70
     Davidson diagonalization with overlap

---- Real-time Memory Report at c_bands before calling an iterative solver
           165 MiB given to the printing process from OS
             0 MiB allocation reported by mallinfo(arena+hblkhd)
       1891772 MiB available memory on the node where the printing process lives
------------------
     ethr =  3.81E-07,  avg # of iterations =  3.8


     -----------------------------------------------
     Non-local corr. energy    =       1.15962480 Ry
     -----------------------------------------------


     total cpu time spent up to now is        6.0 secs

     total energy              =   -1127.12891672 Ry
     estimated scf accuracy    <       0.00003226 Ry

     iteration # 11     ecut=    70.00 Ry     beta= 0.70
     Davidson diagonalization with overlap

---- Real-time Memory Report at c_bands before calling an iterative solver
           165 MiB given to the printing process from OS
             0 MiB allocation reported by mallinfo(arena+hblkhd)
       1891663 MiB available memory on the node where the printing process lives
------------------
     ethr =  9.49E-08,  avg # of iterations =  3.2


     -----------------------------------------------
     Non-local corr. energy    =       1.15957387 Ry
     -----------------------------------------------


     total cpu time spent up to now is        6.2 secs

     total energy              =   -1127.12892517 Ry
     estimated scf accuracy    <       0.00003176 Ry

     iteration # 12     ecut=    70.00 Ry     beta= 0.70
     Davidson diagonalization with overlap

---- Real-time Memory Report at c_bands before calling an iterative solver
           166 MiB given to the printing process from OS
             0 MiB allocation reported by mallinfo(arena+hblkhd)
       1891601 MiB available memory on the node where the printing process lives
------------------
     ethr =  9.34E-08,  avg # of iterations =  1.0


     -----------------------------------------------
     Non-local corr. energy    =       1.15954333 Ry
     -----------------------------------------------


     total cpu time spent up to now is        6.4 secs

     total energy              =   -1127.12892463 Ry
     estimated scf accuracy    <       0.00002626 Ry

     iteration # 13     ecut=    70.00 Ry     beta= 0.70
     Davidson diagonalization with overlap

---- Real-time Memory Report at c_bands before calling an iterative solver
           166 MiB given to the printing process from OS
             0 MiB allocation reported by mallinfo(arena+hblkhd)
       1891619 MiB available memory on the node where the printing process lives
------------------
     ethr =  7.72E-08,  avg # of iterations =  1.0


     -----------------------------------------------
     Non-local corr. energy    =       1.15949114 Ry
     -----------------------------------------------


     total cpu time spent up to now is        6.6 secs

     total energy              =   -1127.12892390 Ry
     estimated scf accuracy    <       0.00002383 Ry

     iteration # 14     ecut=    70.00 Ry     beta= 0.70
     Davidson diagonalization with overlap

---- Real-time Memory Report at c_bands before calling an iterative solver
           166 MiB given to the printing process from OS
             0 MiB allocation reported by mallinfo(arena+hblkhd)
       1891616 MiB available memory on the node where the printing process lives
------------------
     ethr =  7.01E-08,  avg # of iterations =  1.0


     -----------------------------------------------
     Non-local corr. energy    =       1.15951776 Ry
     -----------------------------------------------


     total cpu time spent up to now is        6.8 secs

     total energy              =   -1127.12892430 Ry
     estimated scf accuracy    <       0.00001947 Ry

     iteration # 15     ecut=    70.00 Ry     beta= 0.70
     Davidson diagonalization with overlap

---- Real-time Memory Report at c_bands before calling an iterative solver
           166 MiB given to the printing process from OS
             0 MiB allocation reported by mallinfo(arena+hblkhd)
       1891609 MiB available memory on the node where the printing process lives
------------------
     ethr =  5.73E-08,  avg # of iterations =  1.0


     -----------------------------------------------
     Non-local corr. energy    =       1.15945375 Ry
     -----------------------------------------------


     total cpu time spent up to now is        6.9 secs

     total energy              =   -1127.12892339 Ry
     estimated scf accuracy    <       0.00002162 Ry

     iteration # 16     ecut=    70.00 Ry     beta= 0.70
     Davidson diagonalization with overlap

---- Real-time Memory Report at c_bands before calling an iterative solver
           166 MiB given to the printing process from OS
             0 MiB allocation reported by mallinfo(arena+hblkhd)
       1891592 MiB available memory on the node where the printing process lives
------------------
     ethr =  5.73E-08,  avg # of iterations =  1.0


     -----------------------------------------------
     Non-local corr. energy    =       1.15943527 Ry
     -----------------------------------------------


     total cpu time spent up to now is        7.1 secs

     total energy              =   -1127.12892320 Ry
     estimated scf accuracy    <       0.00001648 Ry

     iteration # 17     ecut=    70.00 Ry     beta= 0.70
     Davidson diagonalization with overlap

---- Real-time Memory Report at c_bands before calling an iterative solver
           166 MiB given to the printing process from OS
             0 MiB allocation reported by mallinfo(arena+hblkhd)
       1891602 MiB available memory on the node where the printing process lives
------------------
     ethr =  4.85E-08,  avg # of iterations =  1.0


     -----------------------------------------------
     Non-local corr. energy    =       1.15888933 Ry
     -----------------------------------------------


     total cpu time spent up to now is        7.3 secs

     total energy              =   -1127.12892000 Ry
     estimated scf accuracy    <       0.00001518 Ry

     iteration # 18     ecut=    70.00 Ry     beta= 0.70
     Davidson diagonalization with overlap

---- Real-time Memory Report at c_bands before calling an iterative solver
           166 MiB given to the printing process from OS
             0 MiB allocation reported by mallinfo(arena+hblkhd)
       1891607 MiB available memory on the node where the printing process lives
------------------
     ethr =  4.47E-08,  avg # of iterations =  2.5


     -----------------------------------------------
     Non-local corr. energy    =       1.15893607 Ry
     -----------------------------------------------


     total cpu time spent up to now is        7.5 secs

     total energy              =   -1127.12892112 Ry
     estimated scf accuracy    <       0.00000186 Ry

     iteration # 19     ecut=    70.00 Ry     beta= 0.70
     Davidson diagonalization with overlap

---- Real-time Memory Report at c_bands before calling an iterative solver
           166 MiB given to the printing process from OS
             0 MiB allocation reported by mallinfo(arena+hblkhd)
       1891606 MiB available memory on the node where the printing process lives
------------------
     ethr =  5.46E-09,  avg # of iterations =  3.2


     -----------------------------------------------
     Non-local corr. energy    =       1.15915839 Ry
     -----------------------------------------------


     total cpu time spent up to now is        7.7 secs

     total energy              =   -1127.12892114 Ry
     estimated scf accuracy    <       0.00000393 Ry

     iteration # 20     ecut=    70.00 Ry     beta= 0.70
     Davidson diagonalization with overlap

---- Real-time Memory Report at c_bands before calling an iterative solver
           166 MiB given to the printing process from OS
             0 MiB allocation reported by mallinfo(arena+hblkhd)
       1891609 MiB available memory on the node where the printing process lives
------------------
     ethr =  5.46E-09,  avg # of iterations =  3.0


     -----------------------------------------------
     Non-local corr. energy    =       1.15922726 Ry
     -----------------------------------------------


     total cpu time spent up to now is        7.9 secs

     total energy              =   -1127.12892143 Ry
     estimated scf accuracy    <       0.00000029 Ry

     iteration # 21     ecut=    70.00 Ry     beta= 0.70
     Davidson diagonalization with overlap

---- Real-time Memory Report at c_bands before calling an iterative solver
           166 MiB given to the printing process from OS
             0 MiB allocation reported by mallinfo(arena+hblkhd)
       1891241 MiB available memory on the node where the printing process lives
------------------
     ethr =  8.52E-10,  avg # of iterations =  3.6


     -----------------------------------------------
     Non-local corr. energy    =       1.15906098 Ry
     -----------------------------------------------


     total cpu time spent up to now is        8.2 secs

     total energy              =   -1127.12892127 Ry
     estimated scf accuracy    <       0.00000259 Ry

     iteration # 22     ecut=    70.00 Ry     beta= 0.70
     Davidson diagonalization with overlap

---- Real-time Memory Report at c_bands before calling an iterative solver
           167 MiB given to the printing process from OS
             0 MiB allocation reported by mallinfo(arena+hblkhd)
       1891560 MiB available memory on the node where the printing process lives
------------------
     ethr =  8.52E-10,  avg # of iterations =  3.0


     -----------------------------------------------
     Non-local corr. energy    =       1.15905993 Ry
     -----------------------------------------------


     total cpu time spent up to now is        8.5 secs

     End of self-consistent calculation

          k = 0.0000 0.0000 0.0000 (  5991 PWs)   bands (ev):

   -41.7268 -41.7264 -41.5439 -41.5434 -41.5311 -41.5306 -41.1774 -41.1773
   -41.1769 -41.1768  -9.4312  -9.1904   0.7005   2.2148   2.5627   2.6271
     7.6991   7.8778   8.7884   9.5944  12.2146

     occupation numbers 
     1.0000   1.0000   1.0000   1.0000   1.0000   1.0000   1.0000   1.0000
     1.0000   1.0000   1.0000   1.0000   1.0000   1.0000   1.0000   1.0000
     0.0000   0.0000   0.0000   0.0000   0.0000

          k = 0.0000 0.0000-0.1940 (  5962 PWs)   bands (ev):

   -41.7268 -41.7264 -41.5438 -41.5434 -41.5311 -41.5306 -41.1774 -41.1773
   -41.1769 -41.1768  -9.3145  -9.3143   1.5047   1.5049   2.4108   2.4110
     7.7867   7.7868   9.9542   9.9543  11.8599

     occupation numbers 
     1.0000   1.0000   1.0000   1.0000   1.0000   1.0000   1.0000   1.0000
     1.0000   1.0000   1.0000   1.0000   1.0000   1.0000   1.0000   1.0000
     0.0000   0.0000   0.0000   0.0000   0.0000

          k = 0.0000 0.1711 0.0000 (  5973 PWs)   bands (ev):

   -41.7267 -41.7263 -41.5439 -41.5435 -41.5311 -41.5306 -41.1774 -41.1771
   -41.1770 -41.1766  -9.3282  -9.1529   0.9949   1.4532   1.7151   2.3495
     7.7747   7.9034  10.1298  11.3318  11.5543

     occupation numbers 
     1.0000   1.0000   1.0000   1.0000   1.0000   1.0000   1.0000   1.0000
     1.0000   1.0000   1.0000   1.0000   1.0000   1.0000   1.0000   1.0000
     0.0000   0.0000   0.0000   0.0000   0.0000

          k = 0.0000 0.1711-0.1940 (  5972 PWs)   bands (ev):

   -41.7267 -41.7263 -41.5439 -41.5435 -41.5311 -41.5306 -41.1774 -41.1771
   -41.1769 -41.1766  -9.2423  -9.2421   1.1841   1.1842   2.0804   2.0804
     7.8382   7.8384  10.4132  10.4132  12.0523

     occupation numbers 
     1.0000   1.0000   1.0000   1.0000   1.0000   1.0000   1.0000   1.0000
     1.0000   1.0000   1.0000   1.0000   1.0000   1.0000   1.0000   1.0000
     0.0000   0.0000   0.0000   0.0000   0.0000

          k = 0.0000-0.3422 0.0000 (  5978 PWs)   bands (ev):

   -41.7267 -41.7262 -41.5439 -41.5435 -41.5311 -41.5306 -41.1775 -41.1770
   -41.1769 -41.1764  -9.1677  -9.1675   0.9317   0.9318   1.7063   1.7065
     7.8908   7.8910  11.2714  11.2714  11.9893

     occupation numbers 
     1.0000   1.0000   1.0000   1.0000   1.0000   1.0000   1.0000   1.0000
     1.0000   1.0000   1.0000   1.0000   1.0000   1.0000   1.0000   1.0000
     0.0000   0.0000   0.0000   0.0000   0.0000

          k = 0.0000-0.3422-0.1940 (  5980 PWs)   bands (ev):

   -41.7267 -41.7262 -41.5439 -41.5435 -41.5311 -41.5306 -41.1775 -41.1771
   -41.1768 -41.1764  -9.1671  -9.1669   0.6652   0.6653   2.1168   2.1169
     7.8910   7.8912   9.5424   9.5424  14.6727

     occupation numbers 
     1.0000   1.0000   1.0000   1.0000   1.0000   1.0000   1.0000   1.0000
     1.0000   1.0000   1.0000   1.0000   1.0000   1.0000   1.0000   1.0000
     0.0000   0.0000   0.0000   0.0000   0.0000

          k = 0.1658 0.0000 0.0000 (  5981 PWs)   bands (ev):

   -41.7029 -41.7024 -41.5499 -41.5495 -41.5372 -41.5367 -41.1769 -41.1768
   -41.1764 -41.1763  -8.9861  -8.7516   1.1391   2.6190   2.9266   3.0131
     4.5061   4.7434   9.2741  10.0721  12.6600

     occupation numbers 
     1.0000   1.0000   1.0000   1.0000   1.0000   1.0000   1.0000   1.0000
     1.0000   1.0000   1.0000   1.0000   1.0000   1.0000   1.0000   1.0000
     0.3859   0.0029   0.0000   0.0000   0.0000

          k = 0.1658 0.0000-0.1940 (  5988 PWs)   bands (ev):

   -41.7029 -41.7024 -41.5499 -41.5495 -41.5372 -41.5367 -41.1769 -41.1768
   -41.1764 -41.1763  -8.8723  -8.8721   1.9151   1.9153   2.8068   2.8069
     4.6246   4.6248  10.4281  10.4283  12.2355

     occupation numbers 
     1.0000   1.0000   1.0000   1.0000   1.0000   1.0000   1.0000   1.0000
     1.0000   1.0000   1.0000   1.0000   1.0000   1.0000   1.0000   1.0000
     0.0640   0.0638   0.0000   0.0000   0.0000

          k = 0.1658 0.1711 0.0000 (  5987 PWs)   bands (ev):

   -41.7028 -41.7024 -41.5500 -41.5496 -41.5372 -41.5367 -41.1769 -41.1766
   -41.1765 -41.1761  -8.8840  -8.7133   1.4267   1.8679   2.1203   2.7280
     4.6066   4.7783  10.5714  11.7629  11.9440

     occupation numbers 
     1.0000   1.0000   1.0000   1.0000   1.0000   1.0000   1.0000   1.0000
     1.0000   1.0000   1.0000   1.0000   1.0000   1.0000   1.0000   1.0000
     0.0910   0.0009   0.0000   0.0000   0.0000

          k = 0.1658 0.1711-0.1940 (  5964 PWs)   bands (ev):

   -41.7028 -41.7024 -41.5500 -41.5496 -41.5372 -41.5367 -41.1769 -41.1766
   -41.1764 -41.1761  -8.8003  -8.8001   1.6088   1.6088   2.4695   2.4695
     4.6924   4.6926  10.8662  10.8663  12.4630

     occupation numbers 
     1.0000   1.0000   1.0000   1.0000   1.0000   1.0000   1.0000   1.0000
     1.0000   1.0000   1.0000   1.0000   1.0000   1.0000   1.0000   1.0000
     0.0130   0.0129   0.0000   0.0000   0.0000

          k = 0.1658-0.3422 0.0000 (  5946 PWs)   bands (ev):

   -41.7027 -41.7023 -41.5500 -41.5496 -41.5372 -41.5367 -41.1770 -41.1765
   -41.1764 -41.1759  -8.7258  -8.7256   1.3492   1.3494   2.1161   2.1163
     4.7620   4.7622  11.6401  11.6401  12.3498

     occupation numbers 
     1.0000   1.0000   1.0000   1.0000   1.0000   1.0000   1.0000   1.0000
     1.0000   1.0000   1.0000   1.0000   1.0000   1.0000   1.0000   1.0000
     0.0016   0.0016   0.0000   0.0000   0.0000

          k = 0.1658-0.3422-0.1940 (  5992 PWs)   bands (ev):

   -41.7027 -41.7023 -41.5500 -41.5496 -41.5372 -41.5367 -41.1770 -41.1766
   -41.1763 -41.1759  -8.7253  -8.7251   1.0954   1.0955   2.5027   2.5028
     4.7614   4.7616  10.0189  10.0190  14.6269

     occupation numbers 
     1.0000   1.0000   1.0000   1.0000   1.0000   1.0000   1.0000   1.0000
     1.0000   1.0000   1.0000   1.0000   1.0000   1.0000   1.0000   1.0000
     0.0016   0.0016   0.0000   0.0000   0.0000

          k = 0.3316 0.0000 0.0000 (  5996 PWs)   bands (ev):

   -41.6548 -41.6544 -41.5621 -41.5617 -41.5493 -41.5489 -41.1759 -41.1757
   -41.1754 -41.1753  -7.7606  -7.5628   0.4452   0.6517   2.3337   3.6444
     3.7123   3.9436  10.6994  11.4656  11.8694

     occupation numbers 
     1.0000   1.0000   1.0000   1.0000   1.0000   1.0000   1.0000   1.0000
     1.0000   1.0000   1.0000   1.0000   1.0000   1.0000   1.0000   1.0000
     1.0000   1.0000   0.0000   0.0000   0.0000

          k = 0.3316 0.0000-0.1940 (  5988 PWs)   bands (ev):

   -41.6549 -41.6544 -41.5621 -41.5617 -41.5493 -41.5489 -41.1759 -41.1757
   -41.1754 -41.1753  -7.6641  -7.6639   0.5332   0.5334   2.9882   2.9883
     3.7889   3.7890  11.3085  11.3085  12.2488

     occupation numbers 
     1.0000   1.0000   1.0000   1.0000   1.0000   1.0000   1.0000   1.0000
     1.0000   1.0000   1.0000   1.0000   1.0000   1.0000   1.0000   1.0000
     1.0000   1.0000   0.0000   0.0000   0.0000

          k = 0.3316 0.1711 0.0000 (  5991 PWs)   bands (ev):

   -41.6548 -41.6544 -41.5621 -41.5617 -41.5493 -41.5489 -41.1759 -41.1755
   -41.1755 -41.1751  -7.6632  -7.5192   0.5414   0.6923   2.5858   2.9408
     3.1382   3.5951  11.2611  11.7913  11.9214

     occupation numbers 
     1.0000   1.0000   1.0000   1.0000   1.0000   1.0000   1.0000   1.0000
     1.0000   1.0000   1.0000   1.0000   1.0000   1.0000   1.0000   1.0000
     1.0000   1.0000   0.0000   0.0000   0.0000

          k = 0.3316 0.1711-0.1940 (  5992 PWs)   bands (ev):

   -41.6548 -41.6544 -41.5621 -41.5617 -41.5493 -41.5489 -41.1759 -41.1756
   -41.1755 -41.1751  -7.5923  -7.5921   0.6105   0.6106   2.7361   2.7362
     3.4088   3.4088  11.6440  11.6440  12.1473

     occupation numbers 
     1.0000   1.0000   1.0000   1.0000   1.0000   1.0000   1.0000   1.0000
     1.0000   1.0000   1.0000   1.0000   1.0000   1.0000   1.0000   1.0000
     1.0000   1.0000   0.0000   0.0000   0.0000

          k = 0.3316-0.3422 0.0000 (  5962 PWs)   bands (ev):

   -41.6547 -41.6543 -41.5622 -41.5618 -41.5493 -41.5489 -41.1760 -41.1755
   -41.1754 -41.1749  -7.5180  -7.5178   0.6861   0.6863   2.4326   2.4328
     3.1561   3.1562  11.1328  11.1330  11.7190

     occupation numbers 
     1.0000   1.0000   1.0000   1.0000   1.0000   1.0000   1.0000   1.0000
     1.0000   1.0000   1.0000   1.0000   1.0000   1.0000   1.0000   1.0000
     1.0000   1.0000   0.0000   0.0000   0.0000

          k = 0.3316-0.3422-0.1940 (  5972 PWs)   bands (ev):

   -41.6547 -41.6543 -41.5622 -41.5618 -41.5493 -41.5489 -41.1760 -41.1755
   -41.1753 -41.1749  -7.5176  -7.5174   0.6912   0.6914   2.2387   2.2388
     3.4130   3.4131  11.3695  11.3697  11.4314

     occupation numbers 
     1.0000   1.0000   1.0000   1.0000   1.0000   1.0000   1.0000   1.0000
     1.0000   1.0000   1.0000   1.0000   1.0000   1.0000   1.0000   1.0000
     1.0000   1.0000   0.0000   0.0000   0.0000

          k =-0.4974 0.0000 0.0000 (  5978 PWs)   bands (ev):

   -41.6308 -41.6304 -41.5681 -41.5677 -41.5554 -41.5550 -41.1754 -41.1752
   -41.1749 -41.1748  -6.6662  -6.6660  -1.4732  -1.4730   3.6609   3.6611
     4.4480   4.4482  10.9327  10.9328  12.4261

     occupation numbers 
     1.0000   1.0000   1.0000   1.0000   1.0000   1.0000   1.0000   1.0000
     1.0000   1.0000   1.0000   1.0000   1.0000   1.0000   1.0000   1.0000
     0.6233   0.6226   0.0000   0.0000   0.0000

          k =-0.4974 0.0000-0.1940 (  5984 PWs)   bands (ev):

   -41.6308 -41.6304 -41.5681 -41.5677 -41.5554 -41.5550 -41.1754 -41.1752
   -41.1749 -41.1748  -6.6652  -6.6650  -1.4875  -1.4874   3.7412   3.7414
     4.4492   4.4494  10.2073  10.2074  12.3342

     occupation numbers 
     1.0000   1.0000   1.0000   1.0000   1.0000   1.0000   1.0000   1.0000
     1.0000   1.0000   1.0000   1.0000   1.0000   1.0000   1.0000   1.0000
     0.6187   0.6179   0.0000   0.0000   0.0000

          k =-0.4974 0.1711 0.0000 (  6004 PWs)   bands (ev):

   -41.6307 -41.6303 -41.5682 -41.5678 -41.5554 -41.5550 -41.1754 -41.1750
   -41.1750 -41.1746  -6.5943  -6.5941  -1.4056  -1.4054   3.7708   3.7710
     3.7746   3.7748  10.4801  10.4802  10.7896

     occupation numbers 
     1.0000   1.0000   1.0000   1.0000   1.0000   1.0000   1.0000   1.0000
     1.0000   1.0000   1.0000   1.0000   1.0000   1.0000   1.0000   1.0000
     1.0000   1.0000   0.0000   0.0000   0.0000

          k =-0.4974 0.1711-0.1940 (  5984 PWs)   bands (ev):

   -41.6307 -41.6303 -41.5682 -41.5678 -41.5554 -41.5550 -41.1754 -41.1750
   -41.1750 -41.1746  -6.5937  -6.5935  -1.4120  -1.4118   3.7596   3.7598
     3.8040   3.8042  10.6484  10.6484  10.7165

     occupation numbers 
     1.0000   1.0000   1.0000   1.0000   1.0000   1.0000   1.0000   1.0000
     1.0000   1.0000   1.0000   1.0000   1.0000   1.0000   1.0000   1.0000
     1.0000   1.0000   0.0000   0.0000   0.0000

          k =-0.4974-0.3422 0.0000 (  6008 PWs)   bands (ev):

   -41.6306 -41.6302 -41.5683 -41.5679 -41.5554 -41.5550 -41.1755 -41.1750
   -41.1748 -41.1744  -6.5193  -6.5191  -1.3361  -1.3360   3.2128   3.2130
     3.8885   3.8886   9.5685   9.5687  10.5790

     occupation numbers 
     1.0000   1.0000   1.0000   1.0000   1.0000   1.0000   1.0000   1.0000
     1.0000   1.0000   1.0000   1.0000   1.0000   1.0000   1.0000   1.0000
     1.0000   1.0000   0.0000   0.0000   0.0000

          k =-0.4974-0.3422-0.1940 (  5952 PWs)   bands (ev):

   -41.6306 -41.6302 -41.5683 -41.5679 -41.5554 -41.5550 -41.1755 -41.1750
   -41.1748 -41.1744  -6.5192  -6.5190  -1.3332  -1.3331   3.1865   3.1866
     3.8653   3.8655   9.8648   9.8650  11.1943

     occupation numbers 
     1.0000   1.0000   1.0000   1.0000   1.0000   1.0000   1.0000   1.0000
     1.0000   1.0000   1.0000   1.0000   1.0000   1.0000   1.0000   1.0000
     1.0000   1.0000   0.0000   0.0000   0.0000

     the Fermi energy is     4.4782 ev

!    total energy              =   -1127.12892138 Ry
     total all-electron energy =    -28490.290879 Ry
     estimated scf accuracy    <       0.00000004 Ry
     smearing contrib. (-TS)   =      -0.00111414 Ry
     internal energy E=F+TS    =   -1127.12780724 Ry

     The total energy is F=E-TS. E is the sum of the following terms:
     one-electron contribution =    -299.71549354 Ry
     hartree contribution      =     161.47373335 Ry
     xc contribution           =    -107.94450214 Ry
     ewald contribution        =    -237.85551976 Ry
     one-center paw contrib.   =    -643.08602516 Ry
      -> PAW hartree energy AE =     153.26412692 Ry
      -> PAW hartree energy PS =    -154.35918468 Ry
      -> PAW xc energy AE      =    -373.22745444 Ry
      -> PAW xc energy PS      =      52.77954942 Ry
      -> total E_H with PAW    =     160.37867559 Ry
      -> total E_XC with PAW   =    -428.39240716 Ry

     convergence has been achieved in  22 iterations


     -----------------------------------------------
     Non-local corr. energy    =       1.15905993 Ry
     -----------------------------------------------


     Forces acting on atoms (cartesian axes, Ry/au):

     atom    1 type  1   force =     0.00000000    0.00000000    0.00000000
     atom    2 type  1   force =     0.00000000    0.00000000    0.00000000
     The non-local contrib.  to forces
     atom    1 type  1   force =     0.00000000    0.00000000    0.00000000
     atom    2 type  1   force =     0.00000000    0.00000000    0.00000000
     The ionic contribution  to forces
     atom    1 type  1   force =    -0.00000000    0.00000002   -0.00000036
     atom    2 type  1   force =     0.00000000   -0.00000002    0.00000036
     The local contribution  to forces
     atom    1 type  1   force =     0.00000000    0.00000307   -0.00000000
     atom    2 type  1   force =     0.00000198    0.00000000    0.00000541
     The core correction contribution to forces
     atom    1 type  1   force =    -0.00000000    0.00000025   -0.00000000
     atom    2 type  1   force =     0.00000017   -0.00000000    0.00000044
     The Hubbard contrib.    to forces
     atom    1 type  1   force =     0.00000000    0.00000000    0.00000000
     atom    2 type  1   force =     0.00000000    0.00000000    0.00000000
     The SCF correction term to forces
     atom    1 type  1   force =    -0.00000000    0.00000000   -0.00000000
     atom    2 type  1   force =    -0.00000000   -0.00000000   -0.00000000

     Total force =     0.000000     Total SCF correction =     0.000000


     Computing stress (Cartesian axis) and pressure



     -----------------------------------------------
     Non-local corr. energy    =       1.15905993 Ry
     -----------------------------------------------

          total   stress  (Ry/bohr**3)                   (kbar)     P=       15.77
   0.00015386   0.00000000   0.00000000           22.63        0.00        0.00
   0.00000000   0.00010455   0.00000000            0.00       15.38        0.00
   0.00000000   0.00000000   0.00006314            0.00        0.00        9.29

     kinetic stress (kbar)  12909.70      0.00      0.00
                                0.00  13449.82      0.00
                                0.00      0.00  13461.06

     local   stress (kbar) -24464.60      0.00     -0.00
                                0.00   4804.79     -0.00
                               -0.00     -0.00   5874.90

     nonloc. stress (kbar)   2113.98      0.00      0.00
                                0.00   2575.14      0.00
                                0.00      0.00   2590.63

     hartree stress (kbar)  20742.39     -0.00     -0.00
                               -0.00   9302.93      0.00
                               -0.00      0.00   8854.00

     exc-cor stress (kbar)   8495.53      0.00      0.00
                                0.00   8475.19     -0.00
                                0.00     -0.00   8474.51

     corecor stress (kbar) -13536.27      0.00     -0.00
                                0.00 -13547.70      0.00
                               -0.00      0.00 -13548.30

     ewald   stress (kbar)  -6338.32      0.00      0.00
                                0.00 -25154.20      0.00
                                0.00      0.00 -25807.31

     hubbard stress (kbar)      0.00      0.00      0.00
                                0.00      0.00      0.00
                                0.00      0.00      0.00

     DFT-D   stress (kbar)      0.00      0.00      0.00
                                0.00      0.00      0.00
                                0.00      0.00      0.00

     XDM     stress (kbar)      0.00      0.00      0.00
                                0.00      0.00      0.00
                                0.00      0.00      0.00

     dft-nl  stress (kbar)    100.23      0.00     -0.00
                                0.00    109.42     -0.00
                               -0.00     -0.00    109.81

     TS-vdW  stress (kbar)      0.00      0.00      0.00
                                0.00      0.00      0.00
                                0.00      0.00      0.00

     MDB     stress (kbar)      0.00      0.00      0.00
                                0.00      0.00      0.00
                                0.00      0.00      0.00

     3D-RISM stress (kbar)      0.00      0.00      0.00
                                0.00      0.00      0.00
                                0.00      0.00      0.00

     Energy error            =      8.3E-04 Ry
     Gradient error          =      0.0E+00 Ry/Bohr
     Cell gradient error     =      2.3E+01 kbar

     number of scf cycles    =   2
     number of bfgs steps    =   1

     enthalpy           old  =   -1127.1280913705 Ry
     enthalpy           new  =   -1127.1289213798 Ry

     CASE: enthalpy          _new < enthalpy          _old

     new trust radius        =       0.0386581991 bohr
     new conv_thr            =       0.0000000010 Ry

     new unit-cell volume =    620.64887 a.u.^3 (    91.97067 Ang^3 )
     density =      4.58254 g/cm^3

CELL_PARAMETERS (alat=  5.44321892)
   1.013105006   0.000000000   0.000000000
   0.000000000   1.468859273   0.000000000
   0.000000000   0.000000000   2.586091674

ATOMIC_POSITIONS (angstrom)
I             0.0000000000        2.1154712411        0.0000000000
I             1.4590877047        0.0000000000        3.7245246466



     Writing config-only to output data dir ./PbI2.save/
     NEW-OLD atomic charge density approx. for the potential

     Check: negative core charge=   -0.000002


     -----------------------------------------------
     Non-local corr. energy    =       1.17206578 Ry
     -----------------------------------------------

     extrapolated charge   34.54812, renormalised to   34.00000

     total cpu time spent up to now is        9.0 secs

     Self-consistent Calculation

     iteration #  1     ecut=    70.00 Ry     beta= 0.70
     Davidson diagonalization with overlap

[...]
     6.3637   6.4433   8.5242   9.8630  10.0074

     occupation numbers 
     1.0000   1.0000   1.0000   1.0000   1.0000   1.0000   1.0000   1.0000
     1.0000   1.0000   1.0000   1.0000   1.0000   1.0000   1.0000   1.0000
     0.0000   0.0000   0.0000   0.0000   0.0000

          k = 0.0000 0.1596-0.1859 (  6830 PWs)   bands (ev):

   -42.9280 -42.9279 -42.7415 -42.7415 -42.7391 -42.7391 -42.3617 -42.3617
   -42.3614 -42.3614 -10.3378 -10.3378   0.1818   0.1818   0.8737   0.8737
     6.4032   6.4032   9.0289   9.0289  10.2739

     occupation numbers 
     1.0000   1.0000   1.0000   1.0000   1.0000   1.0000   1.0000   1.0000
     1.0000   1.0000   1.0000   1.0000   1.0000   1.0000   1.0000   1.0000
     0.0000   0.0000   0.0000   0.0000   0.0000

          k = 0.0000-0.3192 0.0000 (  6830 PWs)   bands (ev):

   -42.9280 -42.9279 -42.7415 -42.7415 -42.7391 -42.7391 -42.3617 -42.3617
   -42.3613 -42.3613 -10.2997 -10.2997   0.0580   0.0580   0.5717   0.5717
     6.4298   6.4298   9.9111   9.9111  10.2949

     occupation numbers 
     1.0000   1.0000   1.0000   1.0000   1.0000   1.0000   1.0000   1.0000
     1.0000   1.0000   1.0000   1.0000   1.0000   1.0000   1.0000   1.0000
     0.0000   0.0000   0.0000   0.0000   0.0000

          k = 0.0000-0.3192-0.1859 (  6788 PWs)   bands (ev):

   -42.9280 -42.9279 -42.7415 -42.7415 -42.7391 -42.7391 -42.3617 -42.3617
   -42.3613 -42.3613 -10.2995 -10.2995  -0.1748  -0.1748   0.8971   0.8971
     6.4298   6.4299   8.3874   8.3874  12.7271

     occupation numbers 
     1.0000   1.0000   1.0000   1.0000   1.0000   1.0000   1.0000   1.0000
     1.0000   1.0000   1.0000   1.0000   1.0000   1.0000   1.0000   1.0000
     0.0000   0.0000   0.0000   0.0000   0.0000

          k = 0.1642 0.0000 0.0000 (  6829 PWs)   bands (ev):

   -42.9066 -42.9066 -42.7469 -42.7468 -42.7445 -42.7445 -42.3613 -42.3612
   -42.3610 -42.3610 -10.0220  -9.8741   0.2495   1.2699   1.5715   1.5785
     3.2726   3.4232   7.8566   8.8245  11.3397

     occupation numbers 
     1.0000   1.0000   1.0000   1.0000   1.0000   1.0000   1.0000   1.0000
     1.0000   1.0000   1.0000   1.0000   1.0000   1.0000   1.0000   1.0000
     0.0769   0.0014   0.0000   0.0000   0.0000

          k = 0.1642 0.0000-0.1859 (  6830 PWs)   bands (ev):

   -42.9066 -42.9066 -42.7469 -42.7468 -42.7445 -42.7445 -42.3612 -42.3612
   -42.3610 -42.3610  -9.9495  -9.9495   0.8343   0.8343   1.4182   1.4182
     3.3488   3.3488   8.9867   8.9867  10.6887

     occupation numbers 
     1.0000   1.0000   1.0000   1.0000   1.0000   1.0000   1.0000   1.0000
     1.0000   1.0000   1.0000   1.0000   1.0000   1.0000   1.0000   1.0000
     0.0133   0.0133   0.0000   0.0000   0.0000

          k = 0.1642 0.1596 0.0000 (  6827 PWs)   bands (ev):

   -42.9066 -42.9065 -42.7469 -42.7468 -42.7445 -42.7445 -42.3613 -42.3612
   -42.3610 -42.3609  -9.9648  -9.8585   0.4623   0.7994   0.9945   1.4161
     3.3304   3.4386   8.9608  10.2639  10.4396

     occupation numbers 
     1.0000   1.0000   1.0000   1.0000   1.0000   1.0000   1.0000   1.0000
     1.0000   1.0000   1.0000   1.0000   1.0000   1.0000   1.0000   1.0000
     0.0214   0.0008   0.0000   0.0000   0.0000

          k = 0.1642 0.1596-0.1859 (  6828 PWs)   bands (ev):

   -42.9066 -42.9065 -42.7469 -42.7468 -42.7445 -42.7445 -42.3612 -42.3612
   -42.3610 -42.3609  -9.9123  -9.9123   0.5891   0.5891   1.2522   1.2522
     3.3847   3.3847   9.4754   9.4754  10.6759

     occupation numbers 
     1.0000   1.0000   1.0000   1.0000   1.0000   1.0000   1.0000   1.0000
     1.0000   1.0000   1.0000   1.0000   1.0000   1.0000   1.0000   1.0000
     0.0048   0.0048   0.0000   0.0000   0.0000

          k = 0.1642-0.3192 0.0000 (  6810 PWs)   bands (ev):

   -42.9066 -42.9065 -42.7469 -42.7469 -42.7445 -42.7445 -42.3613 -42.3612
   -42.3609 -42.3609  -9.8744  -9.8744   0.4608   0.4609   0.9658   0.9658
     3.4216   3.4216  10.2916  10.2916  10.6601

     occupation numbers 
     1.0000   1.0000   1.0000   1.0000   1.0000   1.0000   1.0000   1.0000
     1.0000   1.0000   1.0000   1.0000   1.0000   1.0000   1.0000   1.0000
     0.0015   0.0015   0.0000   0.0000   0.0000

          k = 0.1642-0.3192-0.1859 (  6844 PWs)   bands (ev):

   -42.9066 -42.9065 -42.7469 -42.7469 -42.7445 -42.7445 -42.3613 -42.3612
   -42.3609 -42.3609  -9.8742  -9.8742   0.2388   0.2388   1.2728   1.2728
     3.4211   3.4211   8.8567   8.8567  12.6692

     occupation numbers 
     1.0000   1.0000   1.0000   1.0000   1.0000   1.0000   1.0000   1.0000
     1.0000   1.0000   1.0000   1.0000   1.0000   1.0000   1.0000   1.0000
     0.0015   0.0015   0.0000   0.0000   0.0000

          k = 0.3283 0.0000 0.0000 (  6811 PWs)   bands (ev):

   -42.8637 -42.8636 -42.7576 -42.7576 -42.7553 -42.7552 -42.3604 -42.3603
   -42.3602 -42.3601  -8.8575  -8.7342  -0.6533  -0.5239   1.3708   2.2544
     2.3853   2.4879   9.2655  10.2063  10.7962

     occupation numbers 
     1.0000   1.0000   1.0000   1.0000   1.0000   1.0000   1.0000   1.0000
     1.0000   1.0000   1.0000   1.0000   1.0000   1.0000   1.0000   1.0000
     1.0000   1.0000   0.0000   0.0000   0.0000

          k = 0.3283 0.0000-0.1859 (  6792 PWs)   bands (ev):

   -42.8637 -42.8636 -42.7576 -42.7576 -42.7553 -42.7552 -42.3604 -42.3603
   -42.3602 -42.3601  -8.7967  -8.7967  -0.5959  -0.5959   1.8519   1.8519
     2.3679   2.3679   9.9303   9.9303  11.0471

     occupation numbers 
     1.0000   1.0000   1.0000   1.0000   1.0000   1.0000   1.0000   1.0000
     1.0000   1.0000   1.0000   1.0000   1.0000   1.0000   1.0000   1.0000
     1.0000   1.0000   0.0000   0.0000   0.0000

          k = 0.3283 0.1596 0.0000 (  6819 PWs)   bands (ev):

   -42.8636 -42.8636 -42.7576 -42.7576 -42.7553 -42.7552 -42.3604 -42.3603
   -42.3601 -42.3601  -8.8040  -8.7154  -0.5969  -0.5041   1.5521   1.8215
     1.9741   2.2860   9.8529  10.5942  10.6836

     occupation numbers 
     1.0000   1.0000   1.0000   1.0000   1.0000   1.0000   1.0000   1.0000
     1.0000   1.0000   1.0000   1.0000   1.0000   1.0000   1.0000   1.0000
     1.0000   1.0000   0.0000   0.0000   0.0000

          k = 0.3283 0.1596-0.1859 (  6804 PWs)   bands (ev):

   -42.8636 -42.8636 -42.7576 -42.7576 -42.7553 -42.7552 -42.3604 -42.3603
   -42.3601 -42.3601  -8.7601  -8.7601  -0.5534  -0.5534   1.6567   1.6567
     2.1679   2.1679  10.3675  10.3675  10.7840

     occupation numbers 
     1.0000   1.0000   1.0000   1.0000   1.0000   1.0000   1.0000   1.0000
     1.0000   1.0000   1.0000   1.0000   1.0000   1.0000   1.0000   1.0000
     1.0000   1.0000   0.0000   0.0000   0.0000

          k = 0.3283-0.3192 0.0000 (  6798 PWs)   bands (ev):

   -42.8636 -42.8636 -42.7576 -42.7576 -42.7553 -42.7552 -42.3604 -42.3603
   -42.3600 -42.3600  -8.7229  -8.7228  -0.5119  -0.5119   1.4964   1.4964
     1.9595   1.9595  10.0243  10.0243  10.5278

     occupation numbers 
     1.0000   1.0000   1.0000   1.0000   1.0000   1.0000   1.0000   1.0000
     1.0000   1.0000   1.0000   1.0000   1.0000   1.0000   1.0000   1.0000
     1.0000   1.0000   0.0000   0.0000   0.0000

          k = 0.3283-0.3192-0.1859 (  6828 PWs)   bands (ev):

   -42.8636 -42.8636 -42.7576 -42.7576 -42.7553 -42.7552 -42.3604 -42.3604
   -42.3600 -42.3600  -8.7227  -8.7227  -0.5097  -0.5097   1.3286   1.3286
     2.1680   2.1680  10.2501  10.2501  10.3134

     occupation numbers 
     1.0000   1.0000   1.0000   1.0000   1.0000   1.0000   1.0000   1.0000
     1.0000   1.0000   1.0000   1.0000   1.0000   1.0000   1.0000   1.0000
     1.0000   1.0000   0.0000   0.0000   0.0000

          k =-0.4925 0.0000 0.0000 (  6814 PWs)   bands (ev):

   -42.8421 -42.8421 -42.7630 -42.7629 -42.7606 -42.7606 -42.3599 -42.3599
   -42.3597 -42.3597  -7.8676  -7.8676  -2.5151  -2.5151   2.5195   2.5195
     3.0043   3.0043   9.6622   9.6622  10.8311

     occupation numbers 
     1.0000   1.0000   1.0000   1.0000   1.0000   1.0000   1.0000   1.0000
     1.0000   1.0000   1.0000   1.0000   1.0000   1.0000   1.0000   1.0000
     0.9135   0.9135   0.0000   0.0000   0.0000

          k =-0.4925 0.0000-0.1859 (  6784 PWs)   bands (ev):

   -42.8421 -42.8421 -42.7630 -42.7629 -42.7606 -42.7606 -42.3599 -42.3599
   -42.3597 -42.3597  -7.8672  -7.8672  -2.5215  -2.5215   2.5600   2.5600
     3.0050   3.0050   9.1154   9.1154  10.7635

     occupation numbers 
     1.0000   1.0000   1.0000   1.0000   1.0000   1.0000   1.0000   1.0000
     1.0000   1.0000   1.0000   1.0000   1.0000   1.0000   1.0000   1.0000
     0.9123   0.9123   0.0000   0.0000   0.0000

          k =-0.4925 0.1596 0.0000 (  6836 PWs)   bands (ev):

   -42.8421 -42.8421 -42.7630 -42.7630 -42.7606 -42.7606 -42.3599 -42.3599
   -42.3597 -42.3596  -7.8317  -7.8317  -2.4763  -2.4763   2.5833   2.5833
     2.5942   2.5942   9.3425   9.3425   9.5788

     occupation numbers 
     1.0000   1.0000   1.0000   1.0000   1.0000   1.0000   1.0000   1.0000
     1.0000   1.0000   1.0000   1.0000   1.0000   1.0000   1.0000   1.0000
     1.0000   1.0000   0.0000   0.0000   0.0000

          k =-0.4925 0.1596-0.1859 (  6800 PWs)   bands (ev):

   -42.8421 -42.8421 -42.7630 -42.7630 -42.7606 -42.7606 -42.3599 -42.3599
   -42.3597 -42.3596  -7.8314  -7.8314  -2.4790  -2.4790   2.5858   2.5858
     2.5987   2.5987   9.4708   9.4708   9.5290

     occupation numbers 
     1.0000   1.0000   1.0000   1.0000   1.0000   1.0000   1.0000   1.0000
     1.0000   1.0000   1.0000   1.0000   1.0000   1.0000   1.0000   1.0000
     1.0000   1.0000   0.0000   0.0000   0.0000

          k =-0.4925-0.3192 0.0000 (  6828 PWs)   bands (ev):

   -42.8421 -42.8421 -42.7630 -42.7630 -42.7606 -42.7606 -42.3599 -42.3599
   -42.3596 -42.3596  -7.7950  -7.7950  -2.4368  -2.4368   2.2352   2.2352
     2.6498   2.6498   8.6123   8.6123   9.4612

     occupation numbers 
     1.0000   1.0000   1.0000   1.0000   1.0000   1.0000   1.0000   1.0000
     1.0000   1.0000   1.0000   1.0000   1.0000   1.0000   1.0000   1.0000
     1.0000   1.0000   0.0000   0.0000   0.0000

          k =-0.4925-0.3192-0.1859 (  6784 PWs)   bands (ev):

   -42.8421 -42.8421 -42.7630 -42.7630 -42.7606 -42.7606 -42.3599 -42.3599
   -42.3596 -42.3596  -7.7949  -7.7949  -2.4354  -2.4354   2.2201   2.2201
     2.6371   2.6371   8.8393   8.8393   9.8929

     occupation numbers 
     1.0000   1.0000   1.0000   1.0000   1.0000   1.0000   1.0000   1.0000
     1.0000   1.0000   1.0000   1.0000   1.0000   1.0000   1.0000   1.0000
     1.0000   1.0000   0.0000   0.0000   0.0000

     the Fermi energy is     3.1354 ev

!    total energy              =   -1127.13437497 Ry
     total all-electron energy =    -28490.296333 Ry
     estimated scf accuracy    <          3.0E-10 Ry
     smearing contrib. (-TS)   =      -0.00042237 Ry
     internal energy E=F+TS    =   -1127.13395259 Ry

     The total energy is F=E-TS. E is the sum of the following terms:
     one-electron contribution =    -320.73022945 Ry
     hartree contribution      =     170.48386898 Ry
     xc contribution           =    -107.91069179 Ry
     ewald contribution        =    -225.89318368 Ry
     one-center paw contrib.   =    -643.08371665 Ry
      -> PAW hartree energy AE =     153.10328515 Ry
      -> PAW hartree energy PS =    -154.19772080 Ry
      -> PAW xc energy AE      =    -373.21559637 Ry
      -> PAW xc energy PS      =      52.76816334 Ry
      -> total E_H with PAW    =     169.38943333 Ry
      -> total E_XC with PAW   =    -428.35812482 Ry

     convergence has been achieved in  15 iterations


     -----------------------------------------------
     Non-local corr. energy    =       1.16943284 Ry
     -----------------------------------------------


     Forces acting on atoms (cartesian axes, Ry/au):

     atom    1 type  1   force =     0.00000000    0.00000000    0.00000000
     atom    2 type  1   force =     0.00000000    0.00000000    0.00000000
     The non-local contrib.  to forces
     atom    1 type  1   force =     0.00000000    0.00000000    0.00000000
     atom    2 type  1   force =     0.00000000    0.00000000    0.00000000
     The ionic contribution  to forces
     atom    1 type  1   force =    -0.00000000    0.00000002   -0.00000033
     atom    2 type  1   force =     0.00000000   -0.00000002    0.00000033
     The local contribution  to forces
     atom    1 type  1   force =     0.00000000    0.00000332    0.00000000
     atom    2 type  1   force =     0.00000200    0.00000000    0.00000568
     The core correction contribution to forces
     atom    1 type  1   force =     0.00000000    0.00000027    0.00000000
     atom    2 type  1   force =     0.00000017    0.00000000    0.00000045
     The Hubbard contrib.    to forces
     atom    1 type  1   force =     0.00000000    0.00000000    0.00000000
     atom    2 type  1   force =     0.00000000    0.00000000    0.00000000
     The SCF correction term to forces
     atom    1 type  1   force =     0.00000000   -0.00000000    0.00000000
     atom    2 type  1   force =    -0.00000000    0.00000000   -0.00000000

     Total force =     0.000000     Total SCF correction =     0.000000


     Computing stress (Cartesian axis) and pressure



     -----------------------------------------------
     Non-local corr. energy    =       1.16943284 Ry
     -----------------------------------------------

          total   stress  (Ry/bohr**3)                   (kbar)     P=        2.92
   0.00001060   0.00000000   0.00000000            1.56        0.00        0.00
   0.00000000   0.00003206   0.00000000            0.00        4.72        0.00
   0.00000000   0.00000000   0.00001683            0.00        0.00        2.48

     kinetic stress (kbar)  11389.16      0.00      0.00
                                0.00  11903.26      0.00
                                0.00      0.00  11903.76

     local   stress (kbar) -25380.45      0.00     -0.00
                                0.00   4449.77      0.00
                               -0.00      0.00   4253.45

     nonloc. stress (kbar)   1870.26      0.00      0.00
                                0.00   2296.95      0.00
                                0.00      0.00   2299.64

     hartree stress (kbar)  20010.88      0.00      0.00
                                0.00   8130.03     -0.00
                                0.00     -0.00   8221.57

     exc-cor stress (kbar)   7522.78     -0.00      0.00
                               -0.00   7504.48      0.00
                                0.00      0.00   7504.29

     corecor stress (kbar) -11984.19     -0.00     -0.00
                               -0.00 -11995.26     -0.00
                               -0.00     -0.00 -11995.19

     ewald   stress (kbar)  -3515.67      0.00      0.00
                                0.00 -22382.28      0.00
                                0.00      0.00 -22282.79

     hubbard stress (kbar)      0.00      0.00      0.00
                                0.00      0.00      0.00
                                0.00      0.00      0.00

     DFT-D   stress (kbar)      0.00      0.00      0.00
                                0.00      0.00      0.00
                                0.00      0.00      0.00

     XDM     stress (kbar)      0.00      0.00      0.00
                                0.00      0.00      0.00
                                0.00      0.00      0.00

     dft-nl  stress (kbar)     88.79     -0.00     -0.00
                               -0.00     97.77      0.00
                               -0.00      0.00     97.74

     TS-vdW  stress (kbar)      0.00      0.00      0.00
                                0.00      0.00      0.00
                                0.00      0.00      0.00

     MDB     stress (kbar)      0.00      0.00      0.00
                                0.00      0.00      0.00
                                0.00      0.00      0.00

     3D-RISM stress (kbar)      0.00      0.00      0.00
                                0.00      0.00      0.00
                                0.00      0.00      0.00


     Writing all to output data dir ./PbI2.save/
 
     init_run     :      0.65s CPU      0.74s WALL (       2 calls)
     electrons    :     70.84s CPU     76.36s WALL (      18 calls)
     update_pot   :      2.17s CPU      2.31s WALL (      16 calls)
     forces       :      1.33s CPU      1.43s WALL (      18 calls)
     stress       :      2.74s CPU      2.90s WALL (      18 calls)

     Called by init_run:
     wfcinit      :      0.07s CPU      0.08s WALL (       2 calls)
     wfcinit:atom :      0.00s CPU      0.00s WALL (      12 calls)
     wfcinit:wfcr :      0.06s CPU      0.07s WALL (      12 calls)
     potinit      :      0.44s CPU      0.49s WALL (       2 calls)
     hinit0       :      0.10s CPU      0.11s WALL (       2 calls)

     Called by electrons:
     c_bands      :     35.18s CPU     36.47s WALL (     363 calls)
     sum_band     :      8.16s CPU      8.41s WALL (     363 calls)
     v_of_rho     :      9.64s CPU     10.40s WALL (     375 calls)
     v_h          :      0.11s CPU      0.12s WALL (     375 calls)
     v_xc         :     10.42s CPU     11.24s WALL (     411 calls)
     newd         :      0.92s CPU      0.95s WALL (     375 calls)
     PAW_pot      :     17.27s CPU     19.51s WALL (     391 calls)
     mix_rho      :      0.57s CPU      0.57s WALL (     363 calls)
     vdW_kernel   :      0.26s CPU      0.26s WALL (       1 calls)

     Called by c_bands:
     init_us_2    :      0.24s CPU      0.25s WALL (    4680 calls)
     init_us_2:cp :      0.23s CPU      0.24s WALL (    4680 calls)
     cegterg      :     32.36s CPU     33.19s WALL (    2178 calls)

     Called by sum_band:
     sum_band:wei :      0.24s CPU      0.25s WALL (     363 calls)
     sum_band:loo :      5.21s CPU      5.37s WALL (     363 calls)
     sum_band:buf :      0.02s CPU      0.02s WALL (    2178 calls)
     sum_band:ini :      0.11s CPU      0.11s WALL (    2178 calls)
     sum_band:cal :      0.53s CPU      0.54s WALL (    2274 calls)
     sum_band:bec :      0.03s CPU      0.03s WALL (    2274 calls)
     addusdens    :      1.31s CPU      1.34s WALL (     363 calls)
     addusd:skk   :      0.00s CPU      0.00s WALL (     363 calls)
     addusd:dgemm :      0.22s CPU      0.23s WALL (     363 calls)
     addusd:qvan2 :      0.33s CPU      0.34s WALL (     363 calls)

     Called by *egterg:
     cdiaghg      :      4.67s CPU      4.76s WALL (    6797 calls)
     cegterg:over :      1.60s CPU      1.65s WALL (    4751 calls)
     cegterg:upda :      0.38s CPU      0.39s WALL (    4751 calls)
     cegterg:last :      0.21s CPU      0.22s WALL (    2265 calls)
     h_psi        :     24.14s CPU     24.81s WALL (    6941 calls)
     s_psi        :      0.36s CPU      0.37s WALL (    6941 calls)
     g_psi        :      0.03s CPU      0.03s WALL (    4751 calls)

     Called by h_psi:
     h_psi:calbec :      1.35s CPU      1.38s WALL (    6941 calls)
     vloc_psi     :     22.31s CPU     22.94s WALL (    6941 calls)
     add_vuspsi   :      0.40s CPU      0.41s WALL (    6941 calls)

     General routines
     calbec       :      1.96s CPU      2.02s WALL (    9755 calls)
     fft          :      5.50s CPU      5.63s WALL (   26653 calls)
     ffts         :      0.14s CPU      0.15s WALL (     738 calls)
     fftw         :     25.53s CPU     26.26s WALL (  273192 calls)
     interpolate  :      0.21s CPU      0.22s WALL (     375 calls)
 
     Parallel routines

     PAW routines
     PAW_pot      :     17.27s CPU     19.51s WALL (     391 calls)
     PAW_symme    :      0.18s CPU      0.19s WALL (     754 calls)
 
     PWSCF        :   1m19.09s CPU   1m26.19s WALL

 
   This run was terminated on:  15:47:20  20Feb2024            

=------------------------------------------------------------------------------=
   JOB DONE.
=------------------------------------------------------------------------------=
