
     Program PWSCF v.7.1 starts on 28Mar2024 at  6: 4:41 

     This program is part of the open-source Quantum ESPRESSO suite
     for quantum simulation of materials; please cite
         "P. Giannozzi et al., J. Phys.:Condens. Matter 21 395502 (2009);
         "P. Giannozzi et al., J. Phys.:Condens. Matter 29 465901 (2017);
         "P. Giannozzi et al., J. Chem. Phys. 152 154105 (2020);
          URL http://www.quantum-espresso.org", 
     in publications or presentations arising from this work. More details at
     http://www.quantum-espresso.org/quote

     Parallel version (MPI & OpenMP), running on      27 processor cores
     Number of MPI processes:                27
     Threads/MPI process:                     1

     MPI processes distributed on     1 nodes
     1962373 MiB available memory on the printing compute node when the environment starts
 
     Reading input from espresso.pwi
Warning: card &CELL ignored
Warning: card    CELL_DYNAMICS    = 'BFGS' ignored
Warning: card / ignored

     Current dimensions of program PWSCF are:
     Max number of different atomic species (ntypx) = 10
     Max number of k-points (npk) =  40000
     Max angular momentum in pseudopotentials (lmaxx) =  4
     file Ga.pbe-dn-kjpaw_psl.1.0.0.UPF: wavefunction(s)  4S renormalized
     file N.pbe-n-kjpaw_psl.1.0.0.UPF: wavefunction(s)  2S renormalized

     **************************************************************************
     Initializing libbeef V0.1.2 with the BEEF-vdW functional.
     Citation: Wellendorff et al., PRB 85, 235149 (2012).
     **************************************************************************


     IMPORTANT: XC functional enforced from input :
     Exchange-correlation= BEEF-VDW
                           (   1   4  43  14   2   0   0)
     Any further DFT definition will be discarded
     Please, verify this is what you really want

 
     R & G space division:  proc/nbgrp/npool/nimage =      27
     Subspace diagonalization in iterative solution of the eigenvalue problem:
     a serial algorithm will be used

 
     Parallelization info
     --------------------
     sticks:   dense  smooth     PW     G-vecs:    dense   smooth      PW
     Min         134     107     28                10662     7629    1068
     Max         135     108     29                10667     7636    1077
     Sum        3643    2905    769               287969   206075   28939
 
     Using Slab Decomposition
 


     bravais-lattice index     =            4
     lattice parameter (alat)  =      12.2626  a.u.
     unit-cell volume          =    2602.7676 (a.u.)^3
     number of atoms/cell      =           32
     number of atomic types    =            2
     number of electrons       =       293.00
     number of Kohn-Sham states=          176
     kinetic-energy cutoff     =      70.0000  Ry
     charge density cutoff     =     350.0000  Ry
     scf convergence threshold =      1.0E-07
     mixing beta               =       0.7000
     number of iterations used =            8  plain     mixing
     Exchange-correlation= BEEF-VDW
                           (   1   4  43  14   2   0   0)

     celldm(1)=  12.262616  celldm(2)=   0.000000  celldm(3)=   1.629879
     celldm(4)=   0.000000  celldm(5)=   0.000000  celldm(6)=   0.000000

     crystal axes: (cart. coord. in units of alat)
               a(1) = (   1.000000   0.000000   0.000000 )  
               a(2) = (  -0.500000   0.866025   0.000000 )  
               a(3) = (   0.000000   0.000000   1.629879 )  

     reciprocal axes: (cart. coord. in units 2 pi/alat)
               b(1) = (  1.000000  0.577350 -0.000000 )  
               b(2) = (  0.000000  1.154701  0.000000 )  
               b(3) = (  0.000000 -0.000000  0.613542 )  


     PseudoPot. # 1 for Ga read from file:
     /trace/group/acmegroup/atimmins/packages/espresso/pseudo/psl_1.0.0/pslibrary.1.0.0/pbe/PSEUDOPOTENTIALS/Ga.pbe-dn-kjpaw_psl.1.0.0.UPF
     MD5 check sum: cd2a01e492f15b435d17032472d8505c
     Pseudo is Projector augmented-wave + core cor, Zval = 13.0
     Generated using 'atomic' code by A. Dal Corso  v.7.1
     Shape of augmentation charge: PSQ
     Using radial grid of 1205 points,  6 beta functions with: 
                l(1) =   0
                l(2) =   0
                l(3) =   1
                l(4) =   1
                l(5) =   2
                l(6) =   2
     Q(r) pseudized with 0 coefficients 


     PseudoPot. # 2 for N  read from file:
     /trace/group/acmegroup/atimmins/packages/espresso/pseudo/psl_1.0.0/pslibrary.1.0.0/pbe/PSEUDOPOTENTIALS/N.pbe-n-kjpaw_psl.1.0.0.UPF
     MD5 check sum: f77f775694dac7e2c3fe1c82443d1a16
     Pseudo is Projector augmented-wave + core cor, Zval =  5.0
     Generated using 'atomic' code by A. Dal Corso  v.7.1
     Shape of augmentation charge: PSQ
     Using radial grid of 1085 points,  4 beta functions with: 
                l(1) =   0
                l(2) =   0
                l(3) =   1
                l(4) =   1
     Q(r) pseudized with 0 coefficients 


     atomic species   valence    mass     pseudopotential
        Ga            13.00    69.72300     Ga( 1.00)
        N              5.00    14.00700     N ( 1.00)

      6 Sym. Ops. (no inversion) found ( 4 have fractional translation)


                                    s                        frac. trans.

      isym =  1     identity                                     

 cryst.   s( 1) = (     1          0          0      )
                  (     0          1          0      )
                  (     0          0          1      )

 cart.    s( 1) = (  1.0000000  0.0000000  0.0000000 )
                  (  0.0000000  1.0000000  0.0000000 )
                  (  0.0000000  0.0000000  1.0000000 )


      isym =  2     120 deg rotation - cryst. axis [0,0,1]       

 cryst.   s( 2) = (     0          1          0      )    f =(  0.4999999 )
                  (    -1         -1          0      )       (  0.0000004 )
                  (     0          0          1      )       (  0.0000000 )

 cart.    s( 2) = ( -0.5000000 -0.8660254  0.0000000 )    f =(  0.4999998 )
                  (  0.8660254 -0.5000000  0.0000000 )       (  0.0000003 )
                  (  0.0000000  0.0000000  1.0000000 )       (  0.0000000 )


      isym =  3     120 deg rotation - cryst. axis [0,0,-1]      

 cryst.   s( 3) = (    -1         -1          0      )    f =(  0.4999996 )
                  (     1          0          0      )       (  0.4999999 )
                  (     0          0          1      )       (  0.0000000 )

 cart.    s( 3) = ( -0.5000000  0.8660254  0.0000000 )    f =(  0.2499996 )
                  ( -0.8660254 -0.5000000  0.0000000 )       (  0.4330127 )
                  (  0.0000000  0.0000000  1.0000000 )       (  0.0000000 )


      isym =  4     inv. 180 deg rotation - cart. axis [1,0,0]   

 cryst.   s( 4) = (    -1          0          0      )    f =(  0.4999996 )
                  (     1          1          0      )       (  0.0000000 )
                  (     0          0          1      )       (  0.0000000 )

 cart.    s( 4) = ( -1.0000000  0.0000000  0.0000000 )    f =(  0.4999996 )
                  (  0.0000000  1.0000000  0.0000000 )       (  0.0000000 )
                  (  0.0000000  0.0000000  1.0000000 )       (  0.0000000 )


      isym =  5     inv. 180 deg rotation - cryst. axis [0,1,0]  

 cryst.   s( 5) = (     1          1          0      )
                  (     0         -1          0      )
                  (     0          0          1      )

 cart.    s( 5) = (  0.5000000  0.8660254  0.0000000 )
                  (  0.8660254 -0.5000000  0.0000000 )
                  (  0.0000000  0.0000000  1.0000000 )


      isym =  6     inv. 180 deg rotation - cryst. axis [1,1,0]  

 cryst.   s( 6) = (     0         -1          0      )    f =(  0.4999999 )
                  (    -1          0          0      )       (  0.4999999 )
                  (     0          0          1      )       (  0.0000000 )

 cart.    s( 6) = (  0.5000000 -0.8660254  0.0000000 )    f =(  0.2500000 )
                  ( -0.8660254 -0.5000000  0.0000000 )       (  0.4330127 )
                  (  0.0000000  0.0000000  1.0000000 )       (  0.0000000 )


     point group C_3v (3m)  
     there are  3 classes
     the character table:

       E     2C3   3s_v 
A_1    1.00  1.00  1.00
A_2    1.00  1.00 -1.00
E      2.00 -1.00  0.00

     the symmetry operations in each class and the name of the first element:

     E        1
          identity                                               
     2C3      2    3
          120 deg rotation - cryst. axis [0,0,1]                 
     3s_v     4    5    6
          inv. 180 deg rotation - cart. axis [1,0,0]             

   Cartesian axes

     site n.     atom                  positions (alat units)
         1           Ga  tau(   1) = (   0.2500002   0.1443375   0.4067871  )
         2           Ga  tau(   2) = (   0.2500002   0.1443375   1.2217266  )
         3           Ga  tau(   3) = (   0.0000002   0.5773502   0.4067871  )
         4           Ga  tau(   4) = (   0.0000002   0.5773502   1.2217266  )
         5           Ga  tau(   5) = (   0.7500002   0.1443375   0.4067871  )
         6           Ga  tau(   6) = (   0.7500002   0.1443375   1.2217266  )
         7           Ga  tau(   7) = (   0.5000002   0.5773502   0.4067871  )
         8           Ga  tau(   8) = (   0.5000002   0.5773502   1.2217266  )
         9           Ga  tau(   9) = (  -0.0000003   0.2886754   0.8142568  )
        10           Ga  tau(  10) = (  -0.0000003   0.2886754   1.6291964  )
        11           Ga  tau(  11) = (  -0.2500003   0.7216881   0.8142568  )
        12           Ga  tau(  12) = (  -0.2500003   0.7216881   1.6291964  )
        13           Ga  tau(  13) = (   0.4999997   0.2886754   0.8142568  )
        14           Ga  tau(  14) = (   0.4999997   0.2886754   1.6291964  )
        15           Ga  tau(  15) = (   0.2499997   0.7216881   0.8142568  )
        16           Ga  tau(  16) = (   0.2499997   0.7216881   1.6291964  )
        17           N   tau(  17) = (   0.2500002   0.1443375   1.5286943  )
        18           N   tau(  18) = (   0.0000002   0.5773502   0.7137548  )
        19           N   tau(  19) = (   0.0000002   0.5773502   1.5286943  )
        20           N   tau(  20) = (   0.7500002   0.1443375   0.7137548  )
        21           N   tau(  21) = (   0.7500002   0.1443375   1.5286943  )
        22           N   tau(  22) = (   0.5000002   0.5773502   0.7137548  )
        23           N   tau(  23) = (   0.5000002   0.5773502   1.5286943  )
        24           N   tau(  24) = (  -0.0000003   0.2886754   0.3062850  )
        25           N   tau(  25) = (  -0.0000003   0.2886754   1.1212245  )
        26           N   tau(  26) = (  -0.2500003   0.7216881   0.3062850  )
        27           N   tau(  27) = (  -0.2500003   0.7216881   1.1212245  )
        28           N   tau(  28) = (   0.4999997   0.2886754   0.3062850  )
        29           N   tau(  29) = (   0.4999997   0.2886754   1.1212245  )
        30           N   tau(  30) = (   0.2499997   0.7216881   0.3062850  )
        31           N   tau(  31) = (   0.2499997   0.7216881   1.1212245  )
        32           Ga  tau(  32) = (   0.2500002   0.1443375   0.7137548  )

   Crystallographic axes

     site n.     atom                  positions (cryst. coord.)
         1           Ga  tau(   1) = (  0.3333335  0.1666666  0.2495811  )
         2           Ga  tau(   2) = (  0.3333335  0.1666666  0.7495811  )
         3           Ga  tau(   3) = (  0.3333335  0.6666666  0.2495811  )
         4           Ga  tau(   4) = (  0.3333335  0.6666666  0.7495811  )
         5           Ga  tau(   5) = (  0.8333335  0.1666666  0.2495811  )
         6           Ga  tau(   6) = (  0.8333335  0.1666666  0.7495811  )
         7           Ga  tau(   7) = (  0.8333335  0.6666666  0.2495811  )
         8           Ga  tau(   8) = (  0.8333335  0.6666666  0.7495811  )
         9           Ga  tau(   9) = (  0.1666665  0.3333336  0.4995811  )
        10           Ga  tau(  10) = (  0.1666665  0.3333336  0.9995811  )
        11           Ga  tau(  11) = (  0.1666665  0.8333336  0.4995811  )
        12           Ga  tau(  12) = (  0.1666665  0.8333336  0.9995811  )
        13           Ga  tau(  13) = (  0.6666665  0.3333336  0.4995811  )
        14           Ga  tau(  14) = (  0.6666665  0.3333336  0.9995811  )
        15           Ga  tau(  15) = (  0.6666665  0.8333336  0.4995811  )
        16           Ga  tau(  16) = (  0.6666665  0.8333336  0.9995811  )
        17           N   tau(  17) = (  0.3333335  0.1666666  0.9379189  )
        18           N   tau(  18) = (  0.3333335  0.6666666  0.4379189  )
        19           N   tau(  19) = (  0.3333335  0.6666666  0.9379189  )
        20           N   tau(  20) = (  0.8333335  0.1666666  0.4379189  )
        21           N   tau(  21) = (  0.8333335  0.1666666  0.9379189  )
        22           N   tau(  22) = (  0.8333335  0.6666666  0.4379189  )
        23           N   tau(  23) = (  0.8333335  0.6666666  0.9379189  )
        24           N   tau(  24) = (  0.1666665  0.3333336  0.1879189  )
        25           N   tau(  25) = (  0.1666665  0.3333336  0.6879189  )
        26           N   tau(  26) = (  0.1666665  0.8333336  0.1879189  )
        27           N   tau(  27) = (  0.1666665  0.8333336  0.6879189  )
        28           N   tau(  28) = (  0.6666665  0.3333336  0.1879189  )
        29           N   tau(  29) = (  0.6666665  0.3333336  0.6879189  )
        30           N   tau(  30) = (  0.6666665  0.8333336  0.1879189  )
        31           N   tau(  31) = (  0.6666665  0.8333336  0.6879189  )
        32           Ga  tau(  32) = (  0.3333335  0.1666666  0.4379189  )

     number of k points=     8  Gaussian smearing, width (Ry)=  0.0100
                       cart. coord. in units 2pi/alat
        k(    1) = (   0.0000000   0.0000000   0.0000000), wk =   0.0625000
        k(    2) = (   0.0000000   0.0000000  -0.3067712), wk =   0.0625000
        k(    3) = (   0.0000000   0.2886751   0.0000000), wk =   0.3750000
        k(    4) = (   0.0000000   0.2886751  -0.3067712), wk =   0.3750000
        k(    5) = (   0.0000000  -0.5773503   0.0000000), wk =   0.1875000
        k(    6) = (   0.0000000  -0.5773503  -0.3067712), wk =   0.1875000
        k(    7) = (   0.2500000   0.4330127   0.0000000), wk =   0.3750000
        k(    8) = (   0.2500000   0.4330127  -0.3067712), wk =   0.3750000

                       cryst. coord.
        k(    1) = (   0.0000000   0.0000000   0.0000000), wk =   0.0625000
        k(    2) = (   0.0000000   0.0000000  -0.5000000), wk =   0.0625000
        k(    3) = (   0.0000000   0.2500000   0.0000000), wk =   0.3750000
        k(    4) = (   0.0000000   0.2500000  -0.5000000), wk =   0.3750000
        k(    5) = (   0.0000000  -0.5000000   0.0000000), wk =   0.1875000
        k(    6) = (   0.0000000  -0.5000000  -0.5000000), wk =   0.1875000
        k(    7) = (   0.2500000   0.2500000   0.0000000), wk =   0.3750000
        k(    8) = (   0.2500000   0.2500000  -0.5000000), wk =   0.3750000

     Dense  grid:   287969 G-vectors     FFT dimensions: (  80,  80, 120)

     Smooth grid:   206075 G-vectors     FFT dimensions: (  72,  72, 108)

     Dynamical RAM for                 wfc:       2.56 MB

     Dynamical RAM for     wfc (w. buffer):      23.03 MB

     Dynamical RAM for           str. fact:       0.33 MB

     Dynamical RAM for           local pot:       0.00 MB

     Dynamical RAM for          nlocal pot:       6.19 MB

     Dynamical RAM for                qrad:       3.00 MB

     Dynamical RAM for          rho,v,vnew:       1.22 MB

     Dynamical RAM for               rhoin:       0.41 MB

     Dynamical RAM for            rho*nmix:       2.60 MB

     Dynamical RAM for           G-vectors:       0.67 MB

     Dynamical RAM for          h,s,v(r/c):      22.69 MB

     Dynamical RAM for          <psi|beta>:       1.14 MB

     Dynamical RAM for                 psi:      10.24 MB

     Dynamical RAM for                hpsi:      10.24 MB

     Dynamical RAM for                spsi:      10.24 MB

     Dynamical RAM for      wfcinit/wfcrot:       5.83 MB

     Dynamical RAM for           addusdens:      33.04 MB

     Dynamical RAM for          addusforce:      38.40 MB

     Dynamical RAM for         addusstress:      32.72 MB

     Estimated static dynamical RAM per process >      36.56 MB

     Estimated max dynamical RAM per process >      93.71 MB

     Estimated total dynamical RAM >       2.47 GB

     Atomic positions and unit cell read from directory:
     ./GaN.save/
     Atomic positions from file used, from input discarded
 

     Check: negative core charge=   -0.000003

     The initial density is read from file :
     ./GaN.save/charge-density



     %%%%%%%%%%%%%%%%%%%%%%%%%%%%%%%%%%%%%%%%%%%%%%%%%%%%%%%%%%%%%%%%%%%%%%%%
     %                                                                      %
     % You are using vdW-DF, which was implemented by the Thonhauser group. %
     % Please cite the following two papers that made this development      %
     % possible and the two reviews that describe the various versions:     %
     %                                                                      %
     %   T. Thonhauser et al., PRL 115, 136402 (2015).                      %
     %   T. Thonhauser et al., PRB 76, 125112 (2007).                       %
     %   K. Berland et al., Rep. Prog. Phys. 78, 066501 (2015).             %
     %   D.C. Langreth et al., J. Phys.: Condens. Matter 21, 084203 (2009). %
     %                                                                      %
     % If you are calculating stress with vdW-DF, please also cite:         %
     %                                                                      %
     %   R. Sabatini et al., J. Phys.: Condens. Matter 24, 424209 (2012).   %
     %                                                                      %
     %%%%%%%%%%%%%%%%%%%%%%%%%%%%%%%%%%%%%%%%%%%%%%%%%%%%%%%%%%%%%%%%%%%%%%%%

     %%%%%%%%%%%%%%%%%%%%%%%%%%%%%%%%%%%%%%%%%%%%%%%%%%%%%%%%%%%%%%%%%%%%%%%%
     %                                                                      %
     %  vdW-DF NEWS:                                                        %
     %                                                                      %
     %  * vdW-DF3 is now available. DOI: 10.1021/acs.jctc.0c00471           %
     %    use with input_dft = 'vdW-DF3-opt1' or 'vdW-DF3-opt2'             %
     %                                                                      %
     %  * Unscreened and range-separated vdW-DF hybrid functionals          %
     %    DOI: 10.1063/1.4986522 and 10.1088/1361-648X/ac2ad2               %
     %    use with input_dft = 'vdW-DF-cx0' (etc) and 'vdW-DF-ahcx'         %
     %                                                                      %
     %%%%%%%%%%%%%%%%%%%%%%%%%%%%%%%%%%%%%%%%%%%%%%%%%%%%%%%%%%%%%%%%%%%%%%%%


     Carrying out vdW-DF run using the following parameters:
     Nqs    =  20  Npoints =  1024  r_max =  100.000
     q_mesh =  0.00001000  0.04494208  0.09755937  0.15916263
               0.23128650  0.31572767  0.41458969  0.53033537
               0.66584808  0.82450364  1.01025438  1.22772762
               1.48234092  1.78043706  2.12944203  2.53805004
               3.01644009  3.57652955  4.23227104  5.00000000


     -----------------------------------------------
     Non-local corr. energy    =       9.10012517 Ry
     -----------------------------------------------

     Wavefunctions not found or not readable, recomputing them from scratch
     Starting wfcs are  213 randomized atomic wfcs
     Checking if some PAW data can be deallocated... 
       PAW data deallocated on   15 nodes for type:  1
       PAW data deallocated on   12 nodes for type:  2

     total cpu time spent up to now is        5.2 secs

     Self-consistent Calculation

     iteration #  1     ecut=    70.00 Ry     beta= 0.70
     Davidson diagonalization with overlap

---- Real-time Memory Report at c_bands before calling an iterative solver
           270 MiB given to the printing process from OS
             0 MiB allocation reported by mallinfo(arena+hblkhd)
       1960472 MiB available memory on the node where the printing process lives
------------------
     c_bands:  2 eigenvalues not converged
     c_bands:  3 eigenvalues not converged
     c_bands:  2 eigenvalues not converged
     c_bands:  2 eigenvalues not converged
     ethr =  1.00E-05,  avg # of iterations = 19.9

     Threshold (ethr) on eigenvalues was too large:
     Diagonalizing with lowered threshold

     Davidson diagonalization with overlap

---- Real-time Memory Report at c_bands before calling an iterative solver
           318 MiB given to the printing process from OS
             0 MiB allocation reported by mallinfo(arena+hblkhd)
       1959870 MiB available memory on the node where the printing process lives
------------------
     c_bands:  1 eigenvalues not converged
     c_bands:  2 eigenvalues not converged
     c_bands:  1 eigenvalues not converged
     c_bands:  1 eigenvalues not converged
     ethr =  2.48E-08,  avg # of iterations = 16.0


     -----------------------------------------------
     Non-local corr. energy    =       9.10009014 Ry
     -----------------------------------------------


     total cpu time spent up to now is       65.7 secs

     End of self-consistent calculation

          k = 0.0000 0.0000 0.0000 ( 25781 PWs)   bands (ev):

    -6.6409  -6.3769  -6.2868  -6.2601  -6.2600  -6.2374  -6.1808  -6.1808
    -6.1209  -6.0968  -6.0968  -6.0713  -6.0713  -5.9948  -5.9888  -5.9887
    -5.9652  -5.9652  -5.8725  -5.8166  -5.3739  -5.3739  -5.2328  -5.2119
    -5.2119  -5.1968  -5.1289  -5.1289  -5.1010  -5.0871  -5.0870  -5.0521
    -5.0388  -5.0131  -5.0131  -4.9511  -4.9511  -4.8693  -4.8003  -4.8003
    -4.7518  -4.7513  -4.7512  -4.7078  -4.7078  -4.6696  -4.6696  -4.6606
    -4.6483  -4.6483  -4.6293  -4.6047  -4.6047  -4.5980  -4.5980  -4.5895
    -4.5418  -4.5418  -4.5401  -4.5401  -4.5050  -4.5026  -4.5021  -4.5021
    -4.4881  -4.4881  -4.4674  -4.4382  -4.4382  -4.4378  -4.4242  -4.4242
    -4.4183  -4.3990  -4.3881  -4.3881  -4.3834  -4.3834  -4.3484  -4.3483
    -4.3459  -4.3191  -4.3191  -4.2882  -4.2822  -4.2565  -4.2565  -4.2378
    -3.2391  -3.2391  -3.1431  -3.0838  -2.9593  -2.9592  -2.9375  -2.9375
    -2.7456  -2.5941  -2.5941  -2.5868   1.8857   2.3408   2.5021   2.8329
     2.8330   2.9330   2.9330   2.9632   3.1802   3.2255   3.2255   4.0891
     4.2115   4.2116   5.0548   5.1594   5.1594   5.7646   5.9867   6.4354
     6.4355   6.5370   6.9399   6.9400   6.9896   7.1558   7.1558   7.2254
     7.3208   7.3208   7.3581   7.4958   7.5415   7.5416   7.5846   7.5847
     8.0895   8.0895   8.1662   8.3855   8.3856   8.6531   8.6532   8.6865
     9.0343   9.0344  10.4900  10.8137  11.6319  11.6320  12.6500  13.0295
    13.1776  13.3927  13.3927  13.6481  13.6482  13.6711  13.7763  14.2013
    14.3644  14.3645  14.7126  14.7127  15.3359  15.3359  15.5405  16.1191
    16.4136  16.7381  16.7381  17.0012  17.0012  17.0821  17.3349  17.6757

     occupation numbers 
     1.0000   1.0000   1.0000   1.0000   1.0000   1.0000   1.0000   1.0000
     1.0000   1.0000   1.0000   1.0000   1.0000   1.0000   1.0000   1.0000
     1.0000   1.0000   1.0000   1.0000   1.0000   1.0000   1.0000   1.0000
     1.0000   1.0000   1.0000   1.0000   1.0000   1.0000   1.0000   1.0000
     1.0000   1.0000   1.0000   1.0000   1.0000   1.0000   1.0000   1.0000
     1.0000   1.0000   1.0000   1.0000   1.0000   1.0000   1.0000   1.0000
     1.0000   1.0000   1.0000   1.0000   1.0000   1.0000   1.0000   1.0000
     1.0000   1.0000   1.0000   1.0000   1.0000   1.0000   1.0000   1.0000
     1.0000   1.0000   1.0000   1.0000   1.0000   1.0000   1.0000   1.0000
     1.0000   1.0000   1.0000   1.0000   1.0000   1.0000   1.0000   1.0000
     1.0000   1.0000   1.0000   1.0000   1.0000   1.0000   1.0000   1.0000
     1.0000   1.0000   1.0000   1.0000   1.0000   1.0000   1.0000   1.0000
     1.0000   1.0000   1.0000   1.0000   1.0000   1.0000   1.0000   1.0000
     1.0000   1.0000   1.0000   1.0000   1.0000   1.0000   1.0000   1.0000
     1.0000   1.0000   1.0000   1.0000   1.0000   1.0000   1.0000   1.0000
     1.0000   1.0000   1.0000   1.0000   1.0000   1.0000   1.0000   1.0000
     1.0000   1.0000   1.0000   1.0000   1.0000   1.0000   1.0000   1.0000
     1.0000   1.0000   1.0000   1.0000   1.0000   1.0000   1.0000   1.0000
     1.0000   1.0000   0.0000   0.0000   0.0000   0.0000   0.0000   0.0000
     0.0000   0.0000   0.0000   0.0000   0.0000   0.0000   0.0000   0.0000
     0.0000   0.0000   0.0000   0.0000   0.0000   0.0000   0.0000   0.0000
     0.0000   0.0000   0.0000   0.0000   0.0000   0.0000   0.0000   0.0000

          k = 0.0000 0.0000-0.3068 ( 25758 PWs)   bands (ev):

    -6.5503  -6.5076  -6.2752  -6.2569  -6.2568  -6.2059  -6.1796  -6.1796
    -6.1368  -6.0906  -6.0906  -6.0858  -6.0857  -5.9906  -5.9853  -5.9853
    -5.9650  -5.9650  -5.8723  -5.8183  -5.3739  -5.3739  -5.2382  -5.2121
    -5.2121  -5.1816  -5.1285  -5.1285  -5.1167  -5.0872  -5.0871  -5.0520
    -5.0388  -5.0147  -5.0147  -4.9487  -4.9487  -4.8621  -4.8008  -4.8007
    -4.7515  -4.7515  -4.7464  -4.7073  -4.7073  -4.6685  -4.6685  -4.6616
    -4.6516  -4.6493  -4.6493  -4.6022  -4.6022  -4.5981  -4.5981  -4.5895
    -4.5465  -4.5416  -4.5416  -4.5388  -4.5388  -4.5089  -4.5089  -4.5048
    -4.5044  -4.4911  -4.4911  -4.4648  -4.4332  -4.4332  -4.4306  -4.4276
    -4.4276  -4.4204  -4.3865  -4.3865  -4.3825  -4.3825  -4.3563  -4.3474
    -4.3474  -4.3460  -4.3192  -4.3192  -4.2883  -4.2568  -4.2568  -3.6661
    -3.4740  -3.2266  -3.2266  -3.1215  -3.0644  -3.0644  -2.8049  -2.8048
    -2.7366  -2.6309  -2.6309  -2.5972   2.0257   2.2684   2.6801   2.6801
     2.6992   2.9933   2.9933   3.0063   3.3399   3.5931   3.5932   3.7180
     3.7181   3.7306   4.3410   5.8892   5.8893   6.0875   6.0894   6.0894
     6.4642   6.5922   6.5922   6.6967   6.8005   6.9516   6.9517   7.4052
     7.4052   7.4107   7.5239   7.6134   7.6135   7.8705   7.9170   7.9663
     7.9664   7.9703   7.9943   7.9943   8.3004   8.3005   8.7200   8.7201
     9.0116   9.0116  10.1369  11.6108  11.6109  11.7271  12.1958  12.6525
    13.1573  13.3516  13.3517  13.6068  13.6068  13.6520  14.0715  14.2347
    14.2348  14.2808  14.4412  14.4413  15.7200  16.0064  16.3811  16.3812
    16.5475  16.6768  16.6768  16.8178  16.8178  16.9660  17.5091  17.5094

     occupation numbers 
     1.0000   1.0000   1.0000   1.0000   1.0000   1.0000   1.0000   1.0000
     1.0000   1.0000   1.0000   1.0000   1.0000   1.0000   1.0000   1.0000
     1.0000   1.0000   1.0000   1.0000   1.0000   1.0000   1.0000   1.0000
     1.0000   1.0000   1.0000   1.0000   1.0000   1.0000   1.0000   1.0000
     1.0000   1.0000   1.0000   1.0000   1.0000   1.0000   1.0000   1.0000
     1.0000   1.0000   1.0000   1.0000   1.0000   1.0000   1.0000   1.0000
     1.0000   1.0000   1.0000   1.0000   1.0000   1.0000   1.0000   1.0000
     1.0000   1.0000   1.0000   1.0000   1.0000   1.0000   1.0000   1.0000
     1.0000   1.0000   1.0000   1.0000   1.0000   1.0000   1.0000   1.0000
     1.0000   1.0000   1.0000   1.0000   1.0000   1.0000   1.0000   1.0000
     1.0000   1.0000   1.0000   1.0000   1.0000   1.0000   1.0000   1.0000
     1.0000   1.0000   1.0000   1.0000   1.0000   1.0000   1.0000   1.0000
     1.0000   1.0000   1.0000   1.0000   1.0000   1.0000   1.0000   1.0000
     1.0000   1.0000   1.0000   1.0000   1.0000   1.0000   1.0000   1.0000
     1.0000   1.0000   1.0000   1.0000   1.0000   1.0000   1.0000   1.0000
     1.0000   1.0000   1.0000   1.0000   1.0000   1.0000   1.0000   1.0000
     1.0000   1.0000   1.0000   1.0000   1.0000   1.0000   1.0000   1.0000
     1.0000   1.0000   1.0000   1.0000   1.0000   1.0000   1.0000   1.0000
     1.0000   1.0000   0.0129   0.0000   0.0000   0.0000   0.0000   0.0000
     0.0000   0.0000   0.0000   0.0000   0.0000   0.0000   0.0000   0.0000
     0.0000   0.0000   0.0000   0.0000   0.0000   0.0000   0.0000   0.0000
     0.0000   0.0000   0.0000   0.0000   0.0000   0.0000   0.0000   0.0000

          k = 0.0000 0.2887 0.0000 ( 25764 PWs)   bands (ev):

    -6.5465  -6.3330  -6.2808  -6.2574  -6.2566  -6.2174  -6.1788  -6.1747
    -6.1121  -6.1032  -6.0969  -6.0785  -6.0655  -6.0112  -5.9878  -5.9856
    -5.9675  -5.9631  -5.8733  -5.8160  -5.3750  -5.3740  -5.2510  -5.2146
    -5.2058  -5.1718  -5.1351  -5.1289  -5.0972  -5.0891  -5.0809  -5.0546
    -5.0457  -5.0060  -4.9858  -4.9416  -4.9397  -4.8772  -4.8094  -4.7760
    -4.7429  -4.7420  -4.7379  -4.7012  -4.6986  -4.6729  -4.6642  -4.6577
    -4.6557  -4.6349  -4.6164  -4.6129  -4.6056  -4.6027  -4.5963  -4.5809
    -4.5452  -4.5444  -4.5430  -4.5337  -4.5194  -4.5170  -4.5080  -4.5028
    -4.4920  -4.4918  -4.4775  -4.4523  -4.4422  -4.4334  -4.4297  -4.4280
    -4.4231  -4.4040  -4.3946  -4.3927  -4.3850  -4.3801  -4.3627  -4.3607
    -4.3514  -4.3396  -4.3242  -4.3048  -4.2730  -4.2597  -4.1566  -4.1344
    -3.6794  -3.3688  -3.3129  -3.2154  -3.0839  -2.9789  -2.9785  -2.9478
    -2.8014  -2.6182  -2.4926  -2.4252   1.9219   2.3950   2.8313   3.0841
     3.1120   3.1767   3.2125   3.3465   3.4545   3.4827   3.7361   4.2746
     4.3890   4.6017   4.9563   5.1131   5.1305   5.6705   5.9670   6.0459
     6.1954   6.4554   6.5346   6.6042   6.6565   6.7932   6.9964   7.0903
     7.2016   7.3055   7.3339   7.3912   7.4864   7.5853   7.6184   7.6443
     7.6836   7.7592   7.8040   7.9472   8.0164   8.0647   8.2962   8.4377
     8.6895   8.8825  10.3737  10.8498  11.3692  11.7723  13.1323  13.5573
    13.7772  13.8660  13.9874  13.9910  14.1439  14.2692  14.2977  14.5607
    14.7550  15.1565  15.1750  15.2362  15.4119  15.4325  15.7993  16.1913
    16.4591  16.7900  16.9272  16.9397  17.0545  17.0893  17.1409  17.1892

     occupation numbers 
     1.0000   1.0000   1.0000   1.0000   1.0000   1.0000   1.0000   1.0000
     1.0000   1.0000   1.0000   1.0000   1.0000   1.0000   1.0000   1.0000
     1.0000   1.0000   1.0000   1.0000   1.0000   1.0000   1.0000   1.0000
     1.0000   1.0000   1.0000   1.0000   1.0000   1.0000   1.0000   1.0000
     1.0000   1.0000   1.0000   1.0000   1.0000   1.0000   1.0000   1.0000
     1.0000   1.0000   1.0000   1.0000   1.0000   1.0000   1.0000   1.0000
     1.0000   1.0000   1.0000   1.0000   1.0000   1.0000   1.0000   1.0000
     1.0000   1.0000   1.0000   1.0000   1.0000   1.0000   1.0000   1.0000
     1.0000   1.0000   1.0000   1.0000   1.0000   1.0000   1.0000   1.0000
     1.0000   1.0000   1.0000   1.0000   1.0000   1.0000   1.0000   1.0000
     1.0000   1.0000   1.0000   1.0000   1.0000   1.0000   1.0000   1.0000
     1.0000   1.0000   1.0000   1.0000   1.0000   1.0000   1.0000   1.0000
     1.0000   1.0000   1.0000   1.0000   1.0000   1.0000   1.0000   1.0000
     1.0000   1.0000   1.0000   1.0000   1.0000   1.0000   1.0000   1.0000
     1.0000   1.0000   1.0000   1.0000   1.0000   1.0000   1.0000   1.0000
     1.0000   1.0000   1.0000   1.0000   1.0000   1.0000   1.0000   1.0000
     1.0000   1.0000   1.0000   1.0000   1.0000   1.0000   1.0000   1.0000
     1.0000   1.0000   1.0000   1.0000   1.0000   1.0000   1.0000   1.0000
     1.0000   1.0000   0.0000   0.0000   0.0000   0.0000   0.0000   0.0000
     0.0000   0.0000   0.0000   0.0000   0.0000   0.0000   0.0000   0.0000
     0.0000   0.0000   0.0000   0.0000   0.0000   0.0000   0.0000   0.0000
     0.0000   0.0000   0.0000   0.0000   0.0000   0.0000   0.0000   0.0000

          k = 0.0000 0.2887-0.3068 ( 25732 PWs)   bands (ev):

    -6.4805  -6.4176  -6.2777  -6.2624  -6.2542  -6.1865  -6.1779  -6.1744
    -6.1245  -6.1009  -6.0890  -6.0878  -6.0833  -6.0090  -5.9835  -5.9834
    -5.9673  -5.9633  -5.8729  -5.8177  -5.3750  -5.3741  -5.2505  -5.2171
    -5.2058  -5.1652  -5.1353  -5.1286  -5.1107  -5.0892  -5.0771  -5.0546
    -5.0457  -5.0073  -4.9856  -4.9396  -4.9364  -4.8743  -4.8099  -4.7724
    -4.7513  -4.7421  -4.7375  -4.6986  -4.6878  -4.6749  -4.6648  -4.6624
    -4.6547  -4.6359  -4.6163  -4.6125  -4.5992  -4.5978  -4.5940  -4.5747
    -4.5548  -4.5449  -4.5445  -4.5321  -4.5276  -4.5166  -4.5112  -4.5087
    -4.4936  -4.4916  -4.4827  -4.4747  -4.4400  -4.4392  -4.4311  -4.4277
    -4.4256  -4.4180  -4.3978  -4.3922  -4.3911  -4.3854  -4.3626  -4.3595
    -4.3524  -4.3510  -4.3334  -4.3242  -4.3049  -4.2659  -4.2602  -3.6791
    -3.5809  -3.4891  -3.3419  -3.2806  -3.1417  -3.1383  -2.9660  -2.7540
    -2.7002  -2.6587  -2.5534  -2.5270   1.9513   2.5131   2.7710   2.9270
     3.0493   3.2222   3.2948   3.4881   3.5152   3.7960   3.8292   3.9578
     3.9975   4.2197   5.0193   5.5999   5.6646   5.7107   5.8068   5.8583
     6.1132   6.4235   6.4288   6.5024   6.6378   6.8322   7.0267   7.1022
     7.1536   7.2827   7.3076   7.3398   7.3759   7.4833   7.6147   7.6774
     7.7489   7.7691   7.9653   8.0105   8.0525   8.0998   8.4094   8.4437
     8.5467   8.8464  10.3543  10.8191  11.3272  12.2429  12.7214  13.2178
    13.5247  13.7222  13.9569  13.9785  14.1501  14.2708  14.4564  14.6455
    15.0198  15.0988  15.1600  15.3358  15.6846  16.0807  16.2443  16.2615
    16.5025  16.5058  16.7279  16.9100  16.9755  16.9978  17.1471  17.3968

     occupation numbers 
     1.0000   1.0000   1.0000   1.0000   1.0000   1.0000   1.0000   1.0000
     1.0000   1.0000   1.0000   1.0000   1.0000   1.0000   1.0000   1.0000
     1.0000   1.0000   1.0000   1.0000   1.0000   1.0000   1.0000   1.0000
     1.0000   1.0000   1.0000   1.0000   1.0000   1.0000   1.0000   1.0000
     1.0000   1.0000   1.0000   1.0000   1.0000   1.0000   1.0000   1.0000
     1.0000   1.0000   1.0000   1.0000   1.0000   1.0000   1.0000   1.0000
     1.0000   1.0000   1.0000   1.0000   1.0000   1.0000   1.0000   1.0000
     1.0000   1.0000   1.0000   1.0000   1.0000   1.0000   1.0000   1.0000
     1.0000   1.0000   1.0000   1.0000   1.0000   1.0000   1.0000   1.0000
     1.0000   1.0000   1.0000   1.0000   1.0000   1.0000   1.0000   1.0000
     1.0000   1.0000   1.0000   1.0000   1.0000   1.0000   1.0000   1.0000
     1.0000   1.0000   1.0000   1.0000   1.0000   1.0000   1.0000   1.0000
     1.0000   1.0000   1.0000   1.0000   1.0000   1.0000   1.0000   1.0000
     1.0000   1.0000   1.0000   1.0000   1.0000   1.0000   1.0000   1.0000
     1.0000   1.0000   1.0000   1.0000   1.0000   1.0000   1.0000   1.0000
     1.0000   1.0000   1.0000   1.0000   1.0000   1.0000   1.0000   1.0000
     1.0000   1.0000   1.0000   1.0000   1.0000   1.0000   1.0000   1.0000
     1.0000   1.0000   1.0000   1.0000   1.0000   1.0000   1.0000   1.0000
     1.0000   1.0000   0.0000   0.0000   0.0000   0.0000   0.0000   0.0000
     0.0000   0.0000   0.0000   0.0000   0.0000   0.0000   0.0000   0.0000
     0.0000   0.0000   0.0000   0.0000   0.0000   0.0000   0.0000   0.0000
     0.0000   0.0000   0.0000   0.0000   0.0000   0.0000   0.0000   0.0000

          k = 0.0000-0.5774 0.0000 ( 25772 PWs)   bands (ev):

    -6.4068  -6.3359  -6.2760  -6.2548  -6.2107  -6.1907  -6.1825  -6.1767
    -6.1415  -6.0965  -6.0913  -6.0726  -6.0603  -6.0505  -5.9868  -5.9761
    -5.9715  -5.9611  -5.8745  -5.8157  -5.3759  -5.3742  -5.2661  -5.2101
    -5.1985  -5.1604  -5.1420  -5.1313  -5.0914  -5.0897  -5.0762  -5.0598
    -5.0499  -4.9986  -4.9588  -4.9308  -4.9191  -4.8881  -4.8196  -4.7434
    -4.7345  -4.7313  -4.7159  -4.6843  -4.6817  -4.6680  -4.6668  -4.6615
    -4.6368  -4.6365  -4.6190  -4.6187  -4.6058  -4.5935  -4.5920  -4.5754
    -4.5504  -4.5492  -4.5460  -4.5431  -4.5305  -4.5193  -4.5176  -4.5007
    -4.4910  -4.4827  -4.4733  -4.4535  -4.4526  -4.4393  -4.4320  -4.4173
    -4.4162  -4.4072  -4.3996  -4.3877  -4.3868  -4.3796  -4.3757  -4.3597
    -4.3520  -4.3289  -4.3277  -4.3237  -4.2835  -4.2623  -4.2585  -3.8467
    -3.7986  -3.7670  -3.6746  -3.3728  -3.1627  -2.9935  -2.9539  -2.8531
    -2.7946  -2.6956  -2.4136  -2.4049   1.8047   2.7435   3.1438   3.4328
     3.4706   3.5002   3.5555   3.6271   3.7633   4.0135   4.4551   4.4700
     4.6199   4.6717   5.1387   5.3219   5.3277   5.3939   5.4211   5.5470
     5.8419   6.0053   6.0273   6.0637   6.1280   6.6644   6.9210   6.9912
     7.0088   7.0639   7.1669   7.1888   7.2688   7.3798   7.4357   7.4772
     7.5632   7.6662   7.7121   7.7886   7.9532   8.0136   8.1737   8.3964
     8.5273   8.6532   9.3860  10.8613  11.1756  12.7688  13.1486  13.7467
    14.1786  14.4049  14.4800  14.6237  14.6798  14.8618  14.9702  15.0717
    15.1248  15.2495  15.4301  15.6563  15.9054  16.1732  16.3328  16.5553
    16.6281  16.6411  16.7193  16.8362  16.8882  16.9494  17.0603  17.0702

     occupation numbers 
     1.0000   1.0000   1.0000   1.0000   1.0000   1.0000   1.0000   1.0000
     1.0000   1.0000   1.0000   1.0000   1.0000   1.0000   1.0000   1.0000
     1.0000   1.0000   1.0000   1.0000   1.0000   1.0000   1.0000   1.0000
     1.0000   1.0000   1.0000   1.0000   1.0000   1.0000   1.0000   1.0000
     1.0000   1.0000   1.0000   1.0000   1.0000   1.0000   1.0000   1.0000
     1.0000   1.0000   1.0000   1.0000   1.0000   1.0000   1.0000   1.0000
     1.0000   1.0000   1.0000   1.0000   1.0000   1.0000   1.0000   1.0000
     1.0000   1.0000   1.0000   1.0000   1.0000   1.0000   1.0000   1.0000
     1.0000   1.0000   1.0000   1.0000   1.0000   1.0000   1.0000   1.0000
     1.0000   1.0000   1.0000   1.0000   1.0000   1.0000   1.0000   1.0000
     1.0000   1.0000   1.0000   1.0000   1.0000   1.0000   1.0000   1.0000
     1.0000   1.0000   1.0000   1.0000   1.0000   1.0000   1.0000   1.0000
     1.0000   1.0000   1.0000   1.0000   1.0000   1.0000   1.0000   1.0000
     1.0000   1.0000   1.0000   1.0000   1.0000   1.0000   1.0000   1.0000
     1.0000   1.0000   1.0000   1.0000   1.0000   1.0000   1.0000   1.0000
     1.0000   1.0000   1.0000   1.0000   1.0000   1.0000   1.0000   1.0000
     1.0000   1.0000   1.0000   1.0000   1.0000   1.0000   1.0000   1.0000
     1.0000   1.0000   1.0000   1.0000   1.0000   1.0000   1.0000   1.0000
     1.0000   1.0000   1.0000   0.0000   0.0000   0.0000   0.0000   0.0000
     0.0000   0.0000   0.0000   0.0000   0.0000   0.0000   0.0000   0.0000
     0.0000   0.0000   0.0000   0.0000   0.0000   0.0000   0.0000   0.0000
     0.0000   0.0000   0.0000   0.0000   0.0000   0.0000   0.0000   0.0000

          k = 0.0000-0.5774-0.3068 ( 25740 PWs)   bands (ev):

    -6.3829  -6.3254  -6.2714  -6.2517  -6.2495  -6.2000  -6.1759  -6.1700
    -6.1274  -6.1053  -6.0853  -6.0806  -6.0732  -6.0561  -5.9816  -5.9766
    -5.9716  -5.9614  -5.8742  -5.8173  -5.3760  -5.3744  -5.2651  -5.2108
    -5.1984  -5.1626  -5.1432  -5.1312  -5.0951  -5.0897  -5.0756  -5.0598
    -5.0499  -4.9997  -4.9564  -4.9291  -4.9129  -4.8910  -4.8202  -4.7432
    -4.7355  -4.7345  -4.7170  -4.6854  -4.6765  -4.6698  -4.6680  -4.6553
    -4.6409  -4.6364  -4.6247  -4.6196  -4.6033  -4.5914  -4.5827  -4.5682
    -4.5627  -4.5544  -4.5464  -4.5358  -4.5307  -4.5195  -4.5173  -4.4994
    -4.4832  -4.4768  -4.4726  -4.4603  -4.4533  -4.4403  -4.4255  -4.4157
    -4.4142  -4.4091  -4.3999  -4.3916  -4.3906  -4.3785  -4.3756  -4.3556
    -4.3520  -4.3295  -4.3232  -4.3000  -4.2631  -4.2519  -4.2226  -4.1655
    -4.0438  -3.3394  -3.3240  -3.2290  -3.1985  -3.1752  -3.0197  -2.9771
    -2.7150  -2.6936  -2.4949  -2.4910   1.7613   2.8837   3.2209   3.2938
     3.4017   3.5473   3.6656   3.7452   3.8381   3.9576   4.1609   4.2389
     4.4229   5.1291   5.3024   5.4275   5.4383   5.4498   5.5804   5.7345
     5.8078   5.9938   6.1118   6.1351   6.2433   6.3462   6.3742   6.6596
     6.7404   6.7807   6.8566   7.2129   7.2377   7.3426   7.4792   7.6550
     7.7355   7.7897   7.8686   7.9717   8.1109   8.2071   8.2711   8.3624
     8.4323   8.4896   9.5558  10.9475  11.1244  12.7462  13.1540  13.4454
    13.7367  14.3235  14.5396  14.8596  14.9015  14.9840  15.0589  15.1699
    15.3656  15.4462  15.5242  15.5645  15.9295  16.2203  16.3563  16.4975
    16.6228  16.6906  16.8268  16.8303  16.8443  17.0139  17.0246  17.1299

     occupation numbers 
     1.0000   1.0000   1.0000   1.0000   1.0000   1.0000   1.0000   1.0000
     1.0000   1.0000   1.0000   1.0000   1.0000   1.0000   1.0000   1.0000
     1.0000   1.0000   1.0000   1.0000   1.0000   1.0000   1.0000   1.0000
     1.0000   1.0000   1.0000   1.0000   1.0000   1.0000   1.0000   1.0000
     1.0000   1.0000   1.0000   1.0000   1.0000   1.0000   1.0000   1.0000
     1.0000   1.0000   1.0000   1.0000   1.0000   1.0000   1.0000   1.0000
     1.0000   1.0000   1.0000   1.0000   1.0000   1.0000   1.0000   1.0000
     1.0000   1.0000   1.0000   1.0000   1.0000   1.0000   1.0000   1.0000
     1.0000   1.0000   1.0000   1.0000   1.0000   1.0000   1.0000   1.0000
     1.0000   1.0000   1.0000   1.0000   1.0000   1.0000   1.0000   1.0000
     1.0000   1.0000   1.0000   1.0000   1.0000   1.0000   1.0000   1.0000
     1.0000   1.0000   1.0000   1.0000   1.0000   1.0000   1.0000   1.0000
     1.0000   1.0000   1.0000   1.0000   1.0000   1.0000   1.0000   1.0000
     1.0000   1.0000   1.0000   1.0000   1.0000   1.0000   1.0000   1.0000
     1.0000   1.0000   1.0000   1.0000   1.0000   1.0000   1.0000   1.0000
     1.0000   1.0000   1.0000   1.0000   1.0000   1.0000   1.0000   1.0000
     1.0000   1.0000   1.0000   1.0000   1.0000   1.0000   1.0000   1.0000
     1.0000   1.0000   1.0000   1.0000   1.0000   1.0000   1.0000   1.0000
     1.0000   1.0000   0.9999   0.0000   0.0000   0.0000   0.0000   0.0000
     0.0000   0.0000   0.0000   0.0000   0.0000   0.0000   0.0000   0.0000
     0.0000   0.0000   0.0000   0.0000   0.0000   0.0000   0.0000   0.0000
     0.0000   0.0000   0.0000   0.0000   0.0000   0.0000   0.0000   0.0000

          k = 0.2500 0.4330 0.0000 ( 25702 PWs)   bands (ev):

    -6.4215  -6.3168  -6.2794  -6.2603  -6.2203  -6.1915  -6.1813  -6.1579
    -6.1289  -6.1114  -6.0897  -6.0751  -6.0639  -6.0331  -6.0134  -5.9715
    -5.9664  -5.9590  -5.8746  -5.8156  -5.3758  -5.3742  -5.2625  -5.2100
    -5.2022  -5.1609  -5.1418  -5.1324  -5.0934  -5.0870  -5.0774  -5.0587
    -5.0500  -4.9983  -4.9596  -4.9323  -4.9188  -4.8857  -4.8255  -4.7433
    -4.7372  -4.7286  -4.7063  -4.6985  -4.6807  -4.6729  -4.6667  -4.6571
    -4.6391  -4.6319  -4.6310  -4.6189  -4.6013  -4.5950  -4.5869  -4.5763
    -4.5529  -4.5506  -4.5469  -4.5348  -4.5269  -4.5200  -4.5183  -4.5050
    -4.4894  -4.4865  -4.4733  -4.4552  -4.4502  -4.4392  -4.4269  -4.4253
    -4.4149  -4.4058  -4.3993  -4.3928  -4.3883  -4.3796  -4.3729  -4.3637
    -4.3604  -4.3484  -4.3287  -4.3259  -4.2789  -4.2644  -4.0529  -3.9604
    -3.9039  -3.7538  -3.4639  -3.4372  -3.3319  -3.2484  -2.8305  -2.7417
    -2.6417  -2.6114  -2.5187  -2.4336   1.8381   2.7141   3.1047   3.2139
     3.4171   3.5209   3.6596   3.8897   3.9686   4.0486   4.1592   4.2826
     4.6039   4.6607   5.0282   5.1278   5.1523   5.3498   5.4912   5.7083
     5.9618   6.0675   6.2211   6.3878   6.6063   6.7153   6.8358   6.8820
     6.9567   7.0248   7.1329   7.1974   7.2477   7.3733   7.4104   7.4473
     7.5695   7.6116   7.7417   7.8390   7.9173   7.9406   8.0175   8.1346
     8.4834   8.5470   9.7576  10.7597  10.9104  12.7001  13.4521  13.9955
    14.3130  14.4167  14.4490  14.5664  14.6644  14.7531  14.9504  15.0181
    15.2131  15.4264  15.6114  15.6912  15.8821  16.0845  16.2681  16.4454
    16.5269  16.6048  16.7389  16.7634  16.8346  16.9415  17.0679  17.0986

     occupation numbers 
     1.0000   1.0000   1.0000   1.0000   1.0000   1.0000   1.0000   1.0000
     1.0000   1.0000   1.0000   1.0000   1.0000   1.0000   1.0000   1.0000
     1.0000   1.0000   1.0000   1.0000   1.0000   1.0000   1.0000   1.0000
     1.0000   1.0000   1.0000   1.0000   1.0000   1.0000   1.0000   1.0000
     1.0000   1.0000   1.0000   1.0000   1.0000   1.0000   1.0000   1.0000
     1.0000   1.0000   1.0000   1.0000   1.0000   1.0000   1.0000   1.0000
     1.0000   1.0000   1.0000   1.0000   1.0000   1.0000   1.0000   1.0000
     1.0000   1.0000   1.0000   1.0000   1.0000   1.0000   1.0000   1.0000
     1.0000   1.0000   1.0000   1.0000   1.0000   1.0000   1.0000   1.0000
     1.0000   1.0000   1.0000   1.0000   1.0000   1.0000   1.0000   1.0000
     1.0000   1.0000   1.0000   1.0000   1.0000   1.0000   1.0000   1.0000
     1.0000   1.0000   1.0000   1.0000   1.0000   1.0000   1.0000   1.0000
     1.0000   1.0000   1.0000   1.0000   1.0000   1.0000   1.0000   1.0000
     1.0000   1.0000   1.0000   1.0000   1.0000   1.0000   1.0000   1.0000
     1.0000   1.0000   1.0000   1.0000   1.0000   1.0000   1.0000   1.0000
     1.0000   1.0000   1.0000   1.0000   1.0000   1.0000   1.0000   1.0000
     1.0000   1.0000   1.0000   1.0000   1.0000   1.0000   1.0000   1.0000
     1.0000   1.0000   1.0000   1.0000   1.0000   1.0000   1.0000   1.0000
     1.0000   1.0000   0.9568   0.0000   0.0000   0.0000   0.0000   0.0000
     0.0000   0.0000   0.0000   0.0000   0.0000   0.0000   0.0000   0.0000
     0.0000   0.0000   0.0000   0.0000   0.0000   0.0000   0.0000   0.0000
     0.0000   0.0000   0.0000   0.0000   0.0000   0.0000   0.0000   0.0000

          k = 0.2500 0.4330-0.3068 ( 25730 PWs)   bands (ev):

    -6.3913  -6.3074  -6.2988  -6.2608  -6.2401  -6.1842  -6.1784  -6.1554
    -6.1180  -6.1130  -6.0999  -6.0853  -6.0715  -6.0245  -6.0215  -5.9715
    -5.9643  -5.9594  -5.8743  -5.8172  -5.3760  -5.3744  -5.2614  -5.2108
    -5.2021  -5.1622  -5.1441  -5.1324  -5.0960  -5.0872  -5.0777  -5.0586
    -5.0498  -4.9993  -4.9573  -4.9308  -4.9133  -4.8880  -4.8254  -4.7405
    -4.7381  -4.7311  -4.7168  -4.6950  -4.6729  -4.6719  -4.6626  -4.6574
    -4.6406  -4.6378  -4.6312  -4.6217  -4.5983  -4.5912  -4.5801  -4.5680
    -4.5590  -4.5569  -4.5481  -4.5373  -4.5298  -4.5248  -4.5113  -4.4951
    -4.4913  -4.4810  -4.4726  -4.4545  -4.4528  -4.4409  -4.4252  -4.4211
    -4.4108  -4.4043  -4.4012  -4.3951  -4.3886  -4.3813  -4.3763  -4.3620
    -4.3524  -4.3317  -4.3311  -4.3065  -4.2853  -4.2656  -4.2483  -3.9054
    -3.8901  -3.7479  -3.6322  -3.2519  -3.1157  -2.9764  -2.8841  -2.8247
    -2.7555  -2.6616  -2.6066  -2.5064   1.7810   2.9034   3.1128   3.2911
     3.4867   3.6080   3.6344   3.6918   3.7197   3.9293   4.1295   4.5407
     4.6762   4.7395   4.8080   5.0591   5.4608   5.5981   5.6862   5.8272
     5.9381   6.1617   6.2924   6.3635   6.4188   6.4953   6.5248   6.6142
     6.7298   6.7866   6.8951   7.1338   7.2500   7.3320   7.4131   7.5557
     7.5762   7.7497   7.8255   7.9877   8.0769   8.1214   8.1927   8.2867
     8.3708   8.4079   9.8700  10.7149  10.9862  12.8241  13.2268  13.7455
    13.9652  14.0912  14.3639  14.5867  14.9342  15.0827  15.1394  15.3882
    15.4857  15.6770  15.7258  15.9213  16.0291  16.0798  16.1525  16.1923
    16.3486  16.4534  16.5536  16.6996  16.8424  16.9931  17.0704  17.1251

     occupation numbers 
     1.0000   1.0000   1.0000   1.0000   1.0000   1.0000   1.0000   1.0000
     1.0000   1.0000   1.0000   1.0000   1.0000   1.0000   1.0000   1.0000
     1.0000   1.0000   1.0000   1.0000   1.0000   1.0000   1.0000   1.0000
     1.0000   1.0000   1.0000   1.0000   1.0000   1.0000   1.0000   1.0000
     1.0000   1.0000   1.0000   1.0000   1.0000   1.0000   1.0000   1.0000
     1.0000   1.0000   1.0000   1.0000   1.0000   1.0000   1.0000   1.0000
     1.0000   1.0000   1.0000   1.0000   1.0000   1.0000   1.0000   1.0000
     1.0000   1.0000   1.0000   1.0000   1.0000   1.0000   1.0000   1.0000
     1.0000   1.0000   1.0000   1.0000   1.0000   1.0000   1.0000   1.0000
     1.0000   1.0000   1.0000   1.0000   1.0000   1.0000   1.0000   1.0000
     1.0000   1.0000   1.0000   1.0000   1.0000   1.0000   1.0000   1.0000
     1.0000   1.0000   1.0000   1.0000   1.0000   1.0000   1.0000   1.0000
     1.0000   1.0000   1.0000   1.0000   1.0000   1.0000   1.0000   1.0000
     1.0000   1.0000   1.0000   1.0000   1.0000   1.0000   1.0000   1.0000
     1.0000   1.0000   1.0000   1.0000   1.0000   1.0000   1.0000   1.0000
     1.0000   1.0000   1.0000   1.0000   1.0000   1.0000   1.0000   1.0000
     1.0000   1.0000   1.0000   1.0000   1.0000   1.0000   1.0000   1.0000
     1.0000   1.0000   1.0000   1.0000   1.0000   1.0000   1.0000   1.0000
     1.0000   1.0000   0.7078   0.0000   0.0000   0.0000   0.0000   0.0000
     0.0000   0.0000   0.0000   0.0000   0.0000   0.0000   0.0000   0.0000
     0.0000   0.0000   0.0000   0.0000   0.0000   0.0000   0.0000   0.0000
     0.0000   0.0000   0.0000   0.0000   0.0000   0.0000   0.0000   0.0000

     the Fermi energy is     9.9226 ev

!    total energy              =   -5252.89686866 Ry
     total all-electron energy =    -67845.178080 Ry
     estimated scf accuracy    <       0.00000002 Ry
     smearing contrib. (-TS)   =      -0.00116942 Ry
     internal energy E=F+TS    =   -5252.89569925 Ry

     The total energy is F=E-TS. E is the sum of the following terms:
     one-electron contribution =   -1581.09099711 Ry
     hartree contribution      =    1104.77707619 Ry
     xc contribution           =    -759.15954485 Ry
     ewald contribution        =   -1922.70899029 Ry
     one-center paw contrib.   =   -2094.71324319 Ry
      -> PAW hartree energy AE =     288.84432273 Ry
      -> PAW hartree energy PS =    -286.10344136 Ry
      -> PAW xc energy AE      =    -313.84849132 Ry
      -> PAW xc energy PS      =      79.44423403 Ry
      -> total E_H with PAW    =    1107.51795756 Ry
      -> total E_XC with PAW   =    -993.56380213 Ry

     convergence has been achieved in   1 iterations


     -----------------------------------------------
     Non-local corr. energy    =       9.10009014 Ry
     -----------------------------------------------


     Forces acting on atoms (cartesian axes, Ry/au):

     atom    1 type  1   force =     0.00000000    0.00000000   -0.00002291
     atom    2 type  1   force =     0.00000000    0.00000000   -0.00018784
     atom    3 type  1   force =     0.00003690    0.00002130    0.00010594
     atom    4 type  1   force =    -0.00008323   -0.00004805   -0.00004988
     atom    5 type  1   force =     0.00000000   -0.00004261    0.00010594
     atom    6 type  1   force =     0.00000000    0.00009610   -0.00004988
     atom    7 type  1   force =    -0.00003690    0.00002130    0.00010594
     atom    8 type  1   force =     0.00008323   -0.00004805   -0.00004988
     atom    9 type  1   force =     0.00023193   -0.00013391    0.00004247
     atom   10 type  1   force =    -0.00002396    0.00001383   -0.00004336
     atom   11 type  1   force =     0.00000000    0.00026781    0.00004247
     atom   12 type  1   force =     0.00000000   -0.00002767   -0.00004336
     atom   13 type  1   force =    -0.00023193   -0.00013391    0.00004247
     atom   14 type  1   force =     0.00002396    0.00001383   -0.00004336
     atom   15 type  1   force =     0.00000000    0.00000000    0.00034493
     atom   16 type  1   force =     0.00000000    0.00000000   -0.00016743
     atom   17 type  2   force =     0.00000000    0.00000000   -0.00072985
     atom   18 type  2   force =     0.00007839    0.00004526    0.00024078
     atom   19 type  2   force =    -0.00005020   -0.00002898   -0.00013919
     atom   20 type  2   force =     0.00000000   -0.00009052    0.00024078
     atom   21 type  2   force =     0.00000000    0.00005796   -0.00013919
     atom   22 type  2   force =    -0.00007839    0.00004526    0.00024078
     atom   23 type  2   force =     0.00005020   -0.00002898   -0.00013919
     atom   24 type  2   force =     0.00011292   -0.00006519   -0.00005010
     atom   25 type  2   force =    -0.00000766    0.00000443    0.00006989
     atom   26 type  2   force =     0.00000000    0.00013038   -0.00005010
     atom   27 type  2   force =    -0.00000000   -0.00000885    0.00006989
     atom   28 type  2   force =    -0.00011292   -0.00006519   -0.00005010
     atom   29 type  2   force =     0.00000766    0.00000443    0.00006989
     atom   30 type  2   force =     0.00000000    0.00000000   -0.00015844
     atom   31 type  2   force =     0.00000000    0.00000000    0.00023849
     atom   32 type  1   force =     0.00000000    0.00000000    0.00015343
     The non-local contrib.  to forces
     atom    1 type  1   force =     0.00000000    0.00000000   -0.27744959
     atom    2 type  1   force =     0.00000000    0.00000000    0.21593059
     atom    3 type  1   force =    -0.07323213   -0.04228059    0.09445008
     atom    4 type  1   force =    -0.05878990   -0.03394237   -0.06206372
     atom    5 type  1   force =     0.00000000    0.08456118    0.09445008
     atom    6 type  1   force =     0.00000000    0.06788473   -0.06206372
     atom    7 type  1   force =     0.07323213   -0.04228059    0.09445008
     atom    8 type  1   force =     0.05878990   -0.03394237   -0.06206372
     atom    9 type  1   force =     0.04565765   -0.02636045   -0.05136817
     atom   10 type  1   force =     0.11562819   -0.06675796    0.12358634
     atom   11 type  1   force =     0.00000000    0.05272091   -0.05136817
     atom   12 type  1   force =     0.00000000    0.13351593    0.12358634
     atom   13 type  1   force =    -0.04565765   -0.02636045   -0.05136817
     atom   14 type  1   force =    -0.11562819   -0.06675796    0.12358634
     atom   15 type  1   force =     0.00000000    0.00000000   -0.14359334
     atom   16 type  1   force =     0.00000000    0.00000000   -0.00652605
     atom   17 type  2   force =     0.00000000    0.00000000    0.16023599
     atom   18 type  2   force =    -0.12714729   -0.07340852    0.18297144
     atom   19 type  2   force =    -0.13323332   -0.07692229    0.01203623
     atom   20 type  2   force =     0.00000000    0.14681704    0.18297144
     atom   21 type  2   force =     0.00000000    0.15384458    0.01203623
     atom   22 type  2   force =     0.12714729   -0.07340852    0.18297144
     atom   23 type  2   force =     0.13323332   -0.07692229    0.01203623
     atom   24 type  2   force =     0.16786283   -0.09691565   -0.08208411
     atom   25 type  2   force =     0.01499641   -0.00865818   -0.17395380
     atom   26 type  2   force =    -0.00000000    0.19383131   -0.08208411
     atom   27 type  2   force =     0.00000000    0.01731636   -0.17395380
     atom   28 type  2   force =    -0.16786283   -0.09691565   -0.08208411
     atom   29 type  2   force =    -0.01499641   -0.00865818   -0.17395380
     atom   30 type  2   force =     0.00000000    0.00000000    0.02285807
     atom   31 type  2   force =     0.00000000    0.00000000    0.01527251
     atom   32 type  1   force =     0.00000000    0.00000000   -0.52684977
     The ionic contribution  to forces
     atom    1 type  1   force =    -0.00005500    0.00003405    4.73533018
     atom    2 type  1   force =    -0.00004021    0.00002464   -2.58883426
     atom    3 type  1   force =    -0.24363173   -0.14063258    3.07074941
     atom    4 type  1   force =     0.53158446    0.30694404   -1.56631008
     atom    5 type  1   force =    -0.00002251    0.28131061    3.07074924
     atom    6 type  1   force =    -0.00002694   -0.61383468   -1.56631025
     atom    7 type  1   force =     0.24356179   -0.14061815    3.07074803
     atom    8 type  1   force =    -0.53165506    0.30695377   -1.56631127
     atom    9 type  1   force =     3.95854273   -2.28546896   -1.07452318
     atom   10 type  1   force =    -1.30588257    0.75394845   -0.88245150
     atom   11 type  1   force =     0.00003895    4.57089682   -1.07451183
     atom   12 type  1   force =     0.00003731   -1.50797766   -0.88248562
     atom   13 type  1   force =    -3.95849301   -2.28548522   -1.07451213
     atom   14 type  1   force =     1.30596422    0.75395256   -0.88248383
     atom   15 type  1   force =     0.00003408   -0.00002078   -1.70001663
     atom   16 type  1   force =     0.00003625   -0.00002213    0.97263065
     atom   17 type  2   force =    -0.00003380    0.00002107   -3.07185058
     atom   18 type  2   force =     1.24451173    0.71853994   -1.62825517
     atom   19 type  2   force =     1.09807989    0.63401121   -0.12887528
     atom   20 type  2   force =    -0.00001680   -1.43704568   -1.62825435
     atom   21 type  2   force =    -0.00002806   -1.26796770   -0.12887507
     atom   22 type  2   force =    -1.24457418    0.71855671   -1.62826604
     atom   23 type  2   force =    -1.09814628    0.63401724   -0.12887496
     atom   24 type  2   force =    -1.45818919    0.84188379    2.42691747
     atom   25 type  2   force =     0.97333314   -0.56195653   -0.02409136
     atom   26 type  2   force =     0.00002784   -1.68383792    2.42694782
     atom   27 type  2   force =     0.00003179    1.12385670   -0.02409234
     atom   28 type  2   force =     1.45825858    0.84189179    2.42694623
     atom   29 type  2   force =    -0.97327364   -0.56195882   -0.02409251
     atom   30 type  2   force =     0.00003308   -0.00002060    0.91125395
     atom   31 type  2   force =     0.00002953   -0.00001834   -1.02267476
     atom   32 type  1   force =    -0.00003640    0.00002236    1.18468001
     The local contribution  to forces
     atom    1 type  1   force =    -0.00007716    0.00018860   -4.46920372
     atom    2 type  1   force =    -0.00007713    0.00024438    2.37666854
     atom    3 type  1   force =     0.31535926    0.18226515   -3.16440006
     atom    4 type  1   force =    -0.47403458   -0.27338487    1.62779436
     atom    5 type  1   force =    -0.00010015   -0.36394443   -3.16440031
     atom    6 type  1   force =    -0.00007031    0.54751624    1.62779389
     atom    7 type  1   force =    -0.31548097    0.18237191   -3.16439987
     atom    8 type  1   force =     0.47387901   -0.27338647    1.62779418
     atom    9 type  1   force =    -4.00665654    2.31333272    1.12807548
     atom   10 type  1   force =     1.19359732   -0.68900554    0.75980186
     atom   11 type  1   force =     0.00111819   -4.62833142    1.12807266
     atom   12 type  1   force =     0.00109321    1.37648601    0.75983054
     atom   13 type  1   force =     4.00885859    2.31341261    1.12807296
     atom   14 type  1   force =    -1.19142299   -0.68899359    0.75983716
     atom   15 type  1   force =     0.00109578   -0.00050151    1.84178614
     atom   16 type  1   force =     0.00109248   -0.00049803   -0.96679633
     atom   17 type  2   force =    -0.00001264    0.00002242    2.91336335
     atom   18 type  2   force =    -1.11940755   -0.64623586    1.44854531
     atom   19 type  2   force =    -0.96702244   -0.55828065    0.11690505
     atom   20 type  2   force =    -0.00000173    1.29257682    1.44854357
     atom   21 type  2   force =    -0.00001013    1.11662989    0.11690202
     atom   22 type  2   force =     1.11938400   -0.64626301    1.44854670
     atom   23 type  2   force =     0.96699960   -0.55828110    0.11690801
     atom   24 type  2   force =     1.29324456   -0.74664535   -2.34619185
     atom   25 type  2   force =    -0.98797329    0.57041704    0.19535974
     atom   26 type  2   force =     0.00008091    1.49317662   -2.34619916
     atom   27 type  2   force =     0.00008328   -1.14094946    0.19536817
     atom   28 type  2   force =    -1.29308663   -0.74663830   -2.34621552
     atom   29 type  2   force =     0.98814390    0.57041781    0.19536998
     atom   30 type  2   force =     0.00008062   -0.00003671   -0.93390402
     atom   31 type  2   force =     0.00008613   -0.00003788    1.00793034
     atom   32 type  1   force =    -0.00007269    0.00018871   -0.67255538
     The core correction contribution to forces
     atom    1 type  1   force =    -0.00000592    0.00001277    0.01122591
     atom    2 type  1   force =    -0.00000630    0.00001823   -0.00391444
     atom    3 type  1   force =     0.00147471    0.00086307   -0.00068258
     atom    4 type  1   force =     0.00102211    0.00061256    0.00056143
     atom    5 type  1   force =    -0.00000885   -0.00168730   -0.00068252
     atom    6 type  1   force =    -0.00000564   -0.00116987    0.00056142
     atom    7 type  1   force =    -0.00148378    0.00087420   -0.00068257
     atom    8 type  1   force =    -0.00103479    0.00061226    0.00056141
     atom    9 type  1   force =     0.00388968   -0.00224031   -0.00203607
     atom   10 type  1   force =    -0.00214534    0.00124693   -0.00099492
     atom   11 type  1   force =     0.00008335    0.00435640   -0.00203651
     atom   12 type  1   force =     0.00008099   -0.00260857   -0.00099463
     atom   13 type  1   force =    -0.00373014   -0.00223421   -0.00203639
     atom   14 type  1   force =     0.00230639    0.00124831   -0.00099455
     atom   15 type  1   force =     0.00007991   -0.00003709    0.00229893
     atom   16 type  1   force =     0.00008046   -0.00003704    0.00047583
     atom   17 type  2   force =     0.00000015   -0.00000033   -0.00247343
     atom   18 type  2   force =     0.00207759    0.00119893   -0.00296289
     atom   19 type  2   force =     0.00208974    0.00120605   -0.00019146
     atom   20 type  2   force =     0.00000018   -0.00239901   -0.00296287
     atom   21 type  2   force =     0.00000025   -0.00241304   -0.00019146
     atom   22 type  2   force =    -0.00207713    0.00119912   -0.00296292
     atom   23 type  2   force =    -0.00208927    0.00120606   -0.00019139
     atom   24 type  2   force =    -0.00268748    0.00155143    0.00131339
     atom   25 type  2   force =    -0.00025020    0.00014442    0.00279302
     atom   26 type  2   force =    -0.00000261   -0.00309964    0.00131375
     atom   27 type  2   force =    -0.00000245   -0.00028490    0.00279297
     atom   28 type  2   force =     0.00268287    0.00155219    0.00131350
     atom   29 type  2   force =     0.00024546    0.00014451    0.00279296
     atom   30 type  2   force =    -0.00000237    0.00000147   -0.00035992
     atom   31 type  2   force =    -0.00000234    0.00000131   -0.00024065
     atom   32 type  1   force =    -0.00000570    0.00001307    0.01493831
     The Hubbard contrib.    to forces
     atom    1 type  1   force =     0.00000000    0.00000000    0.00000000
     atom    2 type  1   force =     0.00000000    0.00000000    0.00000000
     atom    3 type  1   force =     0.00000000    0.00000000    0.00000000
     atom    4 type  1   force =     0.00000000    0.00000000    0.00000000
     atom    5 type  1   force =     0.00000000    0.00000000    0.00000000
     atom    6 type  1   force =     0.00000000    0.00000000    0.00000000
     atom    7 type  1   force =     0.00000000    0.00000000    0.00000000
     atom    8 type  1   force =     0.00000000    0.00000000    0.00000000
     atom    9 type  1   force =     0.00000000    0.00000000    0.00000000
     atom   10 type  1   force =     0.00000000    0.00000000    0.00000000
     atom   11 type  1   force =     0.00000000    0.00000000    0.00000000
     atom   12 type  1   force =     0.00000000    0.00000000    0.00000000
     atom   13 type  1   force =     0.00000000    0.00000000    0.00000000
     atom   14 type  1   force =     0.00000000    0.00000000    0.00000000
     atom   15 type  1   force =     0.00000000    0.00000000    0.00000000
     atom   16 type  1   force =     0.00000000    0.00000000    0.00000000
     atom   17 type  2   force =     0.00000000    0.00000000    0.00000000
     atom   18 type  2   force =     0.00000000    0.00000000    0.00000000
     atom   19 type  2   force =     0.00000000    0.00000000    0.00000000
     atom   20 type  2   force =     0.00000000    0.00000000    0.00000000
     atom   21 type  2   force =     0.00000000    0.00000000    0.00000000
     atom   22 type  2   force =     0.00000000    0.00000000    0.00000000
     atom   23 type  2   force =     0.00000000    0.00000000    0.00000000
     atom   24 type  2   force =     0.00000000    0.00000000    0.00000000
     atom   25 type  2   force =     0.00000000    0.00000000    0.00000000
     atom   26 type  2   force =     0.00000000    0.00000000    0.00000000
     atom   27 type  2   force =     0.00000000    0.00000000    0.00000000
     atom   28 type  2   force =     0.00000000    0.00000000    0.00000000
     atom   29 type  2   force =     0.00000000    0.00000000    0.00000000
     atom   30 type  2   force =     0.00000000    0.00000000    0.00000000
     atom   31 type  2   force =     0.00000000    0.00000000    0.00000000
     atom   32 type  1   force =     0.00000000    0.00000000    0.00000000
     The SCF correction term to forces
     atom    1 type  1   force =    -0.00000000    0.00000000    0.00010574
     atom    2 type  1   force =    -0.00000000    0.00000000   -0.00000684
     atom    3 type  1   force =    -0.00001022   -0.00000590    0.00002104
     atom    4 type  1   force =     0.00001311    0.00000757    0.00000024
     atom    5 type  1   force =    -0.00000000    0.00001180    0.00002104
     atom    6 type  1   force =    -0.00000000   -0.00001514    0.00000024
     atom    7 type  1   force =     0.00001022   -0.00000590    0.00002104
     atom    8 type  1   force =    -0.00001311    0.00000757    0.00000024
     atom    9 type  1   force =     0.00001846   -0.00001066   -0.00007960
     atom   10 type  1   force =    -0.00001131    0.00000653    0.00004688
     atom   11 type  1   force =     0.00000000    0.00002131   -0.00007960
     atom   12 type  1   force =     0.00000000   -0.00001306    0.00004688
     atom   13 type  1   force =    -0.00001845   -0.00001066   -0.00007960
     atom   14 type  1   force =     0.00001131    0.00000653    0.00004688
     atom   15 type  1   force =     0.00000000   -0.00000000   -0.00009875
     atom   16 type  1   force =     0.00000000   -0.00000000    0.00007990
     atom   17 type  2   force =     0.00000000   -0.00000000    0.00002625
     atom   18 type  2   force =    -0.00000071   -0.00000041   -0.00002301
     atom   19 type  2   force =    -0.00000721   -0.00000416    0.00001752
     atom   20 type  2   force =     0.00000000    0.00000082   -0.00002301
     atom   21 type  2   force =     0.00000000    0.00000832    0.00001752
     atom   22 type  2   force =     0.00000071   -0.00000041   -0.00002301
     atom   23 type  2   force =     0.00000721   -0.00000416    0.00001752
     atom   24 type  2   force =    -0.00000111    0.00000064    0.00001690
     atom   25 type  2   force =    -0.00000224    0.00000129   -0.00001176
     atom   26 type  2   force =    -0.00000000   -0.00000128    0.00001690
     atom   27 type  2   force =    -0.00000000   -0.00000258   -0.00001176
     atom   28 type  2   force =     0.00000111    0.00000064    0.00001690
     atom   29 type  2   force =     0.00000223    0.00000129   -0.00001176
     atom   30 type  2   force =    -0.00000000    0.00000000    0.00002491
     atom   31 type  2   force =    -0.00000000    0.00000000   -0.00001751
     atom   32 type  1   force =    -0.00000000    0.00000000   -0.00002831

     Total force =     0.001210     Total SCF correction =     0.000252
     SCF correction compared to forces is large: reduce conv_thr to get better values


     Computing stress (Cartesian axis) and pressure



     -----------------------------------------------
     Non-local corr. energy    =       9.10009014 Ry
     -----------------------------------------------

          total   stress  (Ry/bohr**3)                   (kbar)     P=     -113.15
  -0.00075718  -0.00000000   0.00000000         -111.38       -0.00        0.00
   0.00000000  -0.00075718   0.00000000            0.00     -111.38        0.00
   0.00000000   0.00000000  -0.00079312            0.00        0.00     -116.67

     kinetic stress (kbar)  18428.32      0.00      0.00
                                0.00  18428.32      0.00
                                0.00      0.00  18397.61

     local   stress (kbar)   6698.13     -0.08     -0.00
                               -0.08   6698.04      0.00
                               -0.00      0.00   3490.91

     nonloc. stress (kbar)    278.77     -0.00      0.00
                                0.00    278.77      0.00
                                0.00      0.00    280.52

     hartree stress (kbar)  20369.48     -0.00      0.00
                               -0.00  20369.48     -0.00
                                0.00     -0.00  21701.63

     exc-cor stress (kbar)   5712.12      0.00     -0.00
                                0.00   5712.12      0.00
                               -0.00      0.00   5714.19

     corecor stress (kbar) -14912.41     -0.00     -0.00
                               -0.00 -14912.41     -0.00
                               -0.00     -0.00 -14911.86

     ewald   stress (kbar) -36855.62      0.10      0.00
                                0.10 -36855.49     -0.00
                                0.00     -0.00 -34957.93

     hubbard stress (kbar)      0.00      0.00      0.00
                                0.00      0.00      0.00
                                0.00      0.00      0.00

     DFT-D   stress (kbar)      0.00      0.00      0.00
                                0.00      0.00      0.00
                                0.00      0.00      0.00

     XDM     stress (kbar)      0.00      0.00      0.00
                                0.00      0.00      0.00
                                0.00      0.00      0.00

     dft-nl  stress (kbar)    169.81     -0.00      0.00
                               -0.00    169.81     -0.00
                                0.00     -0.00    168.26

     TS-vdW  stress (kbar)      0.00      0.00      0.00
                                0.00      0.00      0.00
                                0.00      0.00      0.00

     MDB     stress (kbar)      0.00      0.00      0.00
                                0.00      0.00      0.00
                                0.00      0.00      0.00

     3D-RISM stress (kbar)      0.00      0.00      0.00
                                0.00      0.00      0.00
                                0.00      0.00      0.00



     -----------------------------------------------
     Non-local corr. energy    =       9.10009014 Ry
     -----------------------------------------------



     -----------------------------------------------
     Non-local corr. energy    =       9.10009014 Ry
     -----------------------------------------------



     -----------------------------------------------
     Non-local corr. energy    =       9.10009014 Ry
     -----------------------------------------------



     -----------------------------------------------
     Non-local corr. energy    =       9.10009014 Ry
     -----------------------------------------------



     -----------------------------------------------
     Non-local corr. energy    =       9.10009014 Ry
     -----------------------------------------------



     -----------------------------------------------
     Non-local corr. energy    =       9.10009014 Ry
     -----------------------------------------------



     -----------------------------------------------
     Non-local corr. energy    =       9.10009014 Ry
     -----------------------------------------------



     -----------------------------------------------
     Non-local corr. energy    =       9.10009014 Ry
     -----------------------------------------------



     -----------------------------------------------
     Non-local corr. energy    =       9.10009014 Ry
     -----------------------------------------------



     -----------------------------------------------
     Non-local corr. energy    =       9.10009014 Ry
     -----------------------------------------------



     -----------------------------------------------
     Non-local corr. energy    =       9.10009014 Ry
     -----------------------------------------------



     -----------------------------------------------
     Non-local corr. energy    =       9.10009014 Ry
     -----------------------------------------------



     -----------------------------------------------
     Non-local corr. energy    =       9.10009014 Ry
     -----------------------------------------------



     -----------------------------------------------
     Non-local corr. energy    =       9.10009014 Ry
     -----------------------------------------------



     -----------------------------------------------
     Non-local corr. energy    =       9.10009014 Ry
     -----------------------------------------------



     -----------------------------------------------
     Non-local corr. energy    =       9.10009014 Ry
     -----------------------------------------------



     -----------------------------------------------
     Non-local corr. energy    =       9.10009014 Ry
     -----------------------------------------------



     -----------------------------------------------
     Non-local corr. energy    =       9.10009014 Ry
     -----------------------------------------------



     -----------------------------------------------
     Non-local corr. energy    =       9.10009014 Ry
     -----------------------------------------------



     -----------------------------------------------
     Non-local corr. energy    =       9.10009014 Ry
     -----------------------------------------------



     -----------------------------------------------
     Non-local corr. energy    =       9.10009014 Ry
     -----------------------------------------------



     -----------------------------------------------
     Non-local corr. energy    =       9.10009014 Ry
     -----------------------------------------------



     -----------------------------------------------
     Non-local corr. energy    =       9.10009014 Ry
     -----------------------------------------------



     -----------------------------------------------
     Non-local corr. energy    =       9.10009014 Ry
     -----------------------------------------------



     -----------------------------------------------
     Non-local corr. energy    =       9.10009014 Ry
     -----------------------------------------------



     -----------------------------------------------
     Non-local corr. energy    =       9.10009014 Ry
     -----------------------------------------------



     -----------------------------------------------
     Non-local corr. energy    =       9.10009014 Ry
     -----------------------------------------------



     -----------------------------------------------
     Non-local corr. energy    =       9.10009014 Ry
     -----------------------------------------------



     -----------------------------------------------
     Non-local corr. energy    =       9.10009014 Ry
     -----------------------------------------------



     -----------------------------------------------
     Non-local corr. energy    =       9.10009014 Ry
     -----------------------------------------------



     -----------------------------------------------
     Non-local corr. energy    =       9.10009014 Ry
     -----------------------------------------------



     -----------------------------------------------
     Non-local corr. energy    =       9.10009014 Ry
     -----------------------------------------------



     -----------------------------------------------
     Non-local corr. energy    =       9.10009014 Ry
     -----------------------------------------------



     -----------------------------------------------
     Non-local corr. energy    =       9.10009014 Ry
     -----------------------------------------------

 BEEFens 2000 ensemble energies
             -0.728516430007554E+01
             -0.661994277121797E+02
             -0.286243994087238E+02
              0.232523468967473E+02
             -0.477740205802095E+02
             -0.613329947443135E+02
              0.313934301847485E+02
             -0.324629902960214E+01
              0.525058368709236E+02
             -0.230037575613608E+01
              0.259569093113895E+02
              0.106486849968084E+01
              0.961253935517078E+00
             -0.222690540029339E+01
              0.343381032166504E+02
             -0.249972992637513E+02
             -0.513298460057667E+02
             -0.168299555536694E+02
              0.125792195695171E+02
             -0.119408835513741E+01
              0.753911779864383E+02
              0.639792466279674E+02
             -0.368046331719775E+02
              0.131572825251968E+02
             -0.803917581710356E+02
              0.644590255017602E+02
              0.210214722720167E+02
              0.624827977994780E+02
              0.410689866476341E+02
             -0.198388117487810E+02
              0.151423645300441E+02
             -0.294218118052478E+02
              0.846096829890143E+01
              0.404370593111281E+02
              0.427016052149463E+02
             -0.155234245820380E+02
              0.948455192279816E+02
             -0.361316233996616E+02
             -0.259453884066528E+02
              0.380724596076346E+02
              0.170613499768815E+02
              0.284366018979293E+02
             -0.542771761175390E+02
             -0.149110926874994E+01
              0.531685672774951E+02
              0.692212631553550E+02
             -0.690209714012793E+02
              0.487268122605629E+01
              0.259436188061575E+02
              0.128712849056124E+02
              0.287529560820700E+02
              0.609598326503614E+02
             -0.368012150290670E+02
             -0.404312914171020E+02
             -0.525484246157318E+02
             -0.796580668403561E+01
             -0.479892732520032E+02
              0.475423839929061E+01
             -0.874133098946908E+01
             -0.372523939628805E+02
              0.605277941752673E+02
              0.594036766962763E+02
             -0.156895030809967E+02
             -0.425550243987013E+02
             -0.277754673052337E+02
              0.132021545335020E+01
              0.450097540720313E+02
             -0.740363282546321E+01
             -0.442449428718012E+02
              0.375919417372384E+02
             -0.755052722729527E+02
              0.635669684714294E+02
             -0.737804945083723E+02
             -0.335290769951687E+02
             -0.985841986799380E+01
             -0.690897041277125E+01
              0.163790584505256E+01
              0.540267110975458E+02
              0.298302898089590E+02
             -0.562430009073327E+02
             -0.703686254109098E+02
             -0.359118619849455E+02
             -0.268523528821085E+02
              0.488870979391453E+01
             -0.916438850156925E+01
             -0.246783402203182E+02
              0.368060539625229E+02
             -0.244153993657683E+02
              0.106418722783643E+03
             -0.479181805228194E+02
              0.976576200942787E+01
              0.147886585578425E+02
              0.169934691814476E+02
              0.401305600865478E+02
              0.271995070535599E+02
              0.259063818774025E+02
             -0.417625056834027E+02
              0.254458139459401E+02
              0.579285670336526E+01
              0.144842964991369E+00
              0.489960419192413E+02
             -0.599358652645961E+02
              0.971646240747610E+02
             -0.253091096050274E+02
             -0.107642992283001E+03
              0.480818420464246E+01
              0.889263515338445E+01
             -0.286646456716693E+02
             -0.546877985093460E+02
             -0.285889170022358E+02
             -0.224023559774784E+02
              0.168563776121050E+01
             -0.431778841075493E+02
[...]
             -0.129463236474078E+02
              0.476676581633023E+01
             -0.118881694554264E+02
              0.701158577466305E+02
             -0.611786793177856E+00
              0.135134790125601E+02
              0.486573946131781E+02
              0.129267307069598E+02
             -0.370881799702952E+02
             -0.600105045449009E+02
              0.341887059499737E+01
             -0.681825622744070E+02
              0.228856639299921E+02
             -0.119286138279120E+02
             -0.264159290341430E+02
              0.267789849649768E+02
              0.919095687965290E+01
              0.256665558663296E+02
              0.118433627128886E+01
              0.380688087563100E+02
             -0.645072956436103E+02
             -0.465274313191156E+01
             -0.566104304370765E+02
              0.124443416293300E+02
              0.311170963728721E+02
             -0.316119431241134E+01
             -0.207996161496872E+02
              0.463983096192872E+02
             -0.214325261401762E+02
              0.159039272461084E+02
             -0.137071941971806E+02
              0.367401176277617E+02
              0.389237146600709E+02
             -0.167993754873496E+02
              0.330909310745891E+02
              0.124350656571243E+02
             -0.334309436477909E+02
             -0.219700260311312E+02
              0.538422650515823E+02
              0.264170797790860E+02
             -0.239263437060735E+01
             -0.571300883258834E+01
              0.827992338959665E+02
              0.489153764976393E+02
              0.174075851242982E+02
             -0.520443579383968E+02
              0.836649648449759E+02
             -0.389323942568533E+02
             -0.481329346269297E+02
             -0.727514592093710E+02
              0.323328019214676E+02
             -0.653915213597165E+02
              0.295366531598148E+02
              0.475914936850334E+02
              0.339837497556005E+02
              0.845380178269307E+01
              0.225533341061100E+02
             -0.537604416958532E+02
             -0.192754534878219E+02
             -0.146285559390084E+02
              0.275248668612888E+02
              0.549153732386591E+02
              0.565294096493493E+02
              0.435495144939356E+02
             -0.998793392030473E+01
              0.139822807626912E+02
              0.937429843502457E+00
             -0.179589347757884E+02
              0.232276476680252E+02
              0.252540051629842E+02
             -0.318993730049044E+02
             -0.378058211096669E+02
             -0.149761141317096E+02
              0.390478262464547E+02
              0.186944964320503E+02
             -0.268008900292520E+02
             -0.413546345073877E+02
             -0.602945851782584E+02
              0.131268493784873E+01
              0.162950211425433E+02
             -0.227195293712024E+02
              0.842318760744193E+02
              0.400178950297550E+01
             -0.952595811545440E+02
              0.210579552027939E+02
              0.416424845573553E+02
             -0.190743489171388E+02
              0.221276671821175E+01
             -0.264094034389980E+02
              0.389976392154603E+02
              0.180827442426223E+02
             -0.498761955223614E+02
              0.593594023186871E+02
              0.188781991076256E+01
             -0.253241504865519E+02
             -0.301773225362732E+02
              0.118361386058186E+03
              0.526573476008274E+02
             -0.147442178487556E+02
              0.289072593780063E+02
             -0.518676335287754E+02
             -0.938760510341001E+01
             -0.524514778052994E+02
              0.209700351996821E+02
              0.359034148879723E+02
              0.424448086243863E+02
             -0.168690630686275E+02
              0.499142182612377E+01
              0.485322994268029E+02
              0.178026110794048E+02
              0.304047575660000E+02
              0.129083287428483E+02
             -0.862320839688900E+01
              0.139774758460175E+01
             -0.801529354187466E+01
              0.123320875017675E+02
              0.271913656087696E+01
             -0.442819118178177E+02
              0.671507284570954E+02
              0.268665818403672E+02
             -0.483779796459004E+02
             -0.359967693027112E+02
             -0.519410288311368E+02
             -0.244393834150196E+02
             -0.181164526503754E+02
             -0.400986343668382E+02
             -0.392919464732971E+02
              0.492567198943959E+02
              0.390155361590801E+02
             -0.476507851488242E+01
              0.570110212948385E+02
              0.106552602708598E+02
             -0.918966340386775E+02
              0.519829734927150E+02
              0.119366388980023E+02
              0.398936599978077E+02
              0.881689071824172E+01
              0.659813543038092E+01
              0.785646811429902E+01
              0.207202194154356E+02
             -0.382085664733462E+02
             -0.190160363546015E+02
             -0.351697176709518E+02
             -0.292771555578392E+02
              0.132076865879577E+02
             -0.332725819854110E+02
              0.156737596721637E+02
              0.206536177031565E+02
             -0.219514421299300E+02
             -0.116119898539201E+02
             -0.957009470115366E+00
              0.568521057127271E+02
              0.916269753158997E+01
              0.562277943048499E+02
              0.202113735162757E+02
             -0.728375500930993E+02
             -0.246894527998494E+02
              0.249415199514067E+02
              0.563055608626339E+02
              0.105898012326865E+02
              0.219982130914603E+02
              0.528803860033963E+02
             -0.306601143582743E+02
             -0.498726734666296E+02
              0.648772853203330E+02
              0.127544296446877E+01
             -0.687183614220178E+02
              0.230336017654827E+02
              0.454316702707890E+02
             -0.106161697112167E+02
             -0.432137170668189E+02
              0.786403661640995E+01
              0.271765214231618E+01
             -0.236090326600798E+02
              0.845406313879994E+01
             -0.725708050874628E+01
              0.101478080175631E+03
              0.280938729909496E+02
             -0.464156220421754E+02
              0.140337590459757E+02
              0.651033922502520E+02
             -0.418526518949856E+02
             -0.109564234740806E+02
             -0.369821718548166E+02
              0.296853506677619E+02
              0.124275877856538E+02
              0.197469370165770E+02
              0.157019583400299E+01
              0.732252296259090E+02
             -0.407992691104364E+02
             -0.309528293461192E+02
             -0.342699157102414E+02
              0.293540857658012E+02
              0.704515183131265E+02
             -0.906776439336912E+01
              0.290398323142450E+02
             -0.394430790515332E+02
              0.414018925235476E+01
             -0.116943135787620E+02
             -0.365431576900954E+01
             -0.166958781499089E+02
             -0.153146813299496E+02
             -0.113495828853282E+02
              0.119748335882356E+02
              0.205697198855172E+02
             -0.471790724123837E+02
              0.342930452535044E+02
             -0.554561097843459E+02
              0.413914937567804E+02
             -0.478562090625737E+02
              0.724964511352213E+02
              0.387027210315630E+02
              0.433562213738157E+02
              0.998334656572024E+01
              0.112728665303531E+02
             -0.975008224031734E+02
              0.165771914207601E+02
              0.440395135891868E+01
              0.778066968210646E+01
             -0.145941368696183E+02
              0.760541872460838E+02
             -0.228410159126763E+02
             -0.301115235916237E+02
             -0.751138015572390E+02
             -0.249610384351880E+02
             -0.342283347529736E+02
             -0.302655481224151E+02
             -0.829042763690217E+01
             -0.159311652915035E+02
             -0.210327928173059E+02
             -0.315701889366250E+02
              0.234937956060027E+02
              0.778871391099360E+02
              0.664174283436682E+02
             -0.129450909082777E+02
             -0.814190772899728E+02
             -0.342942546254348E+02
              0.155611068590646E+02
              0.175242139035931E+02
              0.253249987596633E+02
              0.195412657435496E+02
              0.633222598888170E+01
              0.755563256400820E+02
             -0.187048557903255E+02
              0.382232338316402E+02
              0.177238352076917E+02
             -0.246700022548795E+02
             -0.154638040625774E+02
              0.348562132401022E+02
             -0.202963381180010E+02
             -0.142690057727535E+02
             -0.931713686646304E+01
              0.435181863957660E+02
             -0.584463115148915E+02
             -0.626342696783723E+01
             -0.477968141772407E+02
             -0.103285202358726E+03
              0.246935784189702E+00
             -0.128635489409572E+02
              0.354507214805645E+02
              0.422223476828642E+02
              0.578529620337391E+02
             -0.380859267261058E+02
              0.619456532902661E+02
              0.162664479431769E+02
             -0.187000940998137E+02
              0.111255269615023E+02
             -0.194832674901908E+02
             -0.137265406847694E+02
              0.316236596858514E+02
             -0.306582128001479E+02
              0.747465764561138E+02
             -0.191747870483448E+02
             -0.400061150870828E+02
              0.761271203085102E+02
             -0.427408618927178E+02
             -0.623997454785865E+01
              0.771404420249627E+01
              0.236264518589942E+02
             -0.348668630195218E+02
             -0.261061436272985E+02
              0.397783737667245E+02
             -0.643062067778019E+02
              0.473401056327770E+02
              0.612079063789015E+01
              0.369718355091500E+02
              0.512612175395496E+02
              0.131185859214846E+02
             -0.676994097469458E+02
             -0.297762484810327E+02
             -0.498751100006618E+02
             -0.312664740525994E+02
             -0.100458880567390E+02
              0.124070390081743E+02
             -0.235468352147596E+02
              0.156135201163841E+01
             -0.755107632242679E+02
              0.193708974421344E+01
             -0.478495990026080E+02
              0.470369530225010E+02
             -0.254287822218971E+02
             -0.495181557570061E+01
              0.338730587122025E+02
              0.368124401453406E+01
              0.335996227914082E+02
             -0.604923010627051E+02
              0.132381021492497E+02
              0.403986772488805E+01
              0.244447345125261E+02
              0.435865838953635E+02
             -0.774529838729711E+01
             -0.476558894741759E+02
             -0.273796663105594E+02
             -0.188049748291723E+02
             -0.908486687152981E+01
              0.450764517633057E+02
              0.277351131716569E+02
             -0.291234039749596E+02
             -0.263535612003526E+02
              0.217365163645100E+02
              0.213989676915218E+02
             -0.593614125514555E+02
              0.165152239464771E+02
              0.434544253745634E+02
             -0.215782412909037E+01
              0.510722858501984E+02
              0.257780971693956E+02
              0.407985278015362E+02
              0.621297597503033E+02
              0.103306331638264E+02
             -0.864231199729252E+02
              0.893591412647517E+01
              0.959554163514575E+02
              0.691536126205148E+02
             -0.462997001963123E+02
              0.463845761424703E+01
              0.603123548057823E+02
              0.547059192859149E+02
              0.261199632918803E+02
             -0.137599797186052E+02
              0.249717691853503E+02
              0.520982405367809E+02
             -0.234490207111016E+02
             -0.167367815905809E+02
              0.326409038218711E+02
             -0.227203311941949E+01
              0.307913429607486E+02
             -0.777368987291150E+01
              0.631916243176485E+02
             -0.241055788861050E+02
              0.145937157613981E+02
             -0.292816432179776E+02
              0.297933185707668E+02
             -0.397484045127999E+01
              0.471427107384212E+02
              0.335898476545009E+01
              0.188164913530512E+02
             -0.312677034235979E+02
             -0.192419938979317E+02
             -0.907691469281346E+01
             -0.790955642520277E+01
              0.494583947297292E+02
              0.206916942296983E+02
              0.633721311533749E+02
              0.531973195241176E+02
              0.119625879451898E+02
              0.451635428709452E+00
              0.620739625468399E+02
              0.326541066897607E+02
              0.872045652353449E+00
              0.551171313125487E+02
             -0.494390777031123E+02
              0.161171538598433E+02
             -0.312138413666080E+02
             -0.121786958641177E+02
              0.795768603100005E+02
             -0.121282368330111E+02
             -0.639563498403845E+00
             -0.103922502299702E+02
              0.661314673360827E+02
             -0.153331778390744E+02
             -0.181950942497525E+01
              0.133319047552689E+03
             -0.429597889718164E+02
             -0.462625302481094E+02
             -0.482411191097495E+02
             -0.284037704094530E+02
              0.282090959885487E+02
             -0.120134852683589E+02
              0.770047566924069E+01
             -0.250523128802843E+01
              0.169663775093636E+02
              0.275037315643762E+02
              0.318478614342938E+02
              0.464532672941530E+02
              0.258613790420583E+02
              0.325707683909724E+02
             -0.528663514589331E+02
             -0.509040580734754E+02
             -0.127058510972018E+02
             -0.497273639058696E+02
              0.793723913981327E+02
              0.680155678939066E+02
              0.325681014980460E+02
              0.882338097271747E+02
             -0.458703360960433E+02
             -0.185975935032441E+02
             -0.260935029037863E+02
              0.731010046138617E+02
 
 BEEF-vdW xc energy contributions
            1 :    -668.1906090382718     
            2 :     602.0242899907048     
            3 :    -491.3255130820326     
            4 :     368.7007995385541     
            5 :    -262.6898180012490     
            6 :     186.8480477403886     
            7 :    -138.3216604682140     
            8 :     105.1112803342681     
            9 :    -76.19197166542040     
           10 :     47.90065313094567     
           11 :    -23.53719316191734     
           12 :     8.093712280858540     
           13 :    -2.913566855561839     
           14 :     4.212295031735039     
           15 :    -5.908918972652145     
           16 :     3.958606562738851     
           17 :     1.335132250546394     
           18 :    -6.540213487897290     
           19 :     8.472661447840437     
           20 :    -6.870492797713950     
           21 :     4.383101881983293     
           22 :    -4.197743230373590     
           23 :     7.429034203235688     
           24 :    -12.36221500144484     
           25 :     15.98031851399298     
           26 :    -16.37154348446620     
           27 :     14.05345908064874     
           28 :    -11.28316516171481     
           29 :     10.09081602722654     
           30 :    -10.70953768830111     
           31 :    -56.72663684804047     
           32 :    -38.85645343439819     

     Writing all to output data dir ./GaN.save/
 
     init_run     :      4.40s CPU      4.58s WALL (       1 calls)
     electrons    :     59.24s CPU     60.58s WALL (       1 calls)
     forces       :      1.46s CPU      1.48s WALL (       1 calls)
     stress       :      7.68s CPU      7.73s WALL (       1 calls)

     Called by init_run:
     wfcinit      :      2.40s CPU      2.47s WALL (       1 calls)
     wfcinit:atom :      0.03s CPU      0.03s WALL (       8 calls)
     wfcinit:wfcr :      2.08s CPU      2.11s WALL (       8 calls)
     potinit      :      1.50s CPU      1.55s WALL (       1 calls)
     hinit0       :      0.32s CPU      0.35s WALL (       1 calls)

     Called by electrons:
     c_bands      :     57.08s CPU     58.24s WALL (       2 calls)
     sum_band     :      1.45s CPU      1.54s WALL (       2 calls)
     v_of_rho     :      1.27s CPU      1.31s WALL (       2 calls)
     v_h          :      0.00s CPU      0.00s WALL (       2 calls)
     v_xc         :      8.44s CPU      8.57s WALL (      38 calls)
     newd         :      0.11s CPU      0.15s WALL (       2 calls)
     PAW_pot      :      0.81s CPU      0.82s WALL (       2 calls)
     mix_rho      :      0.00s CPU      0.00s WALL (       2 calls)
     vdW_kernel   :      0.86s CPU      0.87s WALL (       1 calls)

     Called by c_bands:
     init_us_2    :      0.25s CPU      0.26s WALL (      56 calls)
     init_us_2:cp :      0.25s CPU      0.26s WALL (      56 calls)
     cegterg      :     56.63s CPU     57.55s WALL (      16 calls)

     Called by sum_band:
     sum_band:wei :      0.00s CPU      0.00s WALL (       2 calls)
     sum_band:loo :      1.29s CPU      1.32s WALL (       2 calls)
     sum_band:buf :      0.05s CPU      0.06s WALL (      16 calls)
     sum_band:ini :      0.09s CPU      0.09s WALL (      16 calls)
     sum_band:cal :      0.30s CPU      0.30s WALL (      16 calls)
     sum_band:bec :      0.01s CPU      0.01s WALL (      16 calls)
     addusdens    :      0.12s CPU      0.18s WALL (       2 calls)
     addusd:skk   :      0.00s CPU      0.01s WALL (       4 calls)
     addusd:dgemm :      0.07s CPU      0.12s WALL (       4 calls)
     addusd:qvan2 :      0.04s CPU      0.04s WALL (       4 calls)

     Called by *egterg:
     cdiaghg      :     25.83s CPU     25.93s WALL (     295 calls)
     cegterg:over :      5.21s CPU      5.34s WALL (     287 calls)
     cegterg:upda :      3.37s CPU      3.47s WALL (     287 calls)
     cegterg:last :      2.07s CPU      2.08s WALL (      40 calls)
     h_psi        :     18.19s CPU     18.52s WALL (     311 calls)
     s_psi        :      2.36s CPU      2.37s WALL (     311 calls)
     g_psi        :      0.03s CPU      0.03s WALL (     287 calls)

     Called by h_psi:
     h_psi:calbec :      3.01s CPU      3.03s WALL (     311 calls)
     vloc_psi     :     12.60s CPU     12.76s WALL (     311 calls)
     add_vuspsi   :      2.40s CPU      2.42s WALL (     311 calls)

     General routines
     calbec       :      4.63s CPU      4.67s WALL (     367 calls)
     fft          :      3.43s CPU      3.47s WALL (    2232 calls)
     ffts         :      0.01s CPU      0.01s WALL (       4 calls)
     fftw         :     12.61s CPU     12.76s WALL (   44208 calls)
     interpolate  :      0.01s CPU      0.01s WALL (       2 calls)
 
     Parallel routines

     PAW routines
     PAW_pot      :      0.81s CPU      0.82s WALL (       2 calls)
     PAW_symme    :      0.00s CPU      0.00s WALL (       3 calls)
 
     PWSCF        :   1m20.74s CPU   1m23.89s WALL

 
   This run was terminated on:   6: 6: 5  28Mar2024            

=------------------------------------------------------------------------------=
   JOB DONE.
=------------------------------------------------------------------------------=
