
     Program PWSCF v.7.1 starts on  4Mar2024 at 15:23:43 

     This program is part of the open-source Quantum ESPRESSO suite
     for quantum simulation of materials; please cite
         "P. Giannozzi et al., J. Phys.:Condens. Matter 21 395502 (2009);
         "P. Giannozzi et al., J. Phys.:Condens. Matter 29 465901 (2017);
         "P. Giannozzi et al., J. Chem. Phys. 152 154105 (2020);
          URL http://www.quantum-espresso.org", 
     in publications or presentations arising from this work. More details at
     http://www.quantum-espresso.org/quote

     Parallel version (MPI & OpenMP), running on     256 processor cores
     Number of MPI processes:               256
     Threads/MPI process:                     1

     MPI processes distributed on     2 nodes
     692633 MiB available memory on the printing compute node when the environment starts
 
     Reading input from espresso.pwi
Warning: card &CELL ignored
Warning: card    CELL_DYNAMICS    = 'BFGS' ignored
Warning: card / ignored

     Current dimensions of program PWSCF are:
     Max number of different atomic species (ntypx) = 10
     Max number of k-points (npk) =  40000
     Max angular momentum in pseudopotentials (lmaxx) =  4
     file Ga.pbe-dn-kjpaw_psl.1.0.0.UPF: wavefunction(s)  4S renormalized
     file N.pbe-n-kjpaw_psl.1.0.0.UPF: wavefunction(s)  2S renormalized

     **************************************************************************
     Initializing libbeef V0.1.2 with the BEEF-vdW functional.
     Citation: Wellendorff et al., PRB 85, 235149 (2012).
     **************************************************************************


     IMPORTANT: XC functional enforced from input :
     Exchange-correlation= BEEF-VDW
                           (   1   4  43  14   2   0   0)
     Any further DFT definition will be discarded
     Please, verify this is what you really want

 
     K-points division:     npool     =       4
     R & G space division:  proc/nbgrp/npool/nimage =      64
     Subspace diagonalization in iterative solution of the eigenvalue problem:
     a serial algorithm will be used

 
     Parallelization info
     --------------------
     sticks:   dense  smooth     PW     G-vecs:    dense   smooth      PW
     Min         226     181     47                26979    19303    2571
     Max         228     182     48                26983    19308    2576
     Sum       14527   11629   3037              1726709  1235535  164709
 
     Using Slab Decomposition
 


     bravais-lattice index     =            4
     lattice parameter (alat)  =      24.5252  a.u.
     unit-cell volume          =   15616.6055 (a.u.)^3
     number of atoms/cell      =          192
     number of atomic types    =            2
     number of electrons       =      1721.00
     number of Kohn-Sham states=         1033
     kinetic-energy cutoff     =      70.0000  Ry
     charge density cutoff     =     350.0000  Ry
     scf convergence threshold =      1.0E-07
     mixing beta               =       0.7000
     number of iterations used =            8  plain     mixing
     Exchange-correlation= BEEF-VDW
                           (   1   4  43  14   2   0   0)

     celldm(1)=  24.525232  celldm(2)=   0.000000  celldm(3)=   1.222409
     celldm(4)=   0.000000  celldm(5)=   0.000000  celldm(6)=   0.000000

     crystal axes: (cart. coord. in units of alat)
               a(1) = (   1.000000   0.000000   0.000000 )  
               a(2) = (  -0.500000   0.866025   0.000000 )  
               a(3) = (   0.000000   0.000000   1.222409 )  

     reciprocal axes: (cart. coord. in units 2 pi/alat)
               b(1) = (  1.000000  0.577350 -0.000000 )  
               b(2) = (  0.000000  1.154701  0.000000 )  
               b(3) = (  0.000000 -0.000000  0.818057 )  


     PseudoPot. # 1 for Ga read from file:
     /trace/group/acmegroup/atimmins/packages/espresso/pseudo/psl_1.0.0/pslibrary.1.0.0/pbe/PSEUDOPOTENTIALS/Ga.pbe-dn-kjpaw_psl.1.0.0.UPF
     MD5 check sum: cd2a01e492f15b435d17032472d8505c
     Pseudo is Projector augmented-wave + core cor, Zval = 13.0
     Generated using 'atomic' code by A. Dal Corso  v.7.1
     Shape of augmentation charge: PSQ
     Using radial grid of 1205 points,  6 beta functions with: 
                l(1) =   0
                l(2) =   0
                l(3) =   1
                l(4) =   1
                l(5) =   2
                l(6) =   2
     Q(r) pseudized with 0 coefficients 


     PseudoPot. # 2 for N  read from file:
     /trace/group/acmegroup/atimmins/packages/espresso/pseudo/psl_1.0.0/pslibrary.1.0.0/pbe/PSEUDOPOTENTIALS/N.pbe-n-kjpaw_psl.1.0.0.UPF
     MD5 check sum: f77f775694dac7e2c3fe1c82443d1a16
     Pseudo is Projector augmented-wave + core cor, Zval =  5.0
     Generated using 'atomic' code by A. Dal Corso  v.7.1
     Shape of augmentation charge: PSQ
     Using radial grid of 1085 points,  4 beta functions with: 
                l(1) =   0
                l(2) =   0
                l(3) =   1
                l(4) =   1
     Q(r) pseudized with 0 coefficients 


     atomic species   valence    mass     pseudopotential
        Ga            13.00    69.72300     Ga( 1.00)
        N              5.00    14.00700     N ( 1.00)

      6 Sym. Ops. (no inversion) found ( 4 have fractional translation)


                                    s                        frac. trans.

      isym =  1     identity                                     

 cryst.   s( 1) = (     1          0          0      )
                  (     0          1          0      )
                  (     0          0          1      )

 cart.    s( 1) = (  1.0000000  0.0000000  0.0000000 )
                  (  0.0000000  1.0000000  0.0000000 )
                  (  0.0000000  0.0000000  1.0000000 )


      isym =  2     120 deg rotation - cryst. axis [0,0,1]       

 cryst.   s( 2) = (     0          1          0      )    f =( -0.2500000 )
                  (    -1         -1          0      )       (  0.0000002 )
                  (     0          0          1      )       (  0.0000000 )

 cart.    s( 2) = ( -0.5000000 -0.8660254  0.0000000 )    f =( -0.2500001 )
                  (  0.8660254 -0.5000000  0.0000000 )       (  0.0000002 )
                  (  0.0000000  0.0000000  1.0000000 )       (  0.0000000 )


      isym =  3     120 deg rotation - cryst. axis [0,0,-1]      

 cryst.   s( 3) = (    -1         -1          0      )    f =( -0.2500002 )
                  (     1          0          0      )       ( -0.2500000 )
                  (     0          0          1      )       (  0.0000000 )

 cart.    s( 3) = ( -0.5000000  0.8660254  0.0000000 )    f =( -0.1250002 )
                  ( -0.8660254 -0.5000000  0.0000000 )       ( -0.2165064 )
                  (  0.0000000  0.0000000  1.0000000 )       (  0.0000000 )


      isym =  4     inv. 180 deg rotation - cart. axis [1,0,0]   

 cryst.   s( 4) = (    -1          0          0      )    f =( -0.2500002 )
                  (     1          1          0      )       (  0.0000000 )
                  (     0          0          1      )       (  0.0000000 )

 cart.    s( 4) = ( -1.0000000  0.0000000  0.0000000 )    f =( -0.2500002 )
                  (  0.0000000  1.0000000  0.0000000 )       (  0.0000000 )
                  (  0.0000000  0.0000000  1.0000000 )       (  0.0000000 )


      isym =  5     inv. 180 deg rotation - cryst. axis [0,1,0]  

 cryst.   s( 5) = (     1          1          0      )
                  (     0         -1          0      )
                  (     0          0          1      )

 cart.    s( 5) = (  0.5000000  0.8660254  0.0000000 )
                  (  0.8660254 -0.5000000  0.0000000 )
                  (  0.0000000  0.0000000  1.0000000 )


      isym =  6     inv. 180 deg rotation - cryst. axis [1,1,0]  

 cryst.   s( 6) = (     0         -1          0      )    f =( -0.2500000 )
                  (    -1          0          0      )       ( -0.2500000 )
                  (     0          0          1      )       (  0.0000000 )

 cart.    s( 6) = (  0.5000000 -0.8660254  0.0000000 )    f =( -0.1250000 )
                  ( -0.8660254 -0.5000000  0.0000000 )       ( -0.2165064 )
                  (  0.0000000  0.0000000  1.0000000 )       (  0.0000000 )


     point group C_3v (3m)  
     there are  3 classes
     the character table:

       E     2C3   3s_v 
A_1    1.00  1.00  1.00
A_2    1.00  1.00 -1.00
E      2.00 -1.00  0.00

     the symmetry operations in each class and the name of the first element:

     E        1
          identity                                               
     2C3      2    3
          120 deg rotation - cryst. axis [0,0,1]                 
     3s_v     4    5    6
          inv. 180 deg rotation - cart. axis [1,0,0]             

   Cartesian axes

     site n.     atom                  positions (alat units)
         1           Ga  tau(   1) = (   0.1250001   0.0721687   0.6108633  )
         2           Ga  tau(   2) = (   0.1250001   0.0721687   1.0183331  )
         3           Ga  tau(   3) = (   0.0000001   0.2886751   0.2033935  )
         4           Ga  tau(   4) = (   0.0000001   0.2886751   0.6108633  )
         5           Ga  tau(   5) = (   0.0000001   0.2886751   1.0183331  )
         6           Ga  tau(   6) = (  -0.1249999   0.5051814   0.2033935  )
         7           Ga  tau(   7) = (  -0.1249999   0.5051814   0.6108633  )
         8           Ga  tau(   8) = (  -0.1249999   0.5051814   1.0183331  )
         9           Ga  tau(   9) = (  -0.2499999   0.7216878   0.2033935  )
        10           Ga  tau(  10) = (  -0.2499999   0.7216878   0.6108633  )
        11           Ga  tau(  11) = (  -0.2499999   0.7216878   1.0183331  )
        12           Ga  tau(  12) = (   0.3750001   0.0721687   0.2033935  )
        13           Ga  tau(  13) = (   0.3750001   0.0721687   0.6108633  )
        14           Ga  tau(  14) = (   0.3750001   0.0721687   1.0183331  )
        15           Ga  tau(  15) = (   0.2500001   0.2886751   0.2033935  )
        16           Ga  tau(  16) = (   0.2500001   0.2886751   0.6108633  )
        17           Ga  tau(  17) = (   0.2500001   0.2886751   1.0183331  )
        18           Ga  tau(  18) = (   0.1250001   0.5051814   0.2033935  )
        19           Ga  tau(  19) = (   0.1250001   0.5051814   0.6108633  )
        20           Ga  tau(  20) = (   0.1250001   0.5051814   1.0183331  )
        21           Ga  tau(  21) = (   0.0000001   0.7216878   0.2033935  )
        22           Ga  tau(  22) = (   0.0000001   0.7216878   0.6108633  )
        23           Ga  tau(  23) = (   0.0000001   0.7216878   1.0183331  )
        24           Ga  tau(  24) = (   0.6250001   0.0721687   0.2033935  )
        25           Ga  tau(  25) = (   0.6250001   0.0721687   0.6108633  )
        26           Ga  tau(  26) = (   0.6250001   0.0721687   1.0183331  )
        27           Ga  tau(  27) = (   0.5000001   0.2886751   0.2033935  )
        28           Ga  tau(  28) = (   0.5000001   0.2886751   0.6108633  )
        29           Ga  tau(  29) = (   0.5000001   0.2886751   1.0183331  )
        30           Ga  tau(  30) = (   0.3750001   0.5051814   0.2033935  )
        31           Ga  tau(  31) = (   0.3750001   0.5051814   0.6108633  )
        32           Ga  tau(  32) = (   0.3750001   0.5051814   1.0183331  )
        33           Ga  tau(  33) = (   0.2500001   0.7216878   0.2033935  )
        34           Ga  tau(  34) = (   0.2500001   0.7216878   0.6108633  )
        35           Ga  tau(  35) = (   0.2500001   0.7216878   1.0183331  )
        36           Ga  tau(  36) = (   0.8750001   0.0721687   0.2033935  )
        37           Ga  tau(  37) = (   0.8750001   0.0721687   0.6108633  )
        38           Ga  tau(  38) = (   0.8750001   0.0721687   1.0183331  )
        39           Ga  tau(  39) = (   0.7500001   0.2886751   0.2033935  )
        40           Ga  tau(  40) = (   0.7500001   0.2886751   0.6108633  )
        41           Ga  tau(  41) = (   0.7500001   0.2886751   1.0183331  )
        42           Ga  tau(  42) = (   0.6250001   0.5051814   0.2033935  )
        43           Ga  tau(  43) = (   0.6250001   0.5051814   0.6108633  )
        44           Ga  tau(  44) = (   0.6250001   0.5051814   1.0183331  )
        45           Ga  tau(  45) = (   0.5000001   0.7216878   0.2033935  )
        46           Ga  tau(  46) = (   0.5000001   0.7216878   0.6108633  )
        47           Ga  tau(  47) = (   0.5000001   0.7216878   1.0183331  )
        48           Ga  tau(  48) = (  -0.0000002   0.1443377   0.4071284  )
        49           Ga  tau(  49) = (  -0.0000002   0.1443377   0.8145982  )
        50           Ga  tau(  50) = (  -0.0000002   0.1443377   1.2220680  )
        51           Ga  tau(  51) = (  -0.1250002   0.3608440   0.4071284  )
        52           Ga  tau(  52) = (  -0.1250002   0.3608440   0.8145982  )
        53           Ga  tau(  53) = (  -0.1250002   0.3608440   1.2220680  )
        54           Ga  tau(  54) = (  -0.2500002   0.5773504   0.4071284  )
        55           Ga  tau(  55) = (  -0.2500002   0.5773504   0.8145982  )
        56           Ga  tau(  56) = (  -0.2500002   0.5773504   1.2220680  )
        57           Ga  tau(  57) = (  -0.3750001   0.7938567   0.4071284  )
        58           Ga  tau(  58) = (  -0.3750001   0.7938567   0.8145982  )
        59           Ga  tau(  59) = (  -0.3750001   0.7938567   1.2220680  )
        60           Ga  tau(  60) = (   0.2499998   0.1443377   0.4071284  )
        61           Ga  tau(  61) = (   0.2499998   0.1443377   0.8145982  )
        62           Ga  tau(  62) = (   0.2499998   0.1443377   1.2220680  )
        63           Ga  tau(  63) = (   0.1249998   0.3608440   0.4071284  )
        64           Ga  tau(  64) = (   0.1249998   0.3608440   0.8145982  )
        65           Ga  tau(  65) = (   0.1249998   0.3608440   1.2220680  )
        66           Ga  tau(  66) = (  -0.0000002   0.5773504   0.4071284  )
        67           Ga  tau(  67) = (  -0.0000002   0.5773504   0.8145982  )
        68           Ga  tau(  68) = (  -0.0000002   0.5773504   1.2220680  )
        69           Ga  tau(  69) = (  -0.1250002   0.7938567   0.4071284  )
        70           Ga  tau(  70) = (  -0.1250002   0.7938567   0.8145982  )
        71           Ga  tau(  71) = (  -0.1250002   0.7938567   1.2220680  )
        72           Ga  tau(  72) = (   0.4999998   0.1443377   0.4071284  )
        73           Ga  tau(  73) = (   0.4999998   0.1443377   0.8145982  )
        74           Ga  tau(  74) = (   0.4999998   0.1443377   1.2220680  )
        75           Ga  tau(  75) = (   0.3749998   0.3608440   0.4071284  )
        76           Ga  tau(  76) = (   0.3749998   0.3608440   0.8145982  )
        77           Ga  tau(  77) = (   0.3749998   0.3608440   1.2220680  )
        78           Ga  tau(  78) = (   0.2499998   0.5773504   0.4071284  )
        79           Ga  tau(  79) = (   0.2499998   0.5773504   0.8145982  )
        80           Ga  tau(  80) = (   0.2499998   0.5773504   1.2220680  )
        81           Ga  tau(  81) = (   0.1249998   0.7938567   0.4071284  )
        82           Ga  tau(  82) = (   0.1249998   0.7938567   0.8145982  )
        83           Ga  tau(  83) = (   0.1249998   0.7938567   1.2220680  )
        84           Ga  tau(  84) = (   0.7499998   0.1443377   0.4071284  )
        85           Ga  tau(  85) = (   0.7499998   0.1443377   0.8145982  )
        86           Ga  tau(  86) = (   0.7499998   0.1443377   1.2220680  )
        87           Ga  tau(  87) = (   0.6249998   0.3608440   0.4071284  )
        88           Ga  tau(  88) = (   0.6249998   0.3608440   0.8145982  )
        89           Ga  tau(  89) = (   0.6249998   0.3608440   1.2220680  )
        90           Ga  tau(  90) = (   0.4999998   0.5773504   0.4071284  )
        91           Ga  tau(  91) = (   0.4999998   0.5773504   0.8145982  )
        92           Ga  tau(  92) = (   0.4999998   0.5773504   1.2220680  )
        93           Ga  tau(  93) = (   0.3749998   0.7938567   0.4071284  )
        94           Ga  tau(  94) = (   0.3749998   0.7938567   0.8145982  )
        95           Ga  tau(  95) = (   0.3749998   0.7938567   1.2220680  )
        96           N   tau(  96) = (   0.1250001   0.0721687   0.3568774  )
        97           N   tau(  97) = (   0.1250001   0.0721687   0.7643472  )
        98           N   tau(  98) = (   0.1250001   0.0721687   1.1718169  )
        99           N   tau(  99) = (   0.0000001   0.2886751   0.3568774  )
       100           N   tau( 100) = (   0.0000001   0.2886751   0.7643472  )
       101           N   tau( 101) = (   0.0000001   0.2886751   1.1718169  )
       102           N   tau( 102) = (  -0.1249999   0.5051814   0.3568774  )
       103           N   tau( 103) = (  -0.1249999   0.5051814   0.7643472  )
       104           N   tau( 104) = (  -0.1249999   0.5051814   1.1718169  )
       105           N   tau( 105) = (  -0.2499999   0.7216878   0.3568774  )
       106           N   tau( 106) = (  -0.2499999   0.7216878   0.7643472  )
       107           N   tau( 107) = (  -0.2499999   0.7216878   1.1718169  )
       108           N   tau( 108) = (   0.3750001   0.0721687   0.3568774  )
       109           N   tau( 109) = (   0.3750001   0.0721687   0.7643472  )
       110           N   tau( 110) = (   0.3750001   0.0721687   1.1718169  )
       111           N   tau( 111) = (   0.2500001   0.2886751   0.3568774  )
       112           N   tau( 112) = (   0.2500001   0.2886751   0.7643472  )
       113           N   tau( 113) = (   0.2500001   0.2886751   1.1718169  )
       114           N   tau( 114) = (   0.1250001   0.5051814   0.3568774  )
       115           N   tau( 115) = (   0.1250001   0.5051814   0.7643472  )
       116           N   tau( 116) = (   0.1250001   0.5051814   1.1718169  )
       117           N   tau( 117) = (   0.0000001   0.7216878   0.3568774  )
       118           N   tau( 118) = (   0.0000001   0.7216878   0.7643472  )
       119           N   tau( 119) = (   0.0000001   0.7216878   1.1718169  )
       120           N   tau( 120) = (   0.6250001   0.0721687   0.3568774  )
       121           N   tau( 121) = (   0.6250001   0.0721687   0.7643472  )
       122           N   tau( 122) = (   0.6250001   0.0721687   1.1718169  )
       123           N   tau( 123) = (   0.5000001   0.2886751   0.3568774  )
       124           N   tau( 124) = (   0.5000001   0.2886751   0.7643472  )
       125           N   tau( 125) = (   0.5000001   0.2886751   1.1718169  )
       126           N   tau( 126) = (   0.3750001   0.5051814   0.3568774  )
       127           N   tau( 127) = (   0.3750001   0.5051814   0.7643472  )
       128           N   tau( 128) = (   0.3750001   0.5051814   1.1718169  )
       129           N   tau( 129) = (   0.2500001   0.7216878   0.3568774  )
       130           N   tau( 130) = (   0.2500001   0.7216878   0.7643472  )
       131           N   tau( 131) = (   0.2500001   0.7216878   1.1718169  )
       132           N   tau( 132) = (   0.8750001   0.0721687   0.3568774  )
       133           N   tau( 133) = (   0.8750001   0.0721687   0.7643472  )
       134           N   tau( 134) = (   0.8750001   0.0721687   1.1718169  )
       135           N   tau( 135) = (   0.7500001   0.2886751   0.3568774  )
       136           N   tau( 136) = (   0.7500001   0.2886751   0.7643472  )
       137           N   tau( 137) = (   0.7500001   0.2886751   1.1718169  )
       138           N   tau( 138) = (   0.6250001   0.5051814   0.3568774  )
       139           N   tau( 139) = (   0.6250001   0.5051814   0.7643472  )
       140           N   tau( 140) = (   0.6250001   0.5051814   1.1718169  )
       141           N   tau( 141) = (   0.5000001   0.7216878   0.3568774  )
       142           N   tau( 142) = (   0.5000001   0.7216878   0.7643472  )
       143           N   tau( 143) = (   0.5000001   0.7216878   1.1718169  )
       144           N   tau( 144) = (  -0.0000002   0.1443377   0.1531425  )
       145           N   tau( 145) = (  -0.0000002   0.1443377   0.5606123  )
       146           N   tau( 146) = (  -0.0000002   0.1443377   0.9680820  )
       147           N   tau( 147) = (  -0.1250002   0.3608440   0.1531425  )
       148           N   tau( 148) = (  -0.1250002   0.3608440   0.5606123  )
       149           N   tau( 149) = (  -0.1250002   0.3608440   0.9680820  )
       150           N   tau( 150) = (  -0.2500002   0.5773504   0.1531425  )
       151           N   tau( 151) = (  -0.2500002   0.5773504   0.5606123  )
       152           N   tau( 152) = (  -0.2500002   0.5773504   0.9680820  )
       153           N   tau( 153) = (  -0.3750001   0.7938567   0.1531425  )
       154           N   tau( 154) = (  -0.3750001   0.7938567   0.5606123  )
       155           N   tau( 155) = (  -0.3750001   0.7938567   0.9680820  )
       156           N   tau( 156) = (   0.2499998   0.1443377   0.1531425  )
       157           N   tau( 157) = (   0.2499998   0.1443377   0.5606123  )
       158           N   tau( 158) = (   0.2499998   0.1443377   0.9680820  )
       159           N   tau( 159) = (   0.1249998   0.3608440   0.1531425  )
       160           N   tau( 160) = (   0.1249998   0.3608440   0.5606123  )
       161           N   tau( 161) = (   0.1249998   0.3608440   0.9680820  )
       162           N   tau( 162) = (  -0.0000002   0.5773504   0.1531425  )
       163           N   tau( 163) = (  -0.0000002   0.5773504   0.5606123  )
       164           N   tau( 164) = (  -0.0000002   0.5773504   0.9680820  )
       165           N   tau( 165) = (  -0.1250002   0.7938567   0.1531425  )
       166           N   tau( 166) = (  -0.1250002   0.7938567   0.5606123  )
       167           N   tau( 167) = (  -0.1250002   0.7938567   0.9680820  )
       168           N   tau( 168) = (   0.4999998   0.1443377   0.1531425  )
       169           N   tau( 169) = (   0.4999998   0.1443377   0.5606123  )
       170           N   tau( 170) = (   0.4999998   0.1443377   0.9680820  )
       171           N   tau( 171) = (   0.3749998   0.3608440   0.1531425  )
       172           N   tau( 172) = (   0.3749998   0.3608440   0.5606123  )
       173           N   tau( 173) = (   0.3749998   0.3608440   0.9680820  )
       174           N   tau( 174) = (   0.2499998   0.5773504   0.1531425  )
       175           N   tau( 175) = (   0.2499998   0.5773504   0.5606123  )
       176           N   tau( 176) = (   0.2499998   0.5773504   0.9680820  )
       177           N   tau( 177) = (   0.1249998   0.7938567   0.1531425  )
       178           N   tau( 178) = (   0.1249998   0.7938567   0.5606123  )
       179           N   tau( 179) = (   0.1249998   0.7938567   0.9680820  )
       180           N   tau( 180) = (   0.7499998   0.1443377   0.1531425  )
       181           N   tau( 181) = (   0.7499998   0.1443377   0.5606123  )
       182           N   tau( 182) = (   0.7499998   0.1443377   0.9680820  )
       183           N   tau( 183) = (   0.6249998   0.3608440   0.1531425  )
       184           N   tau( 184) = (   0.6249998   0.3608440   0.5606123  )
       185           N   tau( 185) = (   0.6249998   0.3608440   0.9680820  )
       186           N   tau( 186) = (   0.4999998   0.5773504   0.1531425  )
       187           N   tau( 187) = (   0.4999998   0.5773504   0.5606123  )
       188           N   tau( 188) = (   0.4999998   0.5773504   0.9680820  )
       189           N   tau( 189) = (   0.3749998   0.7938567   0.1531425  )
       190           N   tau( 190) = (   0.3749998   0.7938567   0.5606123  )
       191           N   tau( 191) = (   0.3749998   0.7938567   0.9680820  )
       192           N   tau( 192) = (   0.1250001   0.0721687   0.2033935  )

   Crystallographic axes

     site n.     atom                  positions (cryst. coord.)
         1           Ga  tau(   1) = (  0.1666667  0.0833333  0.4997208  )
         2           Ga  tau(   2) = (  0.1666667  0.0833333  0.8330541  )
         3           Ga  tau(   3) = (  0.1666667  0.3333333  0.1663874  )
         4           Ga  tau(   4) = (  0.1666667  0.3333333  0.4997208  )
         5           Ga  tau(   5) = (  0.1666667  0.3333333  0.8330541  )
         6           Ga  tau(   6) = (  0.1666667  0.5833333  0.1663874  )
         7           Ga  tau(   7) = (  0.1666667  0.5833333  0.4997208  )
         8           Ga  tau(   8) = (  0.1666667  0.5833333  0.8330541  )
         9           Ga  tau(   9) = (  0.1666667  0.8333333  0.1663874  )
        10           Ga  tau(  10) = (  0.1666667  0.8333333  0.4997208  )
        11           Ga  tau(  11) = (  0.1666667  0.8333333  0.8330541  )
        12           Ga  tau(  12) = (  0.4166667  0.0833333  0.1663874  )
        13           Ga  tau(  13) = (  0.4166667  0.0833333  0.4997208  )
        14           Ga  tau(  14) = (  0.4166667  0.0833333  0.8330541  )
        15           Ga  tau(  15) = (  0.4166667  0.3333333  0.1663874  )
        16           Ga  tau(  16) = (  0.4166667  0.3333333  0.4997208  )
        17           Ga  tau(  17) = (  0.4166667  0.3333333  0.8330541  )
        18           Ga  tau(  18) = (  0.4166667  0.5833333  0.1663874  )
        19           Ga  tau(  19) = (  0.4166667  0.5833333  0.4997208  )
        20           Ga  tau(  20) = (  0.4166667  0.5833333  0.8330541  )
        21           Ga  tau(  21) = (  0.4166667  0.8333333  0.1663874  )
        22           Ga  tau(  22) = (  0.4166667  0.8333333  0.4997208  )
        23           Ga  tau(  23) = (  0.4166667  0.8333333  0.8330541  )
        24           Ga  tau(  24) = (  0.6666667  0.0833333  0.1663874  )
        25           Ga  tau(  25) = (  0.6666667  0.0833333  0.4997208  )
        26           Ga  tau(  26) = (  0.6666667  0.0833333  0.8330541  )
        27           Ga  tau(  27) = (  0.6666667  0.3333333  0.1663874  )
        28           Ga  tau(  28) = (  0.6666667  0.3333333  0.4997208  )
        29           Ga  tau(  29) = (  0.6666667  0.3333333  0.8330541  )
        30           Ga  tau(  30) = (  0.6666667  0.5833333  0.1663874  )
        31           Ga  tau(  31) = (  0.6666667  0.5833333  0.4997208  )
        32           Ga  tau(  32) = (  0.6666667  0.5833333  0.8330541  )
        33           Ga  tau(  33) = (  0.6666667  0.8333333  0.1663874  )
        34           Ga  tau(  34) = (  0.6666667  0.8333333  0.4997208  )
        35           Ga  tau(  35) = (  0.6666667  0.8333333  0.8330541  )
        36           Ga  tau(  36) = (  0.9166667  0.0833333  0.1663874  )
        37           Ga  tau(  37) = (  0.9166667  0.0833333  0.4997208  )
        38           Ga  tau(  38) = (  0.9166667  0.0833333  0.8330541  )
        39           Ga  tau(  39) = (  0.9166667  0.3333333  0.1663874  )
        40           Ga  tau(  40) = (  0.9166667  0.3333333  0.4997208  )
        41           Ga  tau(  41) = (  0.9166667  0.3333333  0.8330541  )
        42           Ga  tau(  42) = (  0.9166667  0.5833333  0.1663874  )
        43           Ga  tau(  43) = (  0.9166667  0.5833333  0.4997208  )
        44           Ga  tau(  44) = (  0.9166667  0.5833333  0.8330541  )
        45           Ga  tau(  45) = (  0.9166667  0.8333333  0.1663874  )
        46           Ga  tau(  46) = (  0.9166667  0.8333333  0.4997208  )
        47           Ga  tau(  47) = (  0.9166667  0.8333333  0.8330541  )
        48           Ga  tau(  48) = (  0.0833333  0.1666668  0.3330541  )
        49           Ga  tau(  49) = (  0.0833333  0.1666668  0.6663874  )
        50           Ga  tau(  50) = (  0.0833333  0.1666668  0.9997208  )
        51           Ga  tau(  51) = (  0.0833333  0.4166668  0.3330541  )
        52           Ga  tau(  52) = (  0.0833333  0.4166668  0.6663874  )
        53           Ga  tau(  53) = (  0.0833333  0.4166668  0.9997208  )
        54           Ga  tau(  54) = (  0.0833333  0.6666668  0.3330541  )
        55           Ga  tau(  55) = (  0.0833333  0.6666668  0.6663874  )
        56           Ga  tau(  56) = (  0.0833333  0.6666668  0.9997208  )
        57           Ga  tau(  57) = (  0.0833333  0.9166668  0.3330541  )
        58           Ga  tau(  58) = (  0.0833333  0.9166668  0.6663874  )
        59           Ga  tau(  59) = (  0.0833333  0.9166668  0.9997208  )
        60           Ga  tau(  60) = (  0.3333332  0.1666668  0.3330541  )
        61           Ga  tau(  61) = (  0.3333332  0.1666668  0.6663874  )
        62           Ga  tau(  62) = (  0.3333332  0.1666668  0.9997208  )
        63           Ga  tau(  63) = (  0.3333332  0.4166668  0.3330541  )
        64           Ga  tau(  64) = (  0.3333332  0.4166668  0.6663874  )
        65           Ga  tau(  65) = (  0.3333332  0.4166668  0.9997208  )
        66           Ga  tau(  66) = (  0.3333332  0.6666668  0.3330541  )
        67           Ga  tau(  67) = (  0.3333332  0.6666668  0.6663874  )
        68           Ga  tau(  68) = (  0.3333332  0.6666668  0.9997208  )
        69           Ga  tau(  69) = (  0.3333332  0.9166668  0.3330541  )
        70           Ga  tau(  70) = (  0.3333332  0.9166668  0.6663874  )
        71           Ga  tau(  71) = (  0.3333332  0.9166668  0.9997208  )
        72           Ga  tau(  72) = (  0.5833332  0.1666668  0.3330541  )
        73           Ga  tau(  73) = (  0.5833332  0.1666668  0.6663874  )
        74           Ga  tau(  74) = (  0.5833332  0.1666668  0.9997208  )
        75           Ga  tau(  75) = (  0.5833332  0.4166668  0.3330541  )
        76           Ga  tau(  76) = (  0.5833332  0.4166668  0.6663874  )
        77           Ga  tau(  77) = (  0.5833332  0.4166668  0.9997208  )
        78           Ga  tau(  78) = (  0.5833332  0.6666668  0.3330541  )
        79           Ga  tau(  79) = (  0.5833332  0.6666668  0.6663874  )
        80           Ga  tau(  80) = (  0.5833332  0.6666668  0.9997208  )
        81           Ga  tau(  81) = (  0.5833332  0.9166668  0.3330541  )
        82           Ga  tau(  82) = (  0.5833332  0.9166668  0.6663874  )
        83           Ga  tau(  83) = (  0.5833332  0.9166668  0.9997208  )
        84           Ga  tau(  84) = (  0.8333332  0.1666668  0.3330541  )
        85           Ga  tau(  85) = (  0.8333332  0.1666668  0.6663874  )
        86           Ga  tau(  86) = (  0.8333332  0.1666668  0.9997208  )
        87           Ga  tau(  87) = (  0.8333332  0.4166668  0.3330541  )
        88           Ga  tau(  88) = (  0.8333332  0.4166668  0.6663874  )
        89           Ga  tau(  89) = (  0.8333332  0.4166668  0.9997208  )
        90           Ga  tau(  90) = (  0.8333332  0.6666668  0.3330541  )
        91           Ga  tau(  91) = (  0.8333332  0.6666668  0.6663874  )
        92           Ga  tau(  92) = (  0.8333332  0.6666668  0.9997208  )
        93           Ga  tau(  93) = (  0.8333332  0.9166668  0.3330541  )
        94           Ga  tau(  94) = (  0.8333332  0.9166668  0.6663874  )
        95           Ga  tau(  95) = (  0.8333332  0.9166668  0.9997208  )
        96           N   tau(  96) = (  0.1666667  0.0833333  0.2919459  )
        97           N   tau(  97) = (  0.1666667  0.0833333  0.6252792  )
        98           N   tau(  98) = (  0.1666667  0.0833333  0.9586126  )
        99           N   tau(  99) = (  0.1666667  0.3333333  0.2919459  )
       100           N   tau( 100) = (  0.1666667  0.3333333  0.6252792  )
       101           N   tau( 101) = (  0.1666667  0.3333333  0.9586126  )
       102           N   tau( 102) = (  0.1666667  0.5833333  0.2919459  )
       103           N   tau( 103) = (  0.1666667  0.5833333  0.6252792  )
       104           N   tau( 104) = (  0.1666667  0.5833333  0.9586126  )
       105           N   tau( 105) = (  0.1666667  0.8333333  0.2919459  )
       106           N   tau( 106) = (  0.1666667  0.8333333  0.6252792  )
       107           N   tau( 107) = (  0.1666667  0.8333333  0.9586126  )
       108           N   tau( 108) = (  0.4166667  0.0833333  0.2919459  )
       109           N   tau( 109) = (  0.4166667  0.0833333  0.6252792  )
       110           N   tau( 110) = (  0.4166667  0.0833333  0.9586126  )
       111           N   tau( 111) = (  0.4166667  0.3333333  0.2919459  )
       112           N   tau( 112) = (  0.4166667  0.3333333  0.6252792  )
       113           N   tau( 113) = (  0.4166667  0.3333333  0.9586126  )
       114           N   tau( 114) = (  0.4166667  0.5833333  0.2919459  )
       115           N   tau( 115) = (  0.4166667  0.5833333  0.6252792  )
       116           N   tau( 116) = (  0.4166667  0.5833333  0.9586126  )
       117           N   tau( 117) = (  0.4166667  0.8333333  0.2919459  )
       118           N   tau( 118) = (  0.4166667  0.8333333  0.6252792  )
       119           N   tau( 119) = (  0.4166667  0.8333333  0.9586126  )
       120           N   tau( 120) = (  0.6666667  0.0833333  0.2919459  )
       121           N   tau( 121) = (  0.6666667  0.0833333  0.6252792  )
       122           N   tau( 122) = (  0.6666667  0.0833333  0.9586126  )
       123           N   tau( 123) = (  0.6666667  0.3333333  0.2919459  )
       124           N   tau( 124) = (  0.6666667  0.3333333  0.6252792  )
       125           N   tau( 125) = (  0.6666667  0.3333333  0.9586126  )
       126           N   tau( 126) = (  0.6666667  0.5833333  0.2919459  )
       127           N   tau( 127) = (  0.6666667  0.5833333  0.6252792  )
       128           N   tau( 128) = (  0.6666667  0.5833333  0.9586126  )
       129           N   tau( 129) = (  0.6666667  0.8333333  0.2919459  )
       130           N   tau( 130) = (  0.6666667  0.8333333  0.6252792  )
       131           N   tau( 131) = (  0.6666667  0.8333333  0.9586126  )
       132           N   tau( 132) = (  0.9166667  0.0833333  0.2919459  )
       133           N   tau( 133) = (  0.9166667  0.0833333  0.6252792  )
       134           N   tau( 134) = (  0.9166667  0.0833333  0.9586126  )
       135           N   tau( 135) = (  0.9166667  0.3333333  0.2919459  )
       136           N   tau( 136) = (  0.9166667  0.3333333  0.6252792  )
       137           N   tau( 137) = (  0.9166667  0.3333333  0.9586126  )
       138           N   tau( 138) = (  0.9166667  0.5833333  0.2919459  )
       139           N   tau( 139) = (  0.9166667  0.5833333  0.6252792  )
       140           N   tau( 140) = (  0.9166667  0.5833333  0.9586126  )
       141           N   tau( 141) = (  0.9166667  0.8333333  0.2919459  )
       142           N   tau( 142) = (  0.9166667  0.8333333  0.6252792  )
       143           N   tau( 143) = (  0.9166667  0.8333333  0.9586126  )
       144           N   tau( 144) = (  0.0833333  0.1666668  0.1252792  )
       145           N   tau( 145) = (  0.0833333  0.1666668  0.4586126  )
       146           N   tau( 146) = (  0.0833333  0.1666668  0.7919459  )
       147           N   tau( 147) = (  0.0833333  0.4166668  0.1252792  )
       148           N   tau( 148) = (  0.0833333  0.4166668  0.4586126  )
       149           N   tau( 149) = (  0.0833333  0.4166668  0.7919459  )
       150           N   tau( 150) = (  0.0833333  0.6666668  0.1252792  )
       151           N   tau( 151) = (  0.0833333  0.6666668  0.4586126  )
       152           N   tau( 152) = (  0.0833333  0.6666668  0.7919459  )
       153           N   tau( 153) = (  0.0833333  0.9166668  0.1252792  )
       154           N   tau( 154) = (  0.0833333  0.9166668  0.4586126  )
       155           N   tau( 155) = (  0.0833333  0.9166668  0.7919459  )
       156           N   tau( 156) = (  0.3333332  0.1666668  0.1252792  )
       157           N   tau( 157) = (  0.3333332  0.1666668  0.4586126  )
       158           N   tau( 158) = (  0.3333332  0.1666668  0.7919459  )
       159           N   tau( 159) = (  0.3333332  0.4166668  0.1252792  )
       160           N   tau( 160) = (  0.3333332  0.4166668  0.4586126  )
       161           N   tau( 161) = (  0.3333332  0.4166668  0.7919459  )
       162           N   tau( 162) = (  0.3333332  0.6666668  0.1252792  )
       163           N   tau( 163) = (  0.3333332  0.6666668  0.4586126  )
       164           N   tau( 164) = (  0.3333332  0.6666668  0.7919459  )
       165           N   tau( 165) = (  0.3333332  0.9166668  0.1252792  )
       166           N   tau( 166) = (  0.3333332  0.9166668  0.4586126  )
       167           N   tau( 167) = (  0.3333332  0.9166668  0.7919459  )
       168           N   tau( 168) = (  0.5833332  0.1666668  0.1252792  )
       169           N   tau( 169) = (  0.5833332  0.1666668  0.4586126  )
       170           N   tau( 170) = (  0.5833332  0.1666668  0.7919459  )
       171           N   tau( 171) = (  0.5833332  0.4166668  0.1252792  )
       172           N   tau( 172) = (  0.5833332  0.4166668  0.4586126  )
       173           N   tau( 173) = (  0.5833332  0.4166668  0.7919459  )
       174           N   tau( 174) = (  0.5833332  0.6666668  0.1252792  )
       175           N   tau( 175) = (  0.5833332  0.6666668  0.4586126  )
       176           N   tau( 176) = (  0.5833332  0.6666668  0.7919459  )
       177           N   tau( 177) = (  0.5833332  0.9166668  0.1252792  )
       178           N   tau( 178) = (  0.5833332  0.9166668  0.4586126  )
       179           N   tau( 179) = (  0.5833332  0.9166668  0.7919459  )
       180           N   tau( 180) = (  0.8333332  0.1666668  0.1252792  )
       181           N   tau( 181) = (  0.8333332  0.1666668  0.4586126  )
       182           N   tau( 182) = (  0.8333332  0.1666668  0.7919459  )
       183           N   tau( 183) = (  0.8333332  0.4166668  0.1252792  )
       184           N   tau( 184) = (  0.8333332  0.4166668  0.4586126  )
       185           N   tau( 185) = (  0.8333332  0.4166668  0.7919459  )
       186           N   tau( 186) = (  0.8333332  0.6666668  0.1252792  )
       187           N   tau( 187) = (  0.8333332  0.6666668  0.4586126  )
       188           N   tau( 188) = (  0.8333332  0.6666668  0.7919459  )
       189           N   tau( 189) = (  0.8333332  0.9166668  0.1252792  )
       190           N   tau( 190) = (  0.8333332  0.9166668  0.4586126  )
       191           N   tau( 191) = (  0.8333332  0.9166668  0.7919459  )
       192           N   tau( 192) = (  0.1666667  0.0833333  0.1663874  )

     number of k points=     4  Gaussian smearing, width (Ry)=  0.0100
                       cart. coord. in units 2pi/alat
        k(    1) = (   0.0000000   0.0000000   0.0000000), wk =   0.2500000
        k(    2) = (   0.0000000   0.0000000  -0.4090283), wk =   0.2500000
        k(    3) = (   0.0000000  -0.5773503   0.0000000), wk =   0.7500000
        k(    4) = (   0.0000000  -0.5773503  -0.4090283), wk =   0.7500000

                       cryst. coord.
        k(    1) = (   0.0000000   0.0000000   0.0000000), wk =   0.2500000
        k(    2) = (   0.0000000   0.0000000  -0.5000000), wk =   0.2500000
        k(    3) = (   0.0000000  -0.5000000   0.0000000), wk =   0.7500000
        k(    4) = (   0.0000000  -0.5000000  -0.5000000), wk =   0.7500000

     Dense  grid:  1726709 G-vectors     FFT dimensions: ( 160, 160, 180)

     Smooth grid:  1235535 G-vectors     FFT dimensions: ( 144, 144, 160)

     Dynamical RAM for                 wfc:      38.03 MB

     Dynamical RAM for     wfc (w. buffer):      38.03 MB

     Dynamical RAM for           str. fact:       0.82 MB

     Dynamical RAM for           local pot:       0.00 MB

     Dynamical RAM for          nlocal pot:      91.53 MB

     Dynamical RAM for                qrad:       3.00 MB

     Dynamical RAM for          rho,v,vnew:       2.99 MB

     Dynamical RAM for               rhoin:       1.00 MB

     Dynamical RAM for            rho*nmix:       6.59 MB

     Dynamical RAM for           G-vectors:       1.69 MB

     Dynamical RAM for          h,s,v(r/c):     781.56 MB

     Dynamical RAM for          <psi|beta>:      39.19 MB

     Dynamical RAM for                 psi:     152.14 MB

     Dynamical RAM for                hpsi:     152.14 MB

     Dynamical RAM for                spsi:     152.14 MB

     Dynamical RAM for      wfcinit/wfcrot:     100.50 MB

     Dynamical RAM for           addusdens:      29.44 MB

     Dynamical RAM for          addusforce:      49.47 MB

     Dynamical RAM for         addusstress:      20.84 MB

     Estimated static dynamical RAM per process >     143.24 MB

     Estimated max dynamical RAM per process >       1.39 GB

     Estimated total dynamical RAM >     355.51 GB

     Atomic positions and unit cell read from directory:
     ./GaN.save/
     Atomic positions from file used, from input discarded
 

     Check: negative core charge=   -0.000003

     The initial density is read from file :
     ./GaN.save/charge-density



     %%%%%%%%%%%%%%%%%%%%%%%%%%%%%%%%%%%%%%%%%%%%%%%%%%%%%%%%%%%%%%%%%%%%%%%%
     %                                                                      %
     % You are using vdW-DF, which was implemented by the Thonhauser group. %
     % Please cite the following two papers that made this development      %
     % possible and the two reviews that describe the various versions:     %
     %                                                                      %
     %   T. Thonhauser et al., PRL 115, 136402 (2015).                      %
     %   T. Thonhauser et al., PRB 76, 125112 (2007).                       %
     %   K. Berland et al., Rep. Prog. Phys. 78, 066501 (2015).             %
     %   D.C. Langreth et al., J. Phys.: Condens. Matter 21, 084203 (2009). %
     %                                                                      %
     % If you are calculating stress with vdW-DF, please also cite:         %
     %                                                                      %
     %   R. Sabatini et al., J. Phys.: Condens. Matter 24, 424209 (2012).   %
     %                                                                      %
     %%%%%%%%%%%%%%%%%%%%%%%%%%%%%%%%%%%%%%%%%%%%%%%%%%%%%%%%%%%%%%%%%%%%%%%%

     %%%%%%%%%%%%%%%%%%%%%%%%%%%%%%%%%%%%%%%%%%%%%%%%%%%%%%%%%%%%%%%%%%%%%%%%
     %                                                                      %
     %  vdW-DF NEWS:                                                        %
     %                                                                      %
     %  * vdW-DF3 is now available. DOI: 10.1021/acs.jctc.0c00471           %
     %    use with input_dft = 'vdW-DF3-opt1' or 'vdW-DF3-opt2'             %
     %                                                                      %
     %  * Unscreened and range-separated vdW-DF hybrid functionals          %
     %    DOI: 10.1063/1.4986522 and 10.1088/1361-648X/ac2ad2               %
     %    use with input_dft = 'vdW-DF-cx0' (etc) and 'vdW-DF-ahcx'         %
     %                                                                      %
     %%%%%%%%%%%%%%%%%%%%%%%%%%%%%%%%%%%%%%%%%%%%%%%%%%%%%%%%%%%%%%%%%%%%%%%%


     Carrying out vdW-DF run using the following parameters:
     Nqs    =  20  Npoints =  1024  r_max =  100.000
     q_mesh =  0.00001000  0.04494208  0.09755937  0.15916263
               0.23128650  0.31572767  0.41458969  0.53033537
               0.66584808  0.82450364  1.01025438  1.22772762
               1.48234092  1.78043706  2.12944203  2.53805004
               3.01644009  3.57652955  4.23227104  5.00000000


     -----------------------------------------------
     Non-local corr. energy    =      51.89599922 Ry
     -----------------------------------------------

     Starting wfcs from file
     Checking if some PAW data can be deallocated... 
       PAW data deallocated on   97 nodes for type:  1
       PAW data deallocated on  159 nodes for type:  2

     total cpu time spent up to now is       13.3 secs

     Self-consistent Calculation

     iteration #  1     ecut=    70.00 Ry     beta= 0.70
     Davidson diagonalization with overlap

---- Real-time Memory Report at c_bands before calling an iterative solver
           323 MiB given to the printing process from OS
             0 MiB allocation reported by mallinfo(arena+hblkhd)
        666781 MiB available memory on the node where the printing process lives
------------------
     ethr =  1.00E-05,  avg # of iterations =  1.0

     Threshold (ethr) on eigenvalues was too large:
     Diagonalizing with lowered threshold

     Davidson diagonalization with overlap

---- Real-time Memory Report at c_bands before calling an iterative solver
          1062 MiB given to the printing process from OS
             0 MiB allocation reported by mallinfo(arena+hblkhd)
        655283 MiB available memory on the node where the printing process lives
------------------
     ethr =  3.96E-14,  avg # of iterations = 16.5


     -----------------------------------------------
     Non-local corr. energy    =      51.89599860 Ry
     -----------------------------------------------


     total cpu time spent up to now is      514.4 secs

     End of self-consistent calculation

          k = 0.0000 0.0000 0.0000 (154543 PWs)   bands (ev):

    -9.3600  -6.9027  -6.7201  -6.7016  -6.6423  -6.6423  -6.6415  -6.6132
    -6.5941  -6.5941  -6.5698  -6.5557  -6.5557  -6.5243  -6.5021  -6.4995
    -6.4976  -6.4976  -6.4909  -6.4909  -6.4907  -6.4880  -6.4879  -6.4812
    -6.4732  -6.4732  -6.4654  -6.4654  -6.4589  -6.4493  -6.4490  -6.4483
    -6.4483  -6.4439  -6.4417  -6.4417  -6.4367  -6.4324  -6.4324  -6.4295
    -6.4169  -6.4160  -6.4160  -6.4124  -6.4124  -6.4112  -6.4112  -6.4111
    -6.4092  -6.4083  -6.4083  -6.4067  -6.4051  -6.4051  -6.4018  -6.4007
    -6.4007  -6.3965  -6.3965  -6.3953  -6.3933  -6.3933  -6.3902  -6.3901
    -6.3878  -6.3873  -6.3873  -6.3823  -6.3823  -6.3821  -6.3821  -6.3724
    -6.3718  -6.3718  -6.3713  -6.3630  -6.3630  -6.3613  -6.3613  -6.3584
    -6.3584  -6.3549  -6.3509  -6.3464  -6.3464  -6.3372  -6.3333  -6.3264
    -6.3264  -6.2998  -6.2998  -6.2697  -6.2023  -6.1935  -6.1935  -5.7926
    -5.5427  -5.4767  -5.4767  -5.4616  -5.4509  -5.4509  -5.4489  -5.4315
    -5.4315  -5.4162  -5.4136  -5.4136  -5.4112  -5.4112  -5.4089  -5.3903
    -5.3894  -5.3894  -5.3877  -5.3781  -5.3781  -5.3723  -5.3723  -5.3712
    -5.3605  -5.3605  -5.3556  -5.3542  -5.3542  -5.3513  -5.3498  -5.3462
    -5.3462  -5.3399  -5.3399  -5.3365  -5.3251  -5.3249  -5.3249  -5.3240
    -5.3237  -5.3237  -5.3200  -5.3200  -5.3153  -5.3132  -5.3132  -5.3102
    -5.3102  -5.3063  -5.3051  -5.3051  -5.3037  -5.3013  -5.3012  -5.2989
    -5.2989  -5.2985  -5.2974  -5.2933  -5.2933  -5.2914  -5.2914  -5.2909
    -5.2891  -5.2891  -5.2884  -5.2873  -5.2839  -5.2839  -5.2839  -5.2832
    -5.2827  -5.2827  -5.2785  -5.2785  -5.2760  -5.2758  -5.2758  -5.2726
    -5.2726  -5.2726  -5.2679  -5.2668  -5.2668  -5.2661  -5.2628  -5.2628
    -5.2626  -5.2596  -5.2591  -5.2586  -5.2586  -5.2567  -5.2567  -5.2541
    -5.2540  -5.2540  -5.2524  -5.2523  -5.2523  -5.2506  -5.2504  -5.2504
    -5.2498  -5.2498  -5.2483  -5.2479  -5.2479  -5.2476  -5.2451  -5.2451
    -5.2431  -5.2419  -5.2419  -5.2408  -5.2408  -5.2395  -5.2382  -5.2363
    -5.2363  -5.2334  -5.2334  -5.2309  -5.2309  -5.2301  -5.2301  -5.2291
    -5.2275  -5.2275  -5.2266  -5.2248  -5.2232  -5.2232  -5.2228  -5.2182
    -5.2182  -5.2175  -5.2146  -5.2137  -5.2137  -5.2104  -5.2104  -5.2082
    -5.2080  -5.2074  -5.2073  -5.2073  -5.2055  -5.2055  -5.2047  -5.2047
    -5.2025  -5.2025  -5.2021  -5.1999  -5.1984  -5.1984  -5.1983  -5.1961
    -5.1920  -5.1920  -5.1911  -5.1909  -5.1908  -5.1889  -5.1889  -5.1876
    -5.1872  -5.1872  -5.1867  -5.1851  -5.1851  -5.1845  -5.1838  -5.1831
    -5.1831  -5.1816  -5.1806  -5.1799  -5.1799  -5.1759  -5.1757  -5.1757
    -5.1738  -5.1721  -5.1721  -5.1720  -5.1709  -5.1709  -5.1691  -5.1691
    -5.1669  -5.1653  -5.1653  -5.1637  -5.1637  -5.1636  -5.1630  -5.1630
    -5.1620  -5.1618  -5.1607  -5.1592  -5.1592  -5.1565  -5.1565  -5.1562
    -5.1549  -5.1535  -5.1535  -5.1529  -5.1506  -5.1506  -5.1504  -5.1504
    -5.1486  -5.1481  -5.1476  -5.1468  -5.1467  -5.1467  -5.1453  -5.1453
    -5.1431  -5.1431  -5.1419  -5.1411  -5.1409  -5.1409  -5.1388  -5.1388
    -5.1379  -5.1369  -5.1369  -5.1363  -5.1336  -5.1336  -5.1336  -5.1324
    -5.1324  -5.1322  -5.1319  -5.1303  -5.1303  -5.1286  -5.1284  -5.1284
    -5.1265  -5.1265  -5.1253  -5.1253  -5.1243  -5.1238  -5.1238  -5.1202
    -5.1202  -5.1201  -5.1180  -5.1180  -5.1167  -5.1154  -5.1154  -5.1151
    -5.1127  -5.1127  -5.1122  -5.1121  -5.1113  -5.1082  -5.1075  -5.1065
    -5.1065  -5.1051  -5.1051  -5.1048  -5.1046  -5.1037  -5.1037  -5.1016
    -5.1016  -5.1012  -5.1010  -5.0997  -5.0997  -5.0983  -5.0983  -5.0967
    -5.0958  -5.0958  -5.0957  -5.0944  -5.0924  -5.0924  -5.0914  -5.0914
    -5.0898  -5.0871  -5.0855  -5.0855  -5.0835  -5.0835  -5.0831  -5.0796
    -5.0796  -5.0786  -5.0776  -5.0776  -5.0775  -5.0750  -5.0750  -5.0716
    -5.0716  -5.0692  -5.0669  -5.0669  -5.0656  -5.0651  -5.0625  -5.0625
    -5.0604  -5.0580  -5.0580  -5.0554  -5.0549  -5.0543  -5.0522  -5.0522
    -5.0502  -5.0502  -5.0496  -5.0489  -5.0489  -5.0447  -5.0447  -5.0416
    -5.0407  -5.0384  -5.0384  -5.0359  -5.0359  -5.0294  -5.0294  -5.0288
    -5.0288  -5.0231  -5.0202  -5.0202  -5.0187  -5.0090  -5.0062  -5.0062
    -5.0052  -4.9940  -4.9940  -4.9932  -4.9888  -4.9888  -4.9847  -4.9847
    -4.9786  -4.9786  -4.9659  -4.9659  -4.9486  -4.9401  -4.9400  -4.9395
    -4.9363  -4.9260  -4.9260  -4.9106  -4.8767  -4.8666  -4.8666  -4.8502
    -4.8502  -4.8487  -4.8206  -4.8206  -4.8126  -4.7825  -4.7825  -4.7025
    -4.7012  -4.7012  -4.6835  -4.6835  -4.6581  -4.6515  -4.6487  -4.6487
    -4.6437  -4.6246  -4.6246  -4.6053  -4.6053  -4.5900  -4.5900  -4.5638
    -4.3989  -4.3165  -4.2688  -4.2688  -4.2335  -3.8569  -3.8569  -3.8455
    -3.8394  -3.8394  -3.8344  -3.8299  -3.8299  -3.8290  -3.8269  -3.8269
    -3.8123  -3.8081  -3.8081  -3.7628  -3.7628  -3.7415  -3.7103  -3.6618
    -3.6618  -3.6546  -3.6546  -3.6442  -3.6408  -3.6325  -3.6325  -3.6150
    -3.6150  -3.6030  -3.5931  -3.5760  -3.5759  -3.5704  -3.5452  -3.5074
    -3.5074  -3.4746  -3.3624  -3.3624  -3.2646  -3.2492  -3.2349  -3.2349
    -3.2287  -3.2286  -3.2073  -3.1956  -3.1956  -3.1920  -3.1823  -3.1823
    -3.1755  -3.1721  -3.1721  -3.1638  -3.1638  -3.1404  -3.1392  -3.1366
    -3.1366  -3.0692  -3.0412  -3.0412  -2.9375  -2.8839  -2.8839  -2.8659
    -2.8628  -2.8628  -2.3614  -1.3331   2.0218   2.1696   2.1697   2.2478
     2.2479   2.2500   2.3082   2.4264   2.4265   2.5205   2.5205   2.5383
     2.6435   2.7243   2.7243   2.7289   2.7510   2.7510   2.7840   2.7841
     2.7998   2.8112   2.8227   2.8228   2.8340   2.8341   2.8410   2.8493
     2.8493   2.8597   2.8754   2.8755   2.8958   3.0324   3.0324   3.0493
     3.1414   3.1414   3.1488   3.1625   3.1626   3.2125   3.2814   3.2814
     3.2822   3.2980   3.2980   3.3271   3.3328   3.3328   3.3583   3.4033
     3.4051   3.4051   3.5193   3.5343   3.5458   3.5511   3.5511   3.5546
     3.5547   3.5670   3.5742   3.5801   3.5801   3.6084   3.6084   3.7009
     3.7139   3.7139   3.8005   3.8006   3.8017   3.8673   4.0767   4.0767
     4.5935   4.6048   4.7668   4.7669   4.8073   4.8498   4.8498   4.8540
     4.8577   4.8579   4.8580   4.8691   4.8691   4.8807   4.8807   4.8893
     4.9105   4.9292   4.9292   4.9391   4.9394   4.9394   4.9421   4.9422
     4.9424   4.9573   4.9573   4.9711   4.9711   4.9788   5.0730   5.0730
     5.0798   5.1030   5.1287   5.1310   5.1311   5.1460   5.1460   5.1462
     5.1668   5.1668   5.1827   5.4747   5.4747   5.6302   5.7558   5.8408
     5.8440   5.8441   5.8715   5.8716   5.8886   5.8911   5.9032   5.9032
     5.9146   5.9208   5.9208   5.9430   5.9430   5.9627   5.9628   6.0059
     6.0454   6.0481   6.0481   6.0486   6.0596   6.0630   6.0630   6.0765
     6.0765   6.0806   6.0867   6.0867   6.0919   6.0919   6.1262   6.1422
     6.1422   6.1592   6.2593   6.2735   6.2735   6.3451   6.3451   6.3690
     6.3691   6.3810   6.3810   6.3867   6.4018   6.4018   6.4146   6.4268
     6.4268   6.5078   6.5091   6.5149   6.5149   6.5532   6.6433   6.6433
     6.6980   6.6981   6.7224   6.7476   6.7578   6.7578   6.7703   6.8195
     6.8196   6.8346   6.8427   6.8428   6.8740   6.8884   6.8884   6.9202
     6.9202   6.9481   7.0309   7.0310   7.0498   7.1454   7.1501   7.1501
     7.1670   7.1718   7.1719   7.1725   7.1725   7.1782   7.2140   7.2162
     7.2190   7.2190   7.2474   7.2585   7.2586   7.2854   7.2854   7.3032
     7.3212   7.3212   7.3479   7.3524   7.4136   7.4136   7.4235   7.4235
     7.4334   7.4334   7.4452   7.4667   7.4715   7.5100   7.5100   7.5462
     7.5639   7.5640   7.5733   7.5733   7.5738   7.5791   7.5846   7.5846
     7.6160   7.6160   7.6796   7.6796   7.7491   7.7491   7.7817   7.8147
     7.8147   7.8394   7.8394   7.8409   7.8558   7.8558   7.8582   7.8618
     7.9126   7.9127   7.9142   7.9638   7.9639   7.9694   8.0048   8.0048
     8.0401   8.0418   8.0418   8.0930   8.0930   8.2361   8.2361   8.2385
     8.2693   8.2733   8.2734   8.4328   8.4329   8.4748   8.5060   8.5061
     8.7427   8.7428   8.9465   9.8342  10.2287  11.2945  11.9632  12.1393
    12.1797  12.1797  12.6048  12.6049  12.6261  12.6591  12.7122  12.7596
    12.7596  12.7711  12.8006  12.8082  12.8083  12.8541  12.9215  12.9216
    12.9281  12.9915  12.9915  13.0350  13.0350  13.0481  13.0528  13.0627
    13.0627  13.2229  13.3076  13.4986  13.4986  13.6218  13.6219  13.6740
    13.7357  13.7358  13.7650  13.8302  13.8303  13.8892  13.9489  14.0101
    14.0102  14.1181  14.1182  14.1684  14.1684  14.1782  14.2475  14.2668
    14.2668  14.2867  14.2867  14.2964  14.3022  14.3023  14.3076  14.3220
    14.3220  14.3361  14.3519  14.3519  14.3537  14.3755  14.3756  14.3794
    14.3947  14.3947  14.4191  14.5439  14.5439  14.5641  14.6292  14.6880
    14.6880  14.7059  14.7070  14.7145  14.7246  14.7246  14.7743  14.7743
    14.7840  14.7840  14.7965  14.8246  14.8246  14.8274  14.8506  14.8506
    14.8669  14.8989  14.9029  14.9029  14.9648  15.0900  15.0900  15.4225
    15.4247  15.4247  15.6177  15.6611  15.6611  15.7675  15.8024  15.8024
    15.8347  15.8347  15.8383  15.8555  15.8753  15.8753  15.9304  15.9452
    15.9452  15.9525  15.9624  15.9624  15.9883  16.0097  16.0097  16.0445
    16.0554  16.0554  16.0818  16.0818  16.1467  16.1468  16.1469  16.2169
    16.2226  16.2606  16.2606  16.2813  16.2884  16.2884  16.3023  16.3023
    16.3141  16.3600  16.3600  16.3937  16.3937  16.3982  16.4020  16.4165
    16.4183  16.4183  16.4381  16.4381  16.4535  16.4601  16.4618  16.4630
    16.4630  16.4717  16.4717  16.4797  16.4836  16.4888  16.4888  16.5045
    16.5046  16.5139  16.5252  16.5252  16.5554  16.5554  16.5579  16.5903
    16.5903

     occupation numbers 
     1.0000   1.0000   1.0000   1.0000   1.0000   1.0000   1.0000   1.0000
     1.0000   1.0000   1.0000   1.0000   1.0000   1.0000   1.0000   1.0000
     1.0000   1.0000   1.0000   1.0000   1.0000   1.0000   1.0000   1.0000
     1.0000   1.0000   1.0000   1.0000   1.0000   1.0000   1.0000   1.0000
     1.0000   1.0000   1.0000   1.0000   1.0000   1.0000   1.0000   1.0000
     1.0000   1.0000   1.0000   1.0000   1.0000   1.0000   1.0000   1.0000
     1.0000   1.0000   1.0000   1.0000   1.0000   1.0000   1.0000   1.0000
     1.0000   1.0000   1.0000   1.0000   1.0000   1.0000   1.0000   1.0000
     1.0000   1.0000   1.0000   1.0000   1.0000   1.0000   1.0000   1.0000
     1.0000   1.0000   1.0000   1.0000   1.0000   1.0000   1.0000   1.0000
     1.0000   1.0000   1.0000   1.0000   1.0000   1.0000   1.0000   1.0000
     1.0000   1.0000   1.0000   1.0000   1.0000   1.0000   1.0000   1.0000
     1.0000   1.0000   1.0000   1.0000   1.0000   1.0000   1.0000   1.0000
     1.0000   1.0000   1.0000   1.0000   1.0000   1.0000   1.0000   1.0000
     1.0000   1.0000   1.0000   1.0000   1.0000   1.0000   1.0000   1.0000
     1.0000   1.0000   1.0000   1.0000   1.0000   1.0000   1.0000   1.0000
     1.0000   1.0000   1.0000   1.0000   1.0000   1.0000   1.0000   1.0000
     1.0000   1.0000   1.0000   1.0000   1.0000   1.0000   1.0000   1.0000
     1.0000   1.0000   1.0000   1.0000   1.0000   1.0000   1.0000   1.0000
     1.0000   1.0000   1.0000   1.0000   1.0000   1.0000   1.0000   1.0000
     1.0000   1.0000   1.0000   1.0000   1.0000   1.0000   1.0000   1.0000
     1.0000   1.0000   1.0000   1.0000   1.0000   1.0000   1.0000   1.0000
     1.0000   1.0000   1.0000   1.0000   1.0000   1.0000   1.0000   1.0000
     1.0000   1.0000   1.0000   1.0000   1.0000   1.0000   1.0000   1.0000
     1.0000   1.0000   1.0000   1.0000   1.0000   1.0000   1.0000   1.0000
     1.0000   1.0000   1.0000   1.0000   1.0000   1.0000   1.0000   1.0000
     1.0000   1.0000   1.0000   1.0000   1.0000   1.0000   1.0000   1.0000
     1.0000   1.0000   1.0000   1.0000   1.0000   1.0000   1.0000   1.0000
     1.0000   1.0000   1.0000   1.0000   1.0000   1.0000   1.0000   1.0000
     1.0000   1.0000   1.0000   1.0000   1.0000   1.0000   1.0000   1.0000
     1.0000   1.0000   1.0000   1.0000   1.0000   1.0000   1.0000   1.0000
     1.0000   1.0000   1.0000   1.0000   1.0000   1.0000   1.0000   1.0000
     1.0000   1.0000   1.0000   1.0000   1.0000   1.0000   1.0000   1.0000
     1.0000   1.0000   1.0000   1.0000   1.0000   1.0000   1.0000   1.0000
     1.0000   1.0000   1.0000   1.0000   1.0000   1.0000   1.0000   1.0000
     1.0000   1.0000   1.0000   1.0000   1.0000   1.0000   1.0000   1.0000
     1.0000   1.0000   1.0000   1.0000   1.0000   1.0000   1.0000   1.0000
     1.0000   1.0000   1.0000   1.0000   1.0000   1.0000   1.0000   1.0000
     1.0000   1.0000   1.0000   1.0000   1.0000   1.0000   1.0000   1.0000
     1.0000   1.0000   1.0000   1.0000   1.0000   1.0000   1.0000   1.0000
     1.0000   1.0000   1.0000   1.0000   1.0000   1.0000   1.0000   1.0000
     1.0000   1.0000   1.0000   1.0000   1.0000   1.0000   1.0000   1.0000
     1.0000   1.0000   1.0000   1.0000   1.0000   1.0000   1.0000   1.0000
     1.0000   1.0000   1.0000   1.0000   1.0000   1.0000   1.0000   1.0000
     1.0000   1.0000   1.0000   1.0000   1.0000   1.0000   1.0000   1.0000
     1.0000   1.0000   1.0000   1.0000   1.0000   1.0000   1.0000   1.0000
     1.0000   1.0000   1.0000   1.0000   1.0000   1.0000   1.0000   1.0000
     1.0000   1.0000   1.0000   1.0000   1.0000   1.0000   1.0000   1.0000
     1.0000   1.0000   1.0000   1.0000   1.0000   1.0000   1.0000   1.0000
     1.0000   1.0000   1.0000   1.0000   1.0000   1.0000   1.0000   1.0000
     1.0000   1.0000   1.0000   1.0000   1.0000   1.0000   1.0000   1.0000
     1.0000   1.0000   1.0000   1.0000   1.0000   1.0000   1.0000   1.0000
     1.0000   1.0000   1.0000   1.0000   1.0000   1.0000   1.0000   1.0000
     1.0000   1.0000   1.0000   1.0000   1.0000   1.0000   1.0000   1.0000
     1.0000   1.0000   1.0000   1.0000   1.0000   1.0000   1.0000   1.0000
     1.0000   1.0000   1.0000   1.0000   1.0000   1.0000   1.0000   1.0000
     1.0000   1.0000   1.0000   1.0000   1.0000   1.0000   1.0000   1.0000
     1.0000   1.0000   1.0000   1.0000   1.0000   1.0000   1.0000   1.0000
     1.0000   1.0000   1.0000   1.0000   1.0000   1.0000   1.0000   1.0000
     1.0000   1.0000   1.0000   1.0000   1.0000   1.0000   1.0000   1.0000
     1.0000   1.0000   1.0000   1.0000   1.0000   1.0000   1.0000   1.0000
     1.0000   1.0000   1.0000   1.0000   1.0000   1.0000   1.0000   1.0000
     1.0000   1.0000   1.0000   1.0000   1.0000   1.0000   1.0000   1.0000
     1.0000   1.0000   1.0000   1.0000   1.0000   1.0000   1.0000   1.0000
     1.0000   1.0000   1.0000   1.0000   1.0000   1.0000   1.0000   1.0000
     1.0000   1.0000   1.0000   1.0000   1.0000   1.0000   1.0000   1.0000
     1.0000   1.0000   1.0000   1.0000   1.0000   1.0000   1.0000   1.0000
     1.0000   1.0000   1.0000   1.0000   1.0000   1.0000   1.0000   1.0000
     1.0000   1.0000   1.0000   1.0000   1.0000   1.0000   1.0000   1.0000
     1.0000   1.0000   1.0000   1.0000   1.0000   1.0000   1.0000   1.0000
     1.0000   1.0000   1.0000   1.0000   1.0000   1.0000   1.0000   1.0000
     1.0000   1.0000   1.0000   1.0000   1.0000   1.0000   1.0000   1.0000
     1.0000   1.0000   1.0000   1.0000   1.0000   1.0000   1.0000   1.0000
     1.0000   1.0000   1.0000   1.0000   1.0000   1.0000   1.0000   1.0000
     1.0000   1.0000   1.0000   1.0000   1.0000   1.0000   1.0000   1.0000
     1.0000   1.0000   1.0000   1.0000   1.0000   1.0000   1.0000   1.0000
     1.0000   1.0000   1.0000   1.0000   1.0000   1.0000   1.0000   1.0000
     1.0000   1.0000   1.0000   1.0000   1.0000   1.0000   1.0000   1.0000
     1.0000   1.0000   1.0000   1.0000   1.0000   1.0000   1.0000   1.0000
     1.0000   1.0000   1.0000   1.0000   1.0000   1.0000   1.0000   1.0000
     1.0000   1.0000   1.0000   1.0000   1.0000   1.0000   1.0000   1.0000
     1.0000   1.0000   1.0000   1.0000   1.0000   1.0000   1.0000   1.0000
     1.0000   1.0000   1.0000   1.0000   1.0000   1.0000   1.0000   1.0000
     1.0000   1.0000   1.0000   1.0000   1.0000   1.0000   1.0000   1.0000
     1.0000   1.0000   1.0000   1.0000   1.0000   1.0000   1.0000   1.0000
     1.0000   1.0000   1.0000   1.0000   1.0000   1.0000   1.0000   1.0000
     1.0000   1.0000   1.0000   1.0000   1.0000   1.0000   1.0000   1.0000
     1.0000   1.0000   1.0000   1.0000   1.0000   1.0000   1.0000   1.0000
     1.0000   1.0000   1.0000   1.0000   1.0000   1.0000   1.0000   1.0000
     1.0000   1.0000   1.0000   1.0000   1.0000   1.0000   1.0000   1.0000
     1.0000   1.0000   1.0000   1.0000   1.0000   1.0000   1.0000   1.0000
     1.0000   1.0000   1.0000   1.0000   1.0000   1.0000   1.0000   1.0000
     1.0000   1.0000   1.0000   1.0000   1.0000   1.0000   1.0000   1.0000
     1.0000   1.0000   1.0000   1.0000   1.0000   1.0000   1.0000   1.0000
     1.0000   1.0000   1.0000   1.0000   1.0000   1.0000   1.0000   1.0000
     1.0000   1.0000   1.0000   1.0000   1.0000   1.0000   1.0000   1.0000
     1.0000   1.0000   1.0000   1.0000   1.0000   1.0000   1.0000   1.0000
     1.0000   1.0000   1.0000   1.0000   1.0000   1.0000   1.0000   1.0000
     1.0000   1.0000   1.0000   1.0000   1.0000   1.0000   1.0000   1.0000
     1.0000   1.0000   1.0000   1.0000   1.0000   1.0000   1.0000   1.0000
     1.0000   1.0000   1.0000   1.0000   1.0000   1.0000   1.0000   1.0000
     1.0000   1.0000   1.0000   1.0000   1.0000   1.0000   1.0000   1.0000
     1.0000   1.0000   1.0000   1.0000   1.0000   1.0000   1.0000   1.0000
     1.0000   1.0000   1.0000   1.0000   1.0000   1.0000   1.0000   1.0000
     1.0000   1.0000   1.0000   1.0000   1.0000   1.0000   1.0000   1.0000
     1.0000   1.0000   1.0000   1.0000   1.0000   1.0000   1.0000   1.0000
     1.0000   1.0000   1.0000   1.0000   1.0000   1.0000   1.0000   1.0000
     1.0000   1.0000   1.0000   1.0000   1.0000   0.0485   0.0000   0.0000
     0.0000   0.0000   0.0000   0.0000   0.0000   0.0000   0.0000   0.0000
     0.0000   0.0000   0.0000   0.0000   0.0000   0.0000   0.0000   0.0000
     0.0000   0.0000   0.0000   0.0000   0.0000   0.0000   0.0000   0.0000
     0.0000   0.0000   0.0000   0.0000   0.0000   0.0000   0.0000   0.0000
     0.0000   0.0000   0.0000   0.0000   0.0000   0.0000   0.0000   0.0000
     0.0000   0.0000   0.0000   0.0000   0.0000   0.0000   0.0000   0.0000
     0.0000   0.0000   0.0000   0.0000   0.0000   0.0000   0.0000   0.0000
     0.0000   0.0000   0.0000   0.0000   0.0000   0.0000   0.0000   0.0000
     0.0000   0.0000   0.0000   0.0000   0.0000   0.0000   0.0000   0.0000
     0.0000   0.0000   0.0000   0.0000   0.0000   0.0000   0.0000   0.0000
     0.0000   0.0000   0.0000   0.0000   0.0000   0.0000   0.0000   0.0000
     0.0000   0.0000   0.0000   0.0000   0.0000   0.0000   0.0000   0.0000
     0.0000   0.0000   0.0000   0.0000   0.0000   0.0000   0.0000   0.0000
     0.0000   0.0000   0.0000   0.0000   0.0000   0.0000   0.0000   0.0000
     0.0000   0.0000   0.0000   0.0000   0.0000   0.0000   0.0000   0.0000
     0.0000   0.0000   0.0000   0.0000   0.0000   0.0000   0.0000   0.0000
     0.0000   0.0000   0.0000   0.0000   0.0000   0.0000   0.0000   0.0000
     0.0000   0.0000   0.0000   0.0000   0.0000   0.0000   0.0000   0.0000
     0.0000   0.0000   0.0000   0.0000   0.0000   0.0000   0.0000   0.0000
     0.0000   0.0000   0.0000   0.0000   0.0000   0.0000   0.0000   0.0000
     0.0000   0.0000   0.0000   0.0000   0.0000   0.0000   0.0000   0.0000
     0.0000

          k = 0.0000 0.0000-0.4090 (154532 PWs)   bands (ev):

    -9.3600  -6.8668  -6.8186  -6.6612  -6.6354  -6.6354  -6.6171  -6.5758
    -6.5757  -6.5725  -6.5648  -6.5641  -6.5641  -6.5530  -6.5442  -6.5442
    -6.5371  -6.5136  -6.5096  -6.5096  -6.4920  -6.4707  -6.4707  -6.4598
    -6.4528  -6.4528  -6.4480  -6.4477  -6.4477  -6.4471  -6.4460  -6.4460
    -6.4430  -6.4383  -6.4367  -6.4363  -6.4363  -6.4319  -6.4304  -6.4304
    -6.4236  -6.4223  -6.4223  -6.4193  -6.4193  -6.4173  -6.4126  -6.4126
    -6.4113  -6.4113  -6.4093  -6.4087  -6.4079  -6.4079  -6.4024  -6.4024
    -6.3990  -6.3990  -6.3971  -6.3964  -6.3913  -6.3913  -6.3886  -6.3872
    -6.3872  -6.3864  -6.3852  -6.3852  -6.3829  -6.3829  -6.3816  -6.3723
    -6.3714  -6.3714  -6.3704  -6.3636  -6.3636  -6.3598  -6.3597  -6.3575
    -6.3575  -6.3551  -6.3480  -6.3471  -6.3471  -6.3375  -6.3335  -6.3264
    -6.3264  -6.3000  -6.3000  -6.2697  -6.2023  -6.1933  -6.1933  -5.7926
    -5.5427  -5.4767  -5.4767  -5.4616  -5.4508  -5.4508  -5.4489  -5.4314
    -5.4314  -5.4162  -5.4136  -5.4136  -5.4112  -5.4112  -5.4088  -5.3893
    -5.3893  -5.3880  -5.3877  -5.3781  -5.3781  -5.3724  -5.3724  -5.3712
    -5.3606  -5.3606  -5.3556  -5.3542  -5.3542  -5.3510  -5.3461  -5.3461
    -5.3446  -5.3398  -5.3398  -5.3363  -5.3245  -5.3245  -5.3234  -5.3234
    -5.3234  -5.3206  -5.3201  -5.3201  -5.3149  -5.3117  -5.3117  -5.3101
    -5.3101  -5.3067  -5.3051  -5.3051  -5.3034  -5.3012  -5.3012  -5.3002
    -5.3001  -5.2993  -5.2993  -5.2939  -5.2939  -5.2928  -5.2925  -5.2920
    -5.2920  -5.2909  -5.2897  -5.2897  -5.2885  -5.2885  -5.2874  -5.2868
    -5.2828  -5.2828  -5.2786  -5.2786  -5.2772  -5.2768  -5.2768  -5.2728
    -5.2728  -5.2722  -5.2705  -5.2688  -5.2688  -5.2662  -5.2650  -5.2648
    -5.2648  -5.2628  -5.2628  -5.2627  -5.2592  -5.2585  -5.2585  -5.2571
    -5.2553  -5.2553  -5.2517  -5.2514  -5.2509  -5.2509  -5.2493  -5.2493
    -5.2480  -5.2470  -5.2470  -5.2459  -5.2457  -5.2457  -5.2439  -5.2439
    -5.2426  -5.2396  -5.2396  -5.2374  -5.2374  -5.2366  -5.2344  -5.2344
    -5.2343  -5.2332  -5.2305  -5.2305  -5.2290  -5.2268  -5.2256  -5.2256
    -5.2249  -5.2249  -5.2249  -5.2249  -5.2245  -5.2218  -5.2213  -5.2213
    -5.2178  -5.2178  -5.2168  -5.2139  -5.2139  -5.2129  -5.2129  -5.2076
    -5.2076  -5.2073  -5.2070  -5.2054  -5.2054  -5.2049  -5.2039  -5.2039
    -5.2034  -5.2003  -5.2003  -5.1991  -5.1990  -5.1990  -5.1982  -5.1974
    -5.1965  -5.1965  -5.1936  -5.1936  -5.1936  -5.1932  -5.1930  -5.1897
    -5.1896  -5.1890  -5.1890  -5.1881  -5.1878  -5.1866  -5.1864  -5.1864
    -5.1857  -5.1857  -5.1839  -5.1829  -5.1799  -5.1799  -5.1783  -5.1783
    -5.1769  -5.1759  -5.1759  -5.1745  -5.1716  -5.1715  -5.1715  -5.1699
    -5.1699  -5.1694  -5.1685  -5.1685  -5.1676  -5.1646  -5.1646  -5.1625
    -5.1625  -5.1611  -5.1604  -5.1597  -5.1597  -5.1568  -5.1568  -5.1568
    -5.1553  -5.1549  -5.1545  -5.1545  -5.1531  -5.1531  -5.1514  -5.1499
    -5.1489  -5.1489  -5.1468  -5.1468  -5.1463  -5.1463  -5.1451  -5.1444
    -5.1424  -5.1424  -5.1408  -5.1403  -5.1403  -5.1395  -5.1392  -5.1370
    -5.1370  -5.1361  -5.1361  -5.1349  -5.1349  -5.1333  -5.1324  -5.1306
    -5.1306  -5.1304  -5.1292  -5.1292  -5.1279  -5.1279  -5.1268  -5.1268
    -5.1251  -5.1237  -5.1237  -5.1233  -5.1217  -5.1216  -5.1216  -5.1200
    -5.1200  -5.1183  -5.1183  -5.1171  -5.1153  -5.1153  -5.1122  -5.1122
    -5.1122  -5.1115  -5.1109  -5.1109  -5.1089  -5.1078  -5.1066  -5.1066
    -5.1058  -5.1057  -5.1051  -5.1051  -5.1031  -5.1031  -5.1019  -5.1011
    -5.1011  -5.0995  -5.0995  -5.0988  -5.0979  -5.0979  -5.0962  -5.0961
    -5.0946  -5.0946  -5.0946  -5.0920  -5.0920  -5.0911  -5.0911  -5.0906
    -5.0882  -5.0856  -5.0856  -5.0831  -5.0831  -5.0824  -5.0804  -5.0804
    -5.0790  -5.0783  -5.0783  -5.0783  -5.0750  -5.0750  -5.0712  -5.0712
    -5.0691  -5.0668  -5.0664  -5.0664  -5.0655  -5.0626  -5.0626  -5.0599
    -5.0575  -5.0575  -5.0566  -5.0551  -5.0538  -5.0522  -5.0522  -5.0513
    -5.0513  -5.0504  -5.0490  -5.0490  -5.0446  -5.0446  -5.0421  -5.0405
    -5.0387  -5.0387  -5.0361  -5.0361  -5.0295  -5.0295  -5.0285  -5.0285
    -5.0232  -5.0209  -5.0204  -5.0204  -5.0090  -5.0083  -5.0062  -5.0061
    -4.9940  -4.9940  -4.9932  -4.9884  -4.9884  -4.9815  -4.9815  -4.9765
    -4.9765  -4.9645  -4.9645  -4.9486  -4.9425  -4.9400  -4.9400  -4.9363
    -4.9252  -4.9143  -4.9143  -4.8750  -4.8604  -4.8604  -4.8552  -4.8552
    -4.8487  -4.8447  -4.8293  -4.8293  -4.8238  -4.8146  -4.7957  -4.7957
    -4.7665  -4.7665  -4.7624  -4.7566  -4.7566  -4.7029  -4.6751  -4.6751
    -4.6515  -4.6201  -4.6201  -4.5648  -4.4337  -4.4337  -4.3097  -4.3055
    -4.3055  -4.3037  -4.2898  -4.2898  -4.2669  -4.2669  -4.2149  -4.1495
    -4.1495  -4.0216  -3.8229  -3.8217  -3.8217  -3.8115  -3.7701  -3.7606
    -3.7606  -3.7548  -3.7548  -3.7461  -3.7312  -3.7213  -3.7213  -3.7073
    -3.6238  -3.6156  -3.6156  -3.5285  -3.5285  -3.5076  -3.4421  -3.4421
    -3.4306  -3.4273  -3.4273  -3.4243  -3.4243  -3.4226  -3.4202  -3.4202
    -3.4162  -3.4076  -3.4075  -3.4040  -3.3983  -3.3982  -3.3975  -3.3861
    -3.3853  -3.3852  -3.3716  -3.3648  -3.3648  -3.3260  -3.3260  -3.3107
    -3.2061  -3.1676  -3.1676  -3.1114  -3.0729  -3.0728  -3.0595  -3.0440
    -3.0440  -2.9954  -2.9954  -2.9792  -2.9510  -2.9386  -2.9386  -2.9194
    -2.8802  -2.8802  -2.3649  -1.3336   2.1980   2.1980   2.3382   2.3383
     2.3395   2.3538   2.3946   2.3947   2.4003   2.4328   2.4328   2.4362
     2.4921   2.5213   2.5870   2.5870   2.7714   2.8937   2.8937   2.9226
     2.9265   2.9265   2.9409   2.9513   2.9513   2.9637   2.9637   2.9688
     2.9699   2.9769   2.9769   2.9813   2.9813   2.9856   2.9868   2.9933
     2.9933   3.0001   3.0001   3.0065   3.0099   3.0099   3.0157   3.0157
     3.0390   3.0515   3.0515   3.0600   3.1505   3.1845   3.1845   3.2847
     3.3339   3.3340   3.3358   3.4500   3.4500   3.5663   3.6254   3.6255
     3.6437   3.6499   3.6499   3.6895   3.7065   3.7066   3.7096   3.9158
     3.9158   4.0918   4.2023   4.2125   4.2126   4.2176   4.2300   4.2300
     4.2354   4.2354   4.2539   4.3773   4.3773   4.7019   4.7901   4.9127
     4.9127   4.9224   4.9331   4.9339   4.9340   4.9509   4.9581   4.9582
     4.9880   4.9960   5.0126   5.0126   5.0491   5.0640   5.0640   5.0809
     5.0900   5.0915   5.0915   5.1146   5.1147   5.1373   5.1402   5.1402
     5.2012   5.2013   5.2337   5.2451   5.2451   5.3088   5.3684   5.3684
     5.3899   5.4113   5.4113   5.4338   5.4338   5.4346   5.4724   5.4943
     5.4943   5.5092   5.5486   5.5564   5.5565   5.5586   5.5596   5.5730
     5.5730   5.5893   5.5893   5.5984   5.6189   5.6189   5.6237   5.6451
     5.6451   5.6514   5.6837   5.6838   5.7379   5.7379   5.7665   5.9457
     5.9457   6.2225   6.2367   6.2367   6.2917   6.3553   6.3554   6.4585
     6.5307   6.5476   6.5476   6.5658   6.5875   6.5875   6.5894   6.6006
     6.6058   6.6059   6.6784   6.6784   6.7485   6.7526   6.7526   6.7569
     6.7613   6.7613   6.7688   6.7688   6.7888   6.7983   6.7984   6.8456
     6.8456   6.8714   6.8759   6.8888   6.8888   6.8925   6.8925   6.8926
     6.8993   6.8994   6.9050   6.9051   6.9220   6.9278   6.9293   6.9449
     6.9449   6.9560   6.9560   6.9652   6.9656   6.9657   6.9833   6.9853
     6.9906   7.0116   7.0116   7.0695   7.0695   7.0752   7.1184   7.1184
     7.1289   7.1289   7.1463   7.1512   7.1512   7.1543   7.1609   7.1609
     7.1689   7.1777   7.1853   7.1853   7.1984   7.1984   7.2161   7.2955
     7.3446   7.3446   7.3773   7.3773   7.3887   7.4891   7.4896   7.4901
     7.4902   7.4960   7.4960   7.5082   7.5527   7.5577   7.5577   7.6153
     7.6153   7.6431   7.6876   7.6881   7.6882   7.7475   7.7476   7.8174
     7.8300   7.8301   7.8437   7.9348   7.9348   7.9662   7.9663   7.9770
     7.9892   7.9976   7.9976   8.0402   8.0402   8.0811   8.0833   8.0833
     8.0966   8.0966   8.0991   8.1409   8.1579   8.1579   8.1600   8.1797
     8.1797   8.1844   8.2158   8.2159   8.3009   8.3010   8.6100   8.6101
     8.7135   8.7136   8.7786   9.9159  10.7187  10.9950  11.5893  12.1837
    12.1837  12.5885  12.6279  12.6279  12.6358  12.6598  12.7153  12.7230
    12.7230  12.7303  12.7411  12.7411  12.7746  12.8187  12.8680  12.9863
    12.9863  13.0357  13.0358  13.1236  13.1689  13.1689  13.2248  13.2926
    13.3260  13.3261  13.4229  13.5223  13.5224  13.6202  13.6203  13.6694
    13.6694  13.6872  13.7086  13.7169  13.7169  13.7682  13.7761  13.7762
    13.8300  13.8571  13.8572  13.8823  14.0322  14.0396  14.0396  14.2205
    14.2206  14.2565  14.2566  14.2648  14.3576  14.3685  14.3686  14.3758
    14.3758  14.3920  14.4007  14.4151  14.4152  14.4299  14.4443  14.4444
    14.4458  14.4585  14.4586  14.4990  14.5510  14.5510  14.6091  14.6092
    14.6271  14.6676  14.6676  14.6778  14.6811  14.6811  14.7008  14.7263
    14.7264  14.7844  14.7976  14.8096  14.8244  14.8244  14.8244  14.8549
    14.8560  14.8560  15.0116  15.0117  15.3715  15.3715  15.3814  15.5264
    15.5494  15.5494  15.5870  15.6122  15.6574  15.6574  15.7271  15.7271
    15.8670  15.9115  15.9115  15.9643  15.9729  15.9730  15.9938  15.9939
    16.0070  16.0177  16.0327  16.0551  16.0551  16.0577  16.0577  16.0754
    16.0754  16.0807  16.0916  16.0917  16.1067  16.1310  16.1310  16.1546
    16.1546  16.1577  16.1609  16.1802  16.1802  16.1962  16.1997  16.2001
    16.2001  16.2386  16.2386  16.3149  16.3163  16.3163  16.3522  16.3834
    16.3834  16.3921  16.4050  16.4050  16.4285  16.4436  16.4515  16.4515
    16.4590  16.4662  16.4766  16.4767  16.4892  16.4892  16.4895  16.5191
    16.5191  16.5276  16.5440  16.5440  16.5541  16.5541  16.5891  16.6225
    16.6599

     occupation numbers 
     1.0000   1.0000   1.0000   1.0000   1.0000   1.0000   1.0000   1.0000
     1.0000   1.0000   1.0000   1.0000   1.0000   1.0000   1.0000   1.0000
     1.0000   1.0000   1.0000   1.0000   1.0000   1.0000   1.0000   1.0000
     1.0000   1.0000   1.0000   1.0000   1.0000   1.0000   1.0000   1.0000
     1.0000   1.0000   1.0000   1.0000   1.0000   1.0000   1.0000   1.0000
     1.0000   1.0000   1.0000   1.0000   1.0000   1.0000   1.0000   1.0000
     1.0000   1.0000   1.0000   1.0000   1.0000   1.0000   1.0000   1.0000
     1.0000   1.0000   1.0000   1.0000   1.0000   1.0000   1.0000   1.0000
     1.0000   1.0000   1.0000   1.0000   1.0000   1.0000   1.0000   1.0000
     1.0000   1.0000   1.0000   1.0000   1.0000   1.0000   1.0000   1.0000
     1.0000   1.0000   1.0000   1.0000   1.0000   1.0000   1.0000   1.0000
     1.0000   1.0000   1.0000   1.0000   1.0000   1.0000   1.0000   1.0000
     1.0000   1.0000   1.0000   1.0000   1.0000   1.0000   1.0000   1.0000
     1.0000   1.0000   1.0000   1.0000   1.0000   1.0000   1.0000   1.0000
     1.0000   1.0000   1.0000   1.0000   1.0000   1.0000   1.0000   1.0000
     1.0000   1.0000   1.0000   1.0000   1.0000   1.0000   1.0000   1.0000
     1.0000   1.0000   1.0000   1.0000   1.0000   1.0000   1.0000   1.0000
     1.0000   1.0000   1.0000   1.0000   1.0000   1.0000   1.0000   1.0000
     1.0000   1.0000   1.0000   1.0000   1.0000   1.0000   1.0000   1.0000
     1.0000   1.0000   1.0000   1.0000   1.0000   1.0000   1.0000   1.0000
     1.0000   1.0000   1.0000   1.0000   1.0000   1.0000   1.0000   1.0000
     1.0000   1.0000   1.0000   1.0000   1.0000   1.0000   1.0000   1.0000
     1.0000   1.0000   1.0000   1.0000   1.0000   1.0000   1.0000   1.0000
     1.0000   1.0000   1.0000   1.0000   1.0000   1.0000   1.0000   1.0000
     1.0000   1.0000   1.0000   1.0000   1.0000   1.0000   1.0000   1.0000
     1.0000   1.0000   1.0000   1.0000   1.0000   1.0000   1.0000   1.0000
     1.0000   1.0000   1.0000   1.0000   1.0000   1.0000   1.0000   1.0000
     1.0000   1.0000   1.0000   1.0000   1.0000   1.0000   1.0000   1.0000
     1.0000   1.0000   1.0000   1.0000   1.0000   1.0000   1.0000   1.0000
     1.0000   1.0000   1.0000   1.0000   1.0000   1.0000   1.0000   1.0000
     1.0000   1.0000   1.0000   1.0000   1.0000   1.0000   1.0000   1.0000
     1.0000   1.0000   1.0000   1.0000   1.0000   1.0000   1.0000   1.0000
     1.0000   1.0000   1.0000   1.0000   1.0000   1.0000   1.0000   1.0000
     1.0000   1.0000   1.0000   1.0000   1.0000   1.0000   1.0000   1.0000
     1.0000   1.0000   1.0000   1.0000   1.0000   1.0000   1.0000   1.0000
     1.0000   1.0000   1.0000   1.0000   1.0000   1.0000   1.0000   1.0000
     1.0000   1.0000   1.0000   1.0000   1.0000   1.0000   1.0000   1.0000
     1.0000   1.0000   1.0000   1.0000   1.0000   1.0000   1.0000   1.0000
     1.0000   1.0000   1.0000   1.0000   1.0000   1.0000   1.0000   1.0000
     1.0000   1.0000   1.0000   1.0000   1.0000   1.0000   1.0000   1.0000
     1.0000   1.0000   1.0000   1.0000   1.0000   1.0000   1.0000   1.0000
     1.0000   1.0000   1.0000   1.0000   1.0000   1.0000   1.0000   1.0000
     1.0000   1.0000   1.0000   1.0000   1.0000   1.0000   1.0000   1.0000
     1.0000   1.0000   1.0000   1.0000   1.0000   1.0000   1.0000   1.0000
     1.0000   1.0000   1.0000   1.0000   1.0000   1.0000   1.0000   1.0000
     1.0000   1.0000   1.0000   1.0000   1.0000   1.0000   1.0000   1.0000
     1.0000   1.0000   1.0000   1.0000   1.0000   1.0000   1.0000   1.0000
     1.0000   1.0000   1.0000   1.0000   1.0000   1.0000   1.0000   1.0000
     1.0000   1.0000   1.0000   1.0000   1.0000   1.0000   1.0000   1.0000
     1.0000   1.0000   1.0000   1.0000   1.0000   1.0000   1.0000   1.0000
     1.0000   1.0000   1.0000   1.0000   1.0000   1.0000   1.0000   1.0000
     1.0000   1.0000   1.0000   1.0000   1.0000   1.0000   1.0000   1.0000
     1.0000   1.0000   1.0000   1.0000   1.0000   1.0000   1.0000   1.0000
     1.0000   1.0000   1.0000   1.0000   1.0000   1.0000   1.0000   1.0000
     1.0000   1.0000   1.0000   1.0000   1.0000   1.0000   1.0000   1.0000
     1.0000   1.0000   1.0000   1.0000   1.0000   1.0000   1.0000   1.0000
     1.0000   1.0000   1.0000   1.0000   1.0000   1.0000   1.0000   1.0000
     1.0000   1.0000   1.0000   1.0000   1.0000   1.0000   1.0000   1.0000
     1.0000   1.0000   1.0000   1.0000   1.0000   1.0000   1.0000   1.0000
     1.0000   1.0000   1.0000   1.0000   1.0000   1.0000   1.0000   1.0000
     1.0000   1.0000   1.0000   1.0000   1.0000   1.0000   1.0000   1.0000
     1.0000   1.0000   1.0000   1.0000   1.0000   1.0000   1.0000   1.0000
     1.0000   1.0000   1.0000   1.0000   1.0000   1.0000   1.0000   1.0000
     1.0000   1.0000   1.0000   1.0000   1.0000   1.0000   1.0000   1.0000
     1.0000   1.0000   1.0000   1.0000   1.0000   1.0000   1.0000   1.0000
     1.0000   1.0000   1.0000   1.0000   1.0000   1.0000   1.0000   1.0000
     1.0000   1.0000   1.0000   1.0000   1.0000   1.0000   1.0000   1.0000
     1.0000   1.0000   1.0000   1.0000   1.0000   1.0000   1.0000   1.0000
     1.0000   1.0000   1.0000   1.0000   1.0000   1.0000   1.0000   1.0000
     1.0000   1.0000   1.0000   1.0000   1.0000   1.0000   1.0000   1.0000
     1.0000   1.0000   1.0000   1.0000   1.0000   1.0000   1.0000   1.0000
     1.0000   1.0000   1.0000   1.0000   1.0000   1.0000   1.0000   1.0000
     1.0000   1.0000   1.0000   1.0000   1.0000   1.0000   1.0000   1.0000
     1.0000   1.0000   1.0000   1.0000   1.0000   1.0000   1.0000   1.0000
     1.0000   1.0000   1.0000   1.0000   1.0000   1.0000   1.0000   1.0000
[...]
              0.163432127672940E+03
              0.492587035522843E+01
              0.509396220784830E+03
              0.707454385409642E+02
             -0.742860723947285E+02
              0.291103020633859E+02
             -0.682896997342241E+02
              0.400071950745991E+03
             -0.235215262113627E+01
              0.764473239448431E+02
              0.277786984397979E+03
              0.745728344591175E+02
             -0.210942428475551E+03
             -0.342105340831694E+03
              0.192083162690251E+02
             -0.389259611978376E+03
              0.130518704139089E+03
             -0.675045991373743E+02
             -0.149882385731196E+03
              0.151839405854543E+03
              0.526012103270787E+02
              0.146124865160513E+03
              0.630292612856920E+01
              0.216958326892795E+03
             -0.368461403971254E+03
             -0.262011434409501E+02
             -0.323464131591838E+03
              0.722300117736127E+02
              0.177371347841311E+03
             -0.179899002985194E+02
             -0.118115914071167E+03
              0.265325598918440E+03
             -0.122802497740585E+03
              0.907752150210538E+02
             -0.779749566050471E+02
              0.210012174442203E+03
              0.220888813083457E+03
             -0.956391124197080E+02
              0.189538416106045E+03
              0.711531998309297E+02
             -0.191268372766373E+03
             -0.124876483671117E+03
              0.307242070447384E+03
              0.150730016613833E+03
             -0.129588639064559E+02
             -0.325999700335246E+02
              0.473228925848022E+03
              0.279005949098585E+03
              0.992261525670390E+02
             -0.298109374176742E+03
              0.477478461663626E+03
             -0.223022401250571E+03
             -0.275396283057619E+03
             -0.414867542758449E+03
              0.185023087795701E+03
             -0.372893807646752E+03
              0.168634848325212E+03
              0.272630793851391E+03
              0.194082121198665E+03
              0.495076934537335E+02
              0.128567040145138E+03
             -0.307377783699153E+03
             -0.110081237901647E+03
             -0.836067512432223E+02
              0.157775803695077E+03
              0.312459198251215E+03
              0.323054725884906E+03
              0.249136881008856E+03
             -0.571171823967984E+02
              0.793988765618365E+02
              0.433201367785637E+01
             -0.102439753513442E+03
              0.131620996007686E+03
              0.143310383335322E+03
             -0.181578392715664E+03
             -0.215961484820608E+03
             -0.851797339842243E+02
              0.224442938950840E+03
              0.107547490149712E+03
             -0.153984404259011E+03
             -0.235759920152467E+03
             -0.343207873637998E+03
              0.704424009056549E+01
              0.920566881181330E+02
             -0.129676997026580E+03
              0.480096800218580E+03
              0.233156400940697E+02
             -0.544141235728097E+03
              0.120465411247442E+03
              0.238643686309360E+03
             -0.109344115597458E+03
              0.132536926500794E+02
             -0.151559533407616E+03
              0.222508813744081E+03
              0.102886825968369E+03
             -0.284762209298251E+03
              0.339153345694146E+03
              0.947158658891613E+01
             -0.145616985969226E+03
             -0.172730135810447E+03
              0.675190408951529E+03
              0.300852786373622E+03
             -0.838362021847920E+02
              0.165709053419496E+03
             -0.295167824419438E+03
             -0.527385780660384E+02
             -0.299450621703596E+03
              0.119987074495140E+03
              0.203805180318521E+03
              0.242085061177573E+03
             -0.964568065462154E+02
              0.284680732695374E+02
              0.276397107180880E+03
              0.102403391261366E+03
              0.173258139319166E+03
              0.737704923962656E+02
             -0.498036299837472E+02
              0.738227666692501E+01
             -0.456173639574633E+02
              0.703762075969969E+02
              0.155635099994220E+02
             -0.251778416461403E+03
              0.383424219404008E+03
              0.153358866323306E+03
             -0.275416971709929E+03
             -0.204313106263692E+03
             -0.296179380841058E+03
             -0.140281818460998E+03
             -0.103153318190450E+03
             -0.229101823896406E+03
             -0.224269758261413E+03
              0.282875742436786E+03
              0.223005907696573E+03
             -0.278634269746094E+02
              0.325113697431233E+03
              0.616101693624742E+02
             -0.524847921654483E+03
              0.295994218864729E+03
              0.684112326073339E+02
              0.228359764287906E+03
              0.510316808055712E+02
              0.382337499101462E+02
              0.452595626830398E+02
              0.118947938209991E+03
             -0.217581735882919E+03
             -0.108660452835136E+03
             -0.199781163287652E+03
             -0.165836112703826E+03
              0.756309162834737E+02
             -0.190022629681957E+03
              0.888008876473494E+02
              0.117543548720091E+03
             -0.125082892024652E+03
             -0.659445820334545E+02
             -0.583471908720151E+01
              0.324907711665633E+03
              0.515592728578647E+02
              0.322197469100789E+03
              0.114564719152940E+03
             -0.416128391743363E+03
             -0.141713211599986E+03
              0.142191026746610E+03
              0.319948886887222E+03
              0.616760944579912E+02
              0.125033113385521E+03
              0.301796499597279E+03
             -0.175655822714795E+03
             -0.285124603178647E+03
              0.370334947427026E+03
              0.603707991132251E+01
             -0.392734413568787E+03
              0.131655599278351E+03
              0.259945457139352E+03
             -0.600245085783836E+02
             -0.245710313516445E+03
              0.435957680605732E+02
              0.161197182634105E+02
             -0.134477963852679E+03
              0.488777613654984E+02
             -0.419909597457918E+02
              0.578603833151271E+03
              0.159501928153948E+03
             -0.265575155732159E+03
              0.803355853583262E+02
              0.371578537455050E+03
             -0.238054439738026E+03
             -0.635965414588070E+02
             -0.210704417025736E+03
              0.168144336838473E+03
              0.715467892035367E+02
              0.111637866225414E+03
              0.854695483659998E+01
              0.417198123258551E+03
             -0.233417756219640E+03
             -0.177201501594539E+03
             -0.195482085843243E+03
              0.168117071944055E+03
              0.401334627895800E+03
             -0.506861161089093E+02
              0.165818296840995E+03
             -0.224352304792404E+03
              0.224500411921574E+02
             -0.664505200024633E+02
             -0.224633504573717E+02
             -0.955740358897312E+02
             -0.879949426915499E+02
             -0.648909927988807E+02
              0.694370426960193E+02
              0.116883153333009E+03
             -0.269335263609042E+03
              0.195713598896589E+03
             -0.316341485884493E+03
              0.236221733768603E+03
             -0.274391106883725E+03
              0.415106713313237E+03
              0.221264701796747E+03
              0.246848541940097E+03
              0.565025056940960E+02
              0.633568043290402E+02
             -0.556936064065434E+03
              0.955847466023785E+02
              0.253325241709399E+02
              0.436721833635429E+02
             -0.830335687154051E+02
              0.433312372165753E+03
             -0.131869953776183E+03
             -0.171106614125331E+03
             -0.429744380722823E+03
             -0.143045396671146E+03
             -0.195134067906644E+03
             -0.173067736402824E+03
             -0.474034564641743E+02
             -0.905619721747616E+02
             -0.120032297909419E+03
             -0.180521990392492E+03
              0.134567906849599E+03
              0.444619166356696E+03
              0.379131497587533E+03
             -0.755338194615424E+02
             -0.465279224786620E+03
             -0.195628146102972E+03
              0.897712786511252E+02
              0.992951760520708E+02
              0.143767230830201E+03
              0.111981558815513E+03
              0.364815475201108E+02
              0.430444900213674E+03
             -0.106805745269246E+03
              0.218480905177551E+03
              0.100215827259038E+03
             -0.140998970026960E+03
             -0.887045984511067E+02
              0.199029154935802E+03
             -0.115217955964305E+03
             -0.818591275848372E+02
             -0.530741930260087E+02
              0.248729531971390E+03
             -0.333277308091919E+03
             -0.368116793458330E+02
             -0.272911549193358E+03
             -0.590113196703614E+03
              0.223248592852565E+01
             -0.730285546659907E+02
              0.202695291007946E+03
              0.240895808814428E+03
              0.330512939840088E+03
             -0.217380078077939E+03
              0.353623299870065E+03
              0.924360043850468E+02
             -0.105374149771435E+03
              0.638871622583873E+02
             -0.112379930414955E+03
             -0.785614653400562E+02
              0.180046454292299E+03
             -0.175602204297272E+03
              0.427135976427908E+03
             -0.109185291452079E+03
             -0.228442364835683E+03
              0.434697666253420E+03
             -0.244258562320667E+03
             -0.361962207834831E+02
              0.443984842567188E+02
              0.134811551864871E+03
             -0.199121962265487E+03
             -0.149158752060010E+03
              0.226654348846264E+03
             -0.367697228227456E+03
              0.269978629650862E+03
              0.353504534098340E+02
              0.210917162475818E+03
              0.292357442541153E+03
              0.735365480414339E+02
             -0.384702822170237E+03
             -0.169952576694168E+03
             -0.284477534278051E+03
             -0.178361385582471E+03
             -0.588263060064569E+02
              0.698643831130079E+02
             -0.133379443951652E+03
              0.941309578383743E+01
             -0.432823644727262E+03
              0.106928801475049E+02
             -0.273496394107593E+03
              0.268647803422157E+03
             -0.144340375481472E+03
             -0.284116919985419E+02
              0.193345849338197E+03
              0.207575974888749E+02
              0.192518014478045E+03
             -0.344874070873766E+03
              0.756537943354106E+02
              0.238739239994667E+02
              0.138580281708400E+03
              0.248984629889008E+03
             -0.434828682401437E+02
             -0.273147976714356E+03
             -0.156290263887455E+03
             -0.108002640338404E+03
             -0.525831155913074E+02
              0.257550618375174E+03
              0.158569482197119E+03
             -0.165592110510160E+03
             -0.151127836105250E+03
              0.124853277205577E+03
              0.122188308403284E+03
             -0.338576740776371E+03
              0.948652829463072E+02
              0.248481209867062E+03
             -0.122054445363169E+02
              0.291084607579727E+03
              0.147717979214631E+03
              0.232630356245569E+03
              0.353218432168219E+03
              0.578556408397496E+02
             -0.494111077143581E+03
              0.507319798768989E+02
              0.548027469797165E+03
              0.394237284715733E+03
             -0.264345407520572E+03
              0.263452918210592E+02
              0.342989099911125E+03
              0.311811973158346E+03
              0.148274561809261E+03
             -0.786319650275570E+02
              0.142107891985801E+03
              0.298708983238619E+03
             -0.133451296832078E+03
             -0.955619642536940E+02
              0.186407834471023E+03
             -0.134272446944333E+02
              0.174853652846113E+03
             -0.436603863773519E+02
              0.360765506175113E+03
             -0.137464370772642E+03
              0.822111078783948E+02
             -0.168175952557764E+03
              0.170431867217394E+03
             -0.225215469578368E+02
              0.269244897913280E+03
              0.188134393263596E+02
              0.106247719634568E+03
             -0.178702118335017E+03
             -0.109924899488740E+03
             -0.518821478866805E+02
             -0.446328208787392E+02
              0.282760812443476E+03
              0.117079213373392E+03
              0.363008194208826E+03
              0.301752575213357E+03
              0.674738196264670E+02
              0.260380760698001E+01
              0.354596197427930E+03
              0.186645202536656E+03
              0.507175837044565E+01
              0.315062446740523E+03
             -0.282692810314189E+03
              0.928231572510131E+02
             -0.177693084947131E+03
             -0.713179144097016E+02
              0.453565085398243E+03
             -0.694888401327048E+02
             -0.333227278284812E+01
             -0.597601253209141E+02
              0.376985704114129E+03
             -0.879892368082144E+02
             -0.104656540448739E+02
              0.761142969202191E+03
             -0.245983938258795E+03
             -0.262545174140664E+03
             -0.275633101485942E+03
             -0.161558953670254E+03
              0.160847890472607E+03
             -0.687562783541684E+02
              0.445816536782984E+02
             -0.139028980021030E+02
              0.962953129090190E+02
              0.157014702557988E+03
              0.180833879605367E+03
              0.266313038461638E+03
              0.146954233861177E+03
              0.186947211882095E+03
             -0.301964235840662E+03
             -0.288861081240151E+03
             -0.732032933573355E+02
             -0.283258392755473E+03
              0.453669873609963E+03
              0.388818902248960E+03
              0.185753667373615E+03
              0.502989111183208E+03
             -0.261796031863055E+03
             -0.106761091893584E+03
             -0.148383084786012E+03
              0.415965651330205E+03
 
 BEEF-vdW xc energy contributions
            1 :    -3813.277161256681     
            2 :     3434.463047691935     
            3 :    -2799.715993161335     
            4 :     2094.714544009810     
            5 :    -1482.955869031664     
            6 :     1043.607915274667     
            7 :    -762.5858761779773     
            8 :     572.7738401129877     
            9 :    -410.9864368744093     
           10 :     254.6434148869685     
           11 :    -120.5608037907914     
           12 :     36.01937137569121     
           13 :    -8.746199293053905     
           14 :     18.04416936198959     
           15 :    -30.07373461702991     
           16 :     21.94451230902450     
           17 :     5.095511768609867     
           18 :    -32.15283596881090     
           19 :     41.49068033640924     
           20 :    -31.67587723933320     
           21 :     17.72855997006445     
           22 :    -17.79557182747158     
           23 :     38.22340914682627     
           24 :    -69.00696620614872     
           25 :     92.34970182632151     
           26 :    -96.55197558737200     
           27 :     83.96688753511307     
           28 :    -67.41350076755862     
           29 :     58.98208552656934     
           30 :    -60.76801135740698     
           31 :    -327.1929831536982     
           32 :    -224.2263855685524     

     Writing all to output data dir ./GaN.save/
 
     init_run     :      5.49s CPU     10.50s WALL (       1 calls)
     electrons    :    490.98s CPU    502.17s WALL (       1 calls)
     forces       :     10.20s CPU     10.41s WALL (       1 calls)
     stress       :    172.02s CPU    173.68s WALL (       1 calls)

     Called by init_run:
     wfcinit      :      2.56s CPU      7.27s WALL (       1 calls)
     potinit      :      1.04s CPU      1.21s WALL (       1 calls)
     hinit0       :      1.01s CPU      1.08s WALL (       1 calls)

     Called by electrons:
     c_bands      :    482.14s CPU    492.67s WALL (       2 calls)
     sum_band     :      6.83s CPU      6.99s WALL (       2 calls)
     v_of_rho     :      1.18s CPU      1.29s WALL (       2 calls)
     v_h          :      0.01s CPU      0.01s WALL (       2 calls)
     v_xc         :     19.37s CPU     19.69s WALL (      38 calls)
     newd         :      0.22s CPU      0.23s WALL (       2 calls)
     PAW_pot      :      0.55s CPU      0.56s WALL (       2 calls)
     mix_rho      :      0.00s CPU      0.00s WALL (       2 calls)
     vdW_kernel   :      0.16s CPU      0.17s WALL (       1 calls)

     Called by c_bands:
     init_us_2    :      0.23s CPU      0.25s WALL (       4 calls)
     init_us_2:cp :      0.23s CPU      0.25s WALL (       4 calls)
     cegterg      :    294.91s CPU    302.95s WALL (       2 calls)

     Called by sum_band:
     sum_band:wei :      0.01s CPU      0.01s WALL (       2 calls)
     sum_band:loo :      6.37s CPU      6.44s WALL (       2 calls)
     sum_band:buf :      0.00s CPU      0.00s WALL (       2 calls)
     sum_band:ini :      0.20s CPU      0.21s WALL (       2 calls)
     sum_band:cal :      3.81s CPU      3.84s WALL (       2 calls)
     sum_band:bec :      0.05s CPU      0.05s WALL (       2 calls)
     addusdens    :      0.20s CPU      0.22s WALL (       2 calls)
     addusd:skk   :      0.03s CPU      0.03s WALL (       4 calls)
     addusd:dgemm :      0.09s CPU      0.10s WALL (       4 calls)
     addusd:qvan2 :      0.03s CPU      0.03s WALL (       4 calls)

     Called by *egterg:
     cdiaghg      :    222.13s CPU    227.62s WALL (      13 calls)
     cegterg:over :     13.42s CPU     13.92s WALL (      13 calls)
     cegterg:upda :      8.03s CPU      8.20s WALL (      13 calls)
     cegterg:last :      3.63s CPU      3.67s WALL (       2 calls)
     h_psi        :     33.32s CPU     33.95s WALL (      15 calls)
     s_psi        :      9.75s CPU      9.95s WALL (      15 calls)
     g_psi        :      0.06s CPU      0.06s WALL (      13 calls)

     Called by h_psi:
     h_psi:calbec :     10.64s CPU     10.74s WALL (      15 calls)
     vloc_psi     :     12.78s CPU     12.92s WALL (      15 calls)
     add_vuspsi   :      9.73s CPU      9.96s WALL (      15 calls)

     General routines
     calbec       :     24.01s CPU     24.23s WALL (      22 calls)
     fft          :      8.16s CPU      8.26s WALL (    2232 calls)
     ffts         :      0.01s CPU      0.01s WALL (       4 calls)
     fftw         :     14.07s CPU     14.23s WALL (   12792 calls)
     interpolate  :      0.01s CPU      0.01s WALL (       2 calls)
 
     Parallel routines

     PAW routines
     PAW_pot      :      0.55s CPU      0.56s WALL (       2 calls)
     PAW_symme    :      0.01s CPU      0.01s WALL (       3 calls)
 
     PWSCF        :  11m40.06s CPU  12m 4.57s WALL

 
   This run was terminated on:  15:35:47   4Mar2024            

=------------------------------------------------------------------------------=
   JOB DONE.
=------------------------------------------------------------------------------=
