
     Program PWSCF v.7.1 starts on  3Mar2024 at  8:13: 8 

     This program is part of the open-source Quantum ESPRESSO suite
     for quantum simulation of materials; please cite
         "P. Giannozzi et al., J. Phys.:Condens. Matter 21 395502 (2009);
         "P. Giannozzi et al., J. Phys.:Condens. Matter 29 465901 (2017);
         "P. Giannozzi et al., J. Chem. Phys. 152 154105 (2020);
          URL http://www.quantum-espresso.org", 
     in publications or presentations arising from this work. More details at
     http://www.quantum-espresso.org/quote

     Parallel version (MPI & OpenMP), running on     256 processor cores
     Number of MPI processes:               256
     Threads/MPI process:                     1

     MPI processes distributed on     2 nodes
     1923032 MiB available memory on the printing compute node when the environment starts
 
     Reading input from espresso.pwi
Warning: card &CELL ignored
Warning: card    CELL_DYNAMICS    = 'BFGS' ignored
Warning: card / ignored

     Current dimensions of program PWSCF are:
     Max number of different atomic species (ntypx) = 10
     Max number of k-points (npk) =  40000
     Max angular momentum in pseudopotentials (lmaxx) =  4
     file Ga.pbe-dn-kjpaw_psl.1.0.0.UPF: wavefunction(s)  4S renormalized
     file N.pbe-n-kjpaw_psl.1.0.0.UPF: wavefunction(s)  2S renormalized

     **************************************************************************
     Initializing libbeef V0.1.2 with the BEEF-vdW functional.
     Citation: Wellendorff et al., PRB 85, 235149 (2012).
     **************************************************************************


     IMPORTANT: XC functional enforced from input :
     Exchange-correlation= BEEF-VDW
                           (   1   4  43  14   2   0   0)
     Any further DFT definition will be discarded
     Please, verify this is what you really want

 
     K-points division:     npool     =       4
     R & G space division:  proc/nbgrp/npool/nimage =      64
     Subspace diagonalization in iterative solution of the eigenvalue problem:
     a serial algorithm will be used

 
     Parallelization info
     --------------------
     sticks:   dense  smooth     PW     G-vecs:    dense   smooth      PW
     Min         226     181     47                26979    19303    2571
     Max         228     182     48                26983    19308    2576
     Sum       14527   11629   3037              1726709  1235535  164709
 
     Using Slab Decomposition
 


     bravais-lattice index     =            4
     lattice parameter (alat)  =      24.5252  a.u.
     unit-cell volume          =   15616.6055 (a.u.)^3
     number of atoms/cell      =          192
     number of atomic types    =            2
     number of electrons       =      1721.00
     number of Kohn-Sham states=         1033
     kinetic-energy cutoff     =      70.0000  Ry
     charge density cutoff     =     350.0000  Ry
     scf convergence threshold =      1.0E-07
     mixing beta               =       0.7000
     number of iterations used =            8  plain     mixing
     energy convergence thresh.=      1.0E-04
     force convergence thresh. =      1.0E-03
     Exchange-correlation= BEEF-VDW
                           (   1   4  43  14   2   0   0)
     nstep                     =           50


     celldm(1)=  24.525232  celldm(2)=   0.000000  celldm(3)=   1.222409
     celldm(4)=   0.000000  celldm(5)=   0.000000  celldm(6)=   0.000000

     crystal axes: (cart. coord. in units of alat)
               a(1) = (   1.000000   0.000000   0.000000 )  
               a(2) = (  -0.500000   0.866025   0.000000 )  
               a(3) = (   0.000000   0.000000   1.222409 )  

     reciprocal axes: (cart. coord. in units 2 pi/alat)
               b(1) = (  1.000000  0.577350 -0.000000 )  
               b(2) = (  0.000000  1.154701  0.000000 )  
               b(3) = (  0.000000 -0.000000  0.818057 )  


     PseudoPot. # 1 for Ga read from file:
     /trace/group/acmegroup/atimmins/packages/espresso/pseudo/psl_1.0.0/pslibrary.1.0.0/pbe/PSEUDOPOTENTIALS/Ga.pbe-dn-kjpaw_psl.1.0.0.UPF
     MD5 check sum: cd2a01e492f15b435d17032472d8505c
     Pseudo is Projector augmented-wave + core cor, Zval = 13.0
     Generated using 'atomic' code by A. Dal Corso  v.7.1
     Shape of augmentation charge: PSQ
     Using radial grid of 1205 points,  6 beta functions with: 
                l(1) =   0
                l(2) =   0
                l(3) =   1
                l(4) =   1
                l(5) =   2
                l(6) =   2
     Q(r) pseudized with 0 coefficients 


     PseudoPot. # 2 for N  read from file:
     /trace/group/acmegroup/atimmins/packages/espresso/pseudo/psl_1.0.0/pslibrary.1.0.0/pbe/PSEUDOPOTENTIALS/N.pbe-n-kjpaw_psl.1.0.0.UPF
     MD5 check sum: f77f775694dac7e2c3fe1c82443d1a16
     Pseudo is Projector augmented-wave + core cor, Zval =  5.0
     Generated using 'atomic' code by A. Dal Corso  v.7.1
     Shape of augmentation charge: PSQ
     Using radial grid of 1085 points,  4 beta functions with: 
                l(1) =   0
                l(2) =   0
                l(3) =   1
                l(4) =   1
     Q(r) pseudized with 0 coefficients 


     atomic species   valence    mass     pseudopotential
        Ga            13.00    69.72300     Ga( 1.00)
        N              5.00    14.00700     N ( 1.00)

      6 Sym. Ops. (no inversion) found ( 4 have fractional translation)


                                    s                        frac. trans.

      isym =  1     identity                                     

 cryst.   s( 1) = (     1          0          0      )
                  (     0          1          0      )
                  (     0          0          1      )

 cart.    s( 1) = (  1.0000000  0.0000000  0.0000000 )
                  (  0.0000000  1.0000000  0.0000000 )
                  (  0.0000000  0.0000000  1.0000000 )


      isym =  2     120 deg rotation - cryst. axis [0,0,1]       

 cryst.   s( 2) = (     0          1          0      )    f =( -0.2500000 )
                  (    -1         -1          0      )       (  0.0000002 )
                  (     0          0          1      )       (  0.0000000 )

 cart.    s( 2) = ( -0.5000000 -0.8660254  0.0000000 )    f =( -0.2500001 )
                  (  0.8660254 -0.5000000  0.0000000 )       (  0.0000002 )
                  (  0.0000000  0.0000000  1.0000000 )       (  0.0000000 )


      isym =  3     120 deg rotation - cryst. axis [0,0,-1]      

 cryst.   s( 3) = (    -1         -1          0      )    f =( -0.2500002 )
                  (     1          0          0      )       ( -0.2500000 )
                  (     0          0          1      )       (  0.0000000 )

 cart.    s( 3) = ( -0.5000000  0.8660254  0.0000000 )    f =( -0.1250002 )
                  ( -0.8660254 -0.5000000  0.0000000 )       ( -0.2165064 )
                  (  0.0000000  0.0000000  1.0000000 )       (  0.0000000 )


      isym =  4     inv. 180 deg rotation - cart. axis [1,0,0]   

 cryst.   s( 4) = (    -1          0          0      )    f =( -0.2500002 )
                  (     1          1          0      )       (  0.0000000 )
                  (     0          0          1      )       (  0.0000000 )

 cart.    s( 4) = ( -1.0000000  0.0000000  0.0000000 )    f =( -0.2500002 )
                  (  0.0000000  1.0000000  0.0000000 )       (  0.0000000 )
                  (  0.0000000  0.0000000  1.0000000 )       (  0.0000000 )


      isym =  5     inv. 180 deg rotation - cryst. axis [0,1,0]  

 cryst.   s( 5) = (     1          1          0      )
                  (     0         -1          0      )
                  (     0          0          1      )

 cart.    s( 5) = (  0.5000000  0.8660254  0.0000000 )
                  (  0.8660254 -0.5000000  0.0000000 )
                  (  0.0000000  0.0000000  1.0000000 )


      isym =  6     inv. 180 deg rotation - cryst. axis [1,1,0]  

 cryst.   s( 6) = (     0         -1          0      )    f =( -0.2500000 )
                  (    -1          0          0      )       ( -0.2500000 )
                  (     0          0          1      )       (  0.0000000 )

 cart.    s( 6) = (  0.5000000 -0.8660254  0.0000000 )    f =( -0.1250000 )
                  ( -0.8660254 -0.5000000  0.0000000 )       ( -0.2165064 )
                  (  0.0000000  0.0000000  1.0000000 )       (  0.0000000 )


     point group C_3v (3m)  
     there are  3 classes
     the character table:

       E     2C3   3s_v 
A_1    1.00  1.00  1.00
A_2    1.00  1.00 -1.00
E      2.00 -1.00  0.00

     the symmetry operations in each class and the name of the first element:

     E        1
          identity                                               
     2C3      2    3
          120 deg rotation - cryst. axis [0,0,1]                 
     3s_v     4    5    6
          inv. 180 deg rotation - cart. axis [1,0,0]             

   Cartesian axes

     site n.     atom                  positions (alat units)
         1           Ga  tau(   1) = (   0.1250001   0.0721687   0.6108633  )
         2           Ga  tau(   2) = (   0.1250001   0.0721687   1.0183331  )
         3           Ga  tau(   3) = (   0.0000001   0.2886751   0.2033935  )
         4           Ga  tau(   4) = (   0.0000001   0.2886751   0.6108633  )
         5           Ga  tau(   5) = (   0.0000001   0.2886751   1.0183331  )
         6           Ga  tau(   6) = (  -0.1249999   0.5051814   0.2033935  )
         7           Ga  tau(   7) = (  -0.1249999   0.5051814   0.6108633  )
         8           Ga  tau(   8) = (  -0.1249999   0.5051814   1.0183331  )
         9           Ga  tau(   9) = (  -0.2499999   0.7216878   0.2033935  )
        10           Ga  tau(  10) = (  -0.2499999   0.7216878   0.6108633  )
        11           Ga  tau(  11) = (  -0.2499999   0.7216878   1.0183331  )
        12           Ga  tau(  12) = (   0.3750001   0.0721687   0.2033935  )
        13           Ga  tau(  13) = (   0.3750001   0.0721687   0.6108633  )
        14           Ga  tau(  14) = (   0.3750001   0.0721687   1.0183331  )
        15           Ga  tau(  15) = (   0.2500001   0.2886751   0.2033935  )
        16           Ga  tau(  16) = (   0.2500001   0.2886751   0.6108633  )
        17           Ga  tau(  17) = (   0.2500001   0.2886751   1.0183331  )
        18           Ga  tau(  18) = (   0.1250001   0.5051814   0.2033935  )
        19           Ga  tau(  19) = (   0.1250001   0.5051814   0.6108633  )
        20           Ga  tau(  20) = (   0.1250001   0.5051814   1.0183331  )
        21           Ga  tau(  21) = (   0.0000001   0.7216878   0.2033935  )
        22           Ga  tau(  22) = (   0.0000001   0.7216878   0.6108633  )
        23           Ga  tau(  23) = (   0.0000001   0.7216878   1.0183331  )
        24           Ga  tau(  24) = (   0.6250001   0.0721687   0.2033935  )
        25           Ga  tau(  25) = (   0.6250001   0.0721687   0.6108633  )
        26           Ga  tau(  26) = (   0.6250001   0.0721687   1.0183331  )
        27           Ga  tau(  27) = (   0.5000001   0.2886751   0.2033935  )
        28           Ga  tau(  28) = (   0.5000001   0.2886751   0.6108633  )
        29           Ga  tau(  29) = (   0.5000001   0.2886751   1.0183331  )
        30           Ga  tau(  30) = (   0.3750001   0.5051814   0.2033935  )
        31           Ga  tau(  31) = (   0.3750001   0.5051814   0.6108633  )
        32           Ga  tau(  32) = (   0.3750001   0.5051814   1.0183331  )
        33           Ga  tau(  33) = (   0.2500001   0.7216878   0.2033935  )
        34           Ga  tau(  34) = (   0.2500001   0.7216878   0.6108633  )
        35           Ga  tau(  35) = (   0.2500001   0.7216878   1.0183331  )
        36           Ga  tau(  36) = (   0.8750001   0.0721687   0.2033935  )
        37           Ga  tau(  37) = (   0.8750001   0.0721687   0.6108633  )
        38           Ga  tau(  38) = (   0.8750001   0.0721687   1.0183331  )
        39           Ga  tau(  39) = (   0.7500001   0.2886751   0.2033935  )
        40           Ga  tau(  40) = (   0.7500001   0.2886751   0.6108633  )
        41           Ga  tau(  41) = (   0.7500001   0.2886751   1.0183331  )
        42           Ga  tau(  42) = (   0.6250001   0.5051814   0.2033935  )
        43           Ga  tau(  43) = (   0.6250001   0.5051814   0.6108633  )
        44           Ga  tau(  44) = (   0.6250001   0.5051814   1.0183331  )
        45           Ga  tau(  45) = (   0.5000001   0.7216878   0.2033935  )
        46           Ga  tau(  46) = (   0.5000001   0.7216878   0.6108633  )
        47           Ga  tau(  47) = (   0.5000001   0.7216878   1.0183331  )
        48           Ga  tau(  48) = (  -0.0000002   0.1443377   0.4071284  )
        49           Ga  tau(  49) = (  -0.0000002   0.1443377   0.8145982  )
        50           Ga  tau(  50) = (  -0.0000002   0.1443377   1.2220680  )
        51           Ga  tau(  51) = (  -0.1250002   0.3608440   0.4071284  )
        52           Ga  tau(  52) = (  -0.1250002   0.3608440   0.8145982  )
        53           Ga  tau(  53) = (  -0.1250002   0.3608440   1.2220680  )
        54           Ga  tau(  54) = (  -0.2500002   0.5773504   0.4071284  )
        55           Ga  tau(  55) = (  -0.2500002   0.5773504   0.8145982  )
        56           Ga  tau(  56) = (  -0.2500002   0.5773504   1.2220680  )
        57           Ga  tau(  57) = (  -0.3750001   0.7938567   0.4071284  )
        58           Ga  tau(  58) = (  -0.3750001   0.7938567   0.8145982  )
        59           Ga  tau(  59) = (  -0.3750001   0.7938567   1.2220680  )
        60           Ga  tau(  60) = (   0.2499998   0.1443377   0.4071284  )
        61           Ga  tau(  61) = (   0.2499998   0.1443377   0.8145982  )
        62           Ga  tau(  62) = (   0.2499998   0.1443377   1.2220680  )
        63           Ga  tau(  63) = (   0.1249998   0.3608440   0.4071284  )
        64           Ga  tau(  64) = (   0.1249998   0.3608440   0.8145982  )
        65           Ga  tau(  65) = (   0.1249998   0.3608440   1.2220680  )
        66           Ga  tau(  66) = (  -0.0000002   0.5773504   0.4071284  )
        67           Ga  tau(  67) = (  -0.0000002   0.5773504   0.8145982  )
        68           Ga  tau(  68) = (  -0.0000002   0.5773504   1.2220680  )
        69           Ga  tau(  69) = (  -0.1250002   0.7938567   0.4071284  )
        70           Ga  tau(  70) = (  -0.1250002   0.7938567   0.8145982  )
        71           Ga  tau(  71) = (  -0.1250002   0.7938567   1.2220680  )
        72           Ga  tau(  72) = (   0.4999998   0.1443377   0.4071284  )
        73           Ga  tau(  73) = (   0.4999998   0.1443377   0.8145982  )
        74           Ga  tau(  74) = (   0.4999998   0.1443377   1.2220680  )
        75           Ga  tau(  75) = (   0.3749998   0.3608440   0.4071284  )
        76           Ga  tau(  76) = (   0.3749998   0.3608440   0.8145982  )
        77           Ga  tau(  77) = (   0.3749998   0.3608440   1.2220680  )
        78           Ga  tau(  78) = (   0.2499998   0.5773504   0.4071284  )
        79           Ga  tau(  79) = (   0.2499998   0.5773504   0.8145982  )
        80           Ga  tau(  80) = (   0.2499998   0.5773504   1.2220680  )
        81           Ga  tau(  81) = (   0.1249998   0.7938567   0.4071284  )
        82           Ga  tau(  82) = (   0.1249998   0.7938567   0.8145982  )
        83           Ga  tau(  83) = (   0.1249998   0.7938567   1.2220680  )
        84           Ga  tau(  84) = (   0.7499998   0.1443377   0.4071284  )
        85           Ga  tau(  85) = (   0.7499998   0.1443377   0.8145982  )
        86           Ga  tau(  86) = (   0.7499998   0.1443377   1.2220680  )
        87           Ga  tau(  87) = (   0.6249998   0.3608440   0.4071284  )
        88           Ga  tau(  88) = (   0.6249998   0.3608440   0.8145982  )
        89           Ga  tau(  89) = (   0.6249998   0.3608440   1.2220680  )
        90           Ga  tau(  90) = (   0.4999998   0.5773504   0.4071284  )
        91           Ga  tau(  91) = (   0.4999998   0.5773504   0.8145982  )
        92           Ga  tau(  92) = (   0.4999998   0.5773504   1.2220680  )
        93           Ga  tau(  93) = (   0.3749998   0.7938567   0.4071284  )
        94           Ga  tau(  94) = (   0.3749998   0.7938567   0.8145982  )
        95           Ga  tau(  95) = (   0.3749998   0.7938567   1.2220680  )
        96           N   tau(  96) = (   0.1250001   0.0721687   0.3568774  )
        97           N   tau(  97) = (   0.1250001   0.0721687   0.7643472  )
        98           N   tau(  98) = (   0.1250001   0.0721687   1.1718169  )
        99           N   tau(  99) = (   0.0000001   0.2886751   0.3568774  )
       100           N   tau( 100) = (   0.0000001   0.2886751   0.7643472  )
       101           N   tau( 101) = (   0.0000001   0.2886751   1.1718169  )
       102           N   tau( 102) = (  -0.1249999   0.5051814   0.3568774  )
       103           N   tau( 103) = (  -0.1249999   0.5051814   0.7643472  )
       104           N   tau( 104) = (  -0.1249999   0.5051814   1.1718169  )
       105           N   tau( 105) = (  -0.2499999   0.7216878   0.3568774  )
       106           N   tau( 106) = (  -0.2499999   0.7216878   0.7643472  )
       107           N   tau( 107) = (  -0.2499999   0.7216878   1.1718169  )
       108           N   tau( 108) = (   0.3750001   0.0721687   0.3568774  )
       109           N   tau( 109) = (   0.3750001   0.0721687   0.7643472  )
       110           N   tau( 110) = (   0.3750001   0.0721687   1.1718169  )
       111           N   tau( 111) = (   0.2500001   0.2886751   0.3568774  )
       112           N   tau( 112) = (   0.2500001   0.2886751   0.7643472  )
       113           N   tau( 113) = (   0.2500001   0.2886751   1.1718169  )
       114           N   tau( 114) = (   0.1250001   0.5051814   0.3568774  )
       115           N   tau( 115) = (   0.1250001   0.5051814   0.7643472  )
       116           N   tau( 116) = (   0.1250001   0.5051814   1.1718169  )
       117           N   tau( 117) = (   0.0000001   0.7216878   0.3568774  )
       118           N   tau( 118) = (   0.0000001   0.7216878   0.7643472  )
       119           N   tau( 119) = (   0.0000001   0.7216878   1.1718169  )
       120           N   tau( 120) = (   0.6250001   0.0721687   0.3568774  )
       121           N   tau( 121) = (   0.6250001   0.0721687   0.7643472  )
       122           N   tau( 122) = (   0.6250001   0.0721687   1.1718169  )
       123           N   tau( 123) = (   0.5000001   0.2886751   0.3568774  )
       124           N   tau( 124) = (   0.5000001   0.2886751   0.7643472  )
       125           N   tau( 125) = (   0.5000001   0.2886751   1.1718169  )
       126           N   tau( 126) = (   0.3750001   0.5051814   0.3568774  )
       127           N   tau( 127) = (   0.3750001   0.5051814   0.7643472  )
       128           N   tau( 128) = (   0.3750001   0.5051814   1.1718169  )
       129           N   tau( 129) = (   0.2500001   0.7216878   0.3568774  )
       130           N   tau( 130) = (   0.2500001   0.7216878   0.7643472  )
       131           N   tau( 131) = (   0.2500001   0.7216878   1.1718169  )
       132           N   tau( 132) = (   0.8750001   0.0721687   0.3568774  )
       133           N   tau( 133) = (   0.8750001   0.0721687   0.7643472  )
       134           N   tau( 134) = (   0.8750001   0.0721687   1.1718169  )
       135           N   tau( 135) = (   0.7500001   0.2886751   0.3568774  )
       136           N   tau( 136) = (   0.7500001   0.2886751   0.7643472  )
       137           N   tau( 137) = (   0.7500001   0.2886751   1.1718169  )
       138           N   tau( 138) = (   0.6250001   0.5051814   0.3568774  )
       139           N   tau( 139) = (   0.6250001   0.5051814   0.7643472  )
       140           N   tau( 140) = (   0.6250001   0.5051814   1.1718169  )
       141           N   tau( 141) = (   0.5000001   0.7216878   0.3568774  )
       142           N   tau( 142) = (   0.5000001   0.7216878   0.7643472  )
       143           N   tau( 143) = (   0.5000001   0.7216878   1.1718169  )
       144           N   tau( 144) = (  -0.0000002   0.1443377   0.1531425  )
       145           N   tau( 145) = (  -0.0000002   0.1443377   0.5606123  )
       146           N   tau( 146) = (  -0.0000002   0.1443377   0.9680820  )
       147           N   tau( 147) = (  -0.1250002   0.3608440   0.1531425  )
       148           N   tau( 148) = (  -0.1250002   0.3608440   0.5606123  )
       149           N   tau( 149) = (  -0.1250002   0.3608440   0.9680820  )
       150           N   tau( 150) = (  -0.2500002   0.5773504   0.1531425  )
       151           N   tau( 151) = (  -0.2500002   0.5773504   0.5606123  )
       152           N   tau( 152) = (  -0.2500002   0.5773504   0.9680820  )
       153           N   tau( 153) = (  -0.3750001   0.7938567   0.1531425  )
       154           N   tau( 154) = (  -0.3750001   0.7938567   0.5606123  )
       155           N   tau( 155) = (  -0.3750001   0.7938567   0.9680820  )
       156           N   tau( 156) = (   0.2499998   0.1443377   0.1531425  )
       157           N   tau( 157) = (   0.2499998   0.1443377   0.5606123  )
       158           N   tau( 158) = (   0.2499998   0.1443377   0.9680820  )
       159           N   tau( 159) = (   0.1249998   0.3608440   0.1531425  )
       160           N   tau( 160) = (   0.1249998   0.3608440   0.5606123  )
       161           N   tau( 161) = (   0.1249998   0.3608440   0.9680820  )
       162           N   tau( 162) = (  -0.0000002   0.5773504   0.1531425  )
       163           N   tau( 163) = (  -0.0000002   0.5773504   0.5606123  )
       164           N   tau( 164) = (  -0.0000002   0.5773504   0.9680820  )
       165           N   tau( 165) = (  -0.1250002   0.7938567   0.1531425  )
       166           N   tau( 166) = (  -0.1250002   0.7938567   0.5606123  )
       167           N   tau( 167) = (  -0.1250002   0.7938567   0.9680820  )
       168           N   tau( 168) = (   0.4999998   0.1443377   0.1531425  )
       169           N   tau( 169) = (   0.4999998   0.1443377   0.5606123  )
       170           N   tau( 170) = (   0.4999998   0.1443377   0.9680820  )
       171           N   tau( 171) = (   0.3749998   0.3608440   0.1531425  )
       172           N   tau( 172) = (   0.3749998   0.3608440   0.5606123  )
       173           N   tau( 173) = (   0.3749998   0.3608440   0.9680820  )
       174           N   tau( 174) = (   0.2499998   0.5773504   0.1531425  )
       175           N   tau( 175) = (   0.2499998   0.5773504   0.5606123  )
       176           N   tau( 176) = (   0.2499998   0.5773504   0.9680820  )
       177           N   tau( 177) = (   0.1249998   0.7938567   0.1531425  )
       178           N   tau( 178) = (   0.1249998   0.7938567   0.5606123  )
       179           N   tau( 179) = (   0.1249998   0.7938567   0.9680820  )
       180           N   tau( 180) = (   0.7499998   0.1443377   0.1531425  )
       181           N   tau( 181) = (   0.7499998   0.1443377   0.5606123  )
       182           N   tau( 182) = (   0.7499998   0.1443377   0.9680820  )
       183           N   tau( 183) = (   0.6249998   0.3608440   0.1531425  )
       184           N   tau( 184) = (   0.6249998   0.3608440   0.5606123  )
       185           N   tau( 185) = (   0.6249998   0.3608440   0.9680820  )
       186           N   tau( 186) = (   0.4999998   0.5773504   0.1531425  )
       187           N   tau( 187) = (   0.4999998   0.5773504   0.5606123  )
       188           N   tau( 188) = (   0.4999998   0.5773504   0.9680820  )
       189           N   tau( 189) = (   0.3749998   0.7938567   0.1531425  )
       190           N   tau( 190) = (   0.3749998   0.7938567   0.5606123  )
       191           N   tau( 191) = (   0.3749998   0.7938567   0.9680820  )
       192           N   tau( 192) = (   0.1250001   0.0721687   0.2033935  )

   Crystallographic axes

     site n.     atom                  positions (cryst. coord.)
         1           Ga  tau(   1) = (  0.1666667  0.0833333  0.4997208  )
         2           Ga  tau(   2) = (  0.1666667  0.0833333  0.8330541  )
         3           Ga  tau(   3) = (  0.1666667  0.3333333  0.1663874  )
         4           Ga  tau(   4) = (  0.1666667  0.3333333  0.4997208  )
         5           Ga  tau(   5) = (  0.1666667  0.3333333  0.8330541  )
         6           Ga  tau(   6) = (  0.1666667  0.5833333  0.1663874  )
         7           Ga  tau(   7) = (  0.1666667  0.5833333  0.4997208  )
         8           Ga  tau(   8) = (  0.1666667  0.5833333  0.8330541  )
         9           Ga  tau(   9) = (  0.1666667  0.8333333  0.1663874  )
        10           Ga  tau(  10) = (  0.1666667  0.8333333  0.4997208  )
        11           Ga  tau(  11) = (  0.1666667  0.8333333  0.8330541  )
        12           Ga  tau(  12) = (  0.4166667  0.0833333  0.1663874  )
        13           Ga  tau(  13) = (  0.4166667  0.0833333  0.4997208  )
        14           Ga  tau(  14) = (  0.4166667  0.0833333  0.8330541  )
        15           Ga  tau(  15) = (  0.4166667  0.3333333  0.1663874  )
        16           Ga  tau(  16) = (  0.4166667  0.3333333  0.4997208  )
        17           Ga  tau(  17) = (  0.4166667  0.3333333  0.8330541  )
        18           Ga  tau(  18) = (  0.4166667  0.5833333  0.1663874  )
        19           Ga  tau(  19) = (  0.4166667  0.5833333  0.4997208  )
        20           Ga  tau(  20) = (  0.4166667  0.5833333  0.8330541  )
        21           Ga  tau(  21) = (  0.4166667  0.8333333  0.1663874  )
        22           Ga  tau(  22) = (  0.4166667  0.8333333  0.4997208  )
        23           Ga  tau(  23) = (  0.4166667  0.8333333  0.8330541  )
        24           Ga  tau(  24) = (  0.6666667  0.0833333  0.1663874  )
        25           Ga  tau(  25) = (  0.6666667  0.0833333  0.4997208  )
        26           Ga  tau(  26) = (  0.6666667  0.0833333  0.8330541  )
        27           Ga  tau(  27) = (  0.6666667  0.3333333  0.1663874  )
        28           Ga  tau(  28) = (  0.6666667  0.3333333  0.4997208  )
        29           Ga  tau(  29) = (  0.6666667  0.3333333  0.8330541  )
        30           Ga  tau(  30) = (  0.6666667  0.5833333  0.1663874  )
        31           Ga  tau(  31) = (  0.6666667  0.5833333  0.4997208  )
        32           Ga  tau(  32) = (  0.6666667  0.5833333  0.8330541  )
        33           Ga  tau(  33) = (  0.6666667  0.8333333  0.1663874  )
        34           Ga  tau(  34) = (  0.6666667  0.8333333  0.4997208  )
        35           Ga  tau(  35) = (  0.6666667  0.8333333  0.8330541  )
        36           Ga  tau(  36) = (  0.9166667  0.0833333  0.1663874  )
        37           Ga  tau(  37) = (  0.9166667  0.0833333  0.4997208  )
        38           Ga  tau(  38) = (  0.9166667  0.0833333  0.8330541  )
        39           Ga  tau(  39) = (  0.9166667  0.3333333  0.1663874  )
        40           Ga  tau(  40) = (  0.9166667  0.3333333  0.4997208  )
        41           Ga  tau(  41) = (  0.9166667  0.3333333  0.8330541  )
        42           Ga  tau(  42) = (  0.9166667  0.5833333  0.1663874  )
        43           Ga  tau(  43) = (  0.9166667  0.5833333  0.4997208  )
        44           Ga  tau(  44) = (  0.9166667  0.5833333  0.8330541  )
        45           Ga  tau(  45) = (  0.9166667  0.8333333  0.1663874  )
        46           Ga  tau(  46) = (  0.9166667  0.8333333  0.4997208  )
        47           Ga  tau(  47) = (  0.9166667  0.8333333  0.8330541  )
        48           Ga  tau(  48) = (  0.0833333  0.1666668  0.3330541  )
        49           Ga  tau(  49) = (  0.0833333  0.1666668  0.6663874  )
        50           Ga  tau(  50) = (  0.0833333  0.1666668  0.9997208  )
        51           Ga  tau(  51) = (  0.0833333  0.4166668  0.3330541  )
        52           Ga  tau(  52) = (  0.0833333  0.4166668  0.6663874  )
        53           Ga  tau(  53) = (  0.0833333  0.4166668  0.9997208  )
        54           Ga  tau(  54) = (  0.0833333  0.6666668  0.3330541  )
        55           Ga  tau(  55) = (  0.0833333  0.6666668  0.6663874  )
        56           Ga  tau(  56) = (  0.0833333  0.6666668  0.9997208  )
        57           Ga  tau(  57) = (  0.0833333  0.9166668  0.3330541  )
        58           Ga  tau(  58) = (  0.0833333  0.9166668  0.6663874  )
        59           Ga  tau(  59) = (  0.0833333  0.9166668  0.9997208  )
        60           Ga  tau(  60) = (  0.3333332  0.1666668  0.3330541  )
        61           Ga  tau(  61) = (  0.3333332  0.1666668  0.6663874  )
        62           Ga  tau(  62) = (  0.3333332  0.1666668  0.9997208  )
        63           Ga  tau(  63) = (  0.3333332  0.4166668  0.3330541  )
        64           Ga  tau(  64) = (  0.3333332  0.4166668  0.6663874  )
        65           Ga  tau(  65) = (  0.3333332  0.4166668  0.9997208  )
        66           Ga  tau(  66) = (  0.3333332  0.6666668  0.3330541  )
        67           Ga  tau(  67) = (  0.3333332  0.6666668  0.6663874  )
        68           Ga  tau(  68) = (  0.3333332  0.6666668  0.9997208  )
        69           Ga  tau(  69) = (  0.3333332  0.9166668  0.3330541  )
        70           Ga  tau(  70) = (  0.3333332  0.9166668  0.6663874  )
        71           Ga  tau(  71) = (  0.3333332  0.9166668  0.9997208  )
        72           Ga  tau(  72) = (  0.5833332  0.1666668  0.3330541  )
        73           Ga  tau(  73) = (  0.5833332  0.1666668  0.6663874  )
        74           Ga  tau(  74) = (  0.5833332  0.1666668  0.9997208  )
        75           Ga  tau(  75) = (  0.5833332  0.4166668  0.3330541  )
        76           Ga  tau(  76) = (  0.5833332  0.4166668  0.6663874  )
        77           Ga  tau(  77) = (  0.5833332  0.4166668  0.9997208  )
        78           Ga  tau(  78) = (  0.5833332  0.6666668  0.3330541  )
        79           Ga  tau(  79) = (  0.5833332  0.6666668  0.6663874  )
        80           Ga  tau(  80) = (  0.5833332  0.6666668  0.9997208  )
        81           Ga  tau(  81) = (  0.5833332  0.9166668  0.3330541  )
        82           Ga  tau(  82) = (  0.5833332  0.9166668  0.6663874  )
        83           Ga  tau(  83) = (  0.5833332  0.9166668  0.9997208  )
        84           Ga  tau(  84) = (  0.8333332  0.1666668  0.3330541  )
        85           Ga  tau(  85) = (  0.8333332  0.1666668  0.6663874  )
        86           Ga  tau(  86) = (  0.8333332  0.1666668  0.9997208  )
        87           Ga  tau(  87) = (  0.8333332  0.4166668  0.3330541  )
        88           Ga  tau(  88) = (  0.8333332  0.4166668  0.6663874  )
        89           Ga  tau(  89) = (  0.8333332  0.4166668  0.9997208  )
        90           Ga  tau(  90) = (  0.8333332  0.6666668  0.3330541  )
        91           Ga  tau(  91) = (  0.8333332  0.6666668  0.6663874  )
        92           Ga  tau(  92) = (  0.8333332  0.6666668  0.9997208  )
        93           Ga  tau(  93) = (  0.8333332  0.9166668  0.3330541  )
        94           Ga  tau(  94) = (  0.8333332  0.9166668  0.6663874  )
        95           Ga  tau(  95) = (  0.8333332  0.9166668  0.9997208  )
        96           N   tau(  96) = (  0.1666667  0.0833333  0.2919459  )
        97           N   tau(  97) = (  0.1666667  0.0833333  0.6252792  )
        98           N   tau(  98) = (  0.1666667  0.0833333  0.9586126  )
        99           N   tau(  99) = (  0.1666667  0.3333333  0.2919459  )
       100           N   tau( 100) = (  0.1666667  0.3333333  0.6252792  )
       101           N   tau( 101) = (  0.1666667  0.3333333  0.9586126  )
       102           N   tau( 102) = (  0.1666667  0.5833333  0.2919459  )
       103           N   tau( 103) = (  0.1666667  0.5833333  0.6252792  )
       104           N   tau( 104) = (  0.1666667  0.5833333  0.9586126  )
       105           N   tau( 105) = (  0.1666667  0.8333333  0.2919459  )
       106           N   tau( 106) = (  0.1666667  0.8333333  0.6252792  )
       107           N   tau( 107) = (  0.1666667  0.8333333  0.9586126  )
       108           N   tau( 108) = (  0.4166667  0.0833333  0.2919459  )
       109           N   tau( 109) = (  0.4166667  0.0833333  0.6252792  )
       110           N   tau( 110) = (  0.4166667  0.0833333  0.9586126  )
       111           N   tau( 111) = (  0.4166667  0.3333333  0.2919459  )
       112           N   tau( 112) = (  0.4166667  0.3333333  0.6252792  )
       113           N   tau( 113) = (  0.4166667  0.3333333  0.9586126  )
       114           N   tau( 114) = (  0.4166667  0.5833333  0.2919459  )
       115           N   tau( 115) = (  0.4166667  0.5833333  0.6252792  )
       116           N   tau( 116) = (  0.4166667  0.5833333  0.9586126  )
       117           N   tau( 117) = (  0.4166667  0.8333333  0.2919459  )
       118           N   tau( 118) = (  0.4166667  0.8333333  0.6252792  )
       119           N   tau( 119) = (  0.4166667  0.8333333  0.9586126  )
       120           N   tau( 120) = (  0.6666667  0.0833333  0.2919459  )
       121           N   tau( 121) = (  0.6666667  0.0833333  0.6252792  )
       122           N   tau( 122) = (  0.6666667  0.0833333  0.9586126  )
       123           N   tau( 123) = (  0.6666667  0.3333333  0.2919459  )
       124           N   tau( 124) = (  0.6666667  0.3333333  0.6252792  )
       125           N   tau( 125) = (  0.6666667  0.3333333  0.9586126  )
       126           N   tau( 126) = (  0.6666667  0.5833333  0.2919459  )
       127           N   tau( 127) = (  0.6666667  0.5833333  0.6252792  )
       128           N   tau( 128) = (  0.6666667  0.5833333  0.9586126  )
       129           N   tau( 129) = (  0.6666667  0.8333333  0.2919459  )
       130           N   tau( 130) = (  0.6666667  0.8333333  0.6252792  )
       131           N   tau( 131) = (  0.6666667  0.8333333  0.9586126  )
       132           N   tau( 132) = (  0.9166667  0.0833333  0.2919459  )
       133           N   tau( 133) = (  0.9166667  0.0833333  0.6252792  )
       134           N   tau( 134) = (  0.9166667  0.0833333  0.9586126  )
       135           N   tau( 135) = (  0.9166667  0.3333333  0.2919459  )
       136           N   tau( 136) = (  0.9166667  0.3333333  0.6252792  )
       137           N   tau( 137) = (  0.9166667  0.3333333  0.9586126  )
       138           N   tau( 138) = (  0.9166667  0.5833333  0.2919459  )
       139           N   tau( 139) = (  0.9166667  0.5833333  0.6252792  )
       140           N   tau( 140) = (  0.9166667  0.5833333  0.9586126  )
       141           N   tau( 141) = (  0.9166667  0.8333333  0.2919459  )
       142           N   tau( 142) = (  0.9166667  0.8333333  0.6252792  )
       143           N   tau( 143) = (  0.9166667  0.8333333  0.9586126  )
       144           N   tau( 144) = (  0.0833333  0.1666668  0.1252792  )
       145           N   tau( 145) = (  0.0833333  0.1666668  0.4586126  )
       146           N   tau( 146) = (  0.0833333  0.1666668  0.7919459  )
       147           N   tau( 147) = (  0.0833333  0.4166668  0.1252792  )
       148           N   tau( 148) = (  0.0833333  0.4166668  0.4586126  )
       149           N   tau( 149) = (  0.0833333  0.4166668  0.7919459  )
       150           N   tau( 150) = (  0.0833333  0.6666668  0.1252792  )
       151           N   tau( 151) = (  0.0833333  0.6666668  0.4586126  )
       152           N   tau( 152) = (  0.0833333  0.6666668  0.7919459  )
       153           N   tau( 153) = (  0.0833333  0.9166668  0.1252792  )
       154           N   tau( 154) = (  0.0833333  0.9166668  0.4586126  )
       155           N   tau( 155) = (  0.0833333  0.9166668  0.7919459  )
       156           N   tau( 156) = (  0.3333332  0.1666668  0.1252792  )
       157           N   tau( 157) = (  0.3333332  0.1666668  0.4586126  )
       158           N   tau( 158) = (  0.3333332  0.1666668  0.7919459  )
       159           N   tau( 159) = (  0.3333332  0.4166668  0.1252792  )
       160           N   tau( 160) = (  0.3333332  0.4166668  0.4586126  )
       161           N   tau( 161) = (  0.3333332  0.4166668  0.7919459  )
       162           N   tau( 162) = (  0.3333332  0.6666668  0.1252792  )
       163           N   tau( 163) = (  0.3333332  0.6666668  0.4586126  )
       164           N   tau( 164) = (  0.3333332  0.6666668  0.7919459  )
       165           N   tau( 165) = (  0.3333332  0.9166668  0.1252792  )
       166           N   tau( 166) = (  0.3333332  0.9166668  0.4586126  )
       167           N   tau( 167) = (  0.3333332  0.9166668  0.7919459  )
       168           N   tau( 168) = (  0.5833332  0.1666668  0.1252792  )
       169           N   tau( 169) = (  0.5833332  0.1666668  0.4586126  )
       170           N   tau( 170) = (  0.5833332  0.1666668  0.7919459  )
       171           N   tau( 171) = (  0.5833332  0.4166668  0.1252792  )
       172           N   tau( 172) = (  0.5833332  0.4166668  0.4586126  )
       173           N   tau( 173) = (  0.5833332  0.4166668  0.7919459  )
       174           N   tau( 174) = (  0.5833332  0.6666668  0.1252792  )
       175           N   tau( 175) = (  0.5833332  0.6666668  0.4586126  )
       176           N   tau( 176) = (  0.5833332  0.6666668  0.7919459  )
       177           N   tau( 177) = (  0.5833332  0.9166668  0.1252792  )
       178           N   tau( 178) = (  0.5833332  0.9166668  0.4586126  )
       179           N   tau( 179) = (  0.5833332  0.9166668  0.7919459  )
       180           N   tau( 180) = (  0.8333332  0.1666668  0.1252792  )
       181           N   tau( 181) = (  0.8333332  0.1666668  0.4586126  )
       182           N   tau( 182) = (  0.8333332  0.1666668  0.7919459  )
       183           N   tau( 183) = (  0.8333332  0.4166668  0.1252792  )
       184           N   tau( 184) = (  0.8333332  0.4166668  0.4586126  )
       185           N   tau( 185) = (  0.8333332  0.4166668  0.7919459  )
       186           N   tau( 186) = (  0.8333332  0.6666668  0.1252792  )
       187           N   tau( 187) = (  0.8333332  0.6666668  0.4586126  )
       188           N   tau( 188) = (  0.8333332  0.6666668  0.7919459  )
       189           N   tau( 189) = (  0.8333332  0.9166668  0.1252792  )
       190           N   tau( 190) = (  0.8333332  0.9166668  0.4586126  )
       191           N   tau( 191) = (  0.8333332  0.9166668  0.7919459  )
       192           N   tau( 192) = (  0.1666667  0.0833333  0.1663874  )

     number of k points=     4  Gaussian smearing, width (Ry)=  0.0100
                       cart. coord. in units 2pi/alat
        k(    1) = (   0.0000000   0.0000000   0.0000000), wk =   0.2500000
        k(    2) = (   0.0000000   0.0000000  -0.4090283), wk =   0.2500000
        k(    3) = (   0.0000000  -0.5773503   0.0000000), wk =   0.7500000
        k(    4) = (   0.0000000  -0.5773503  -0.4090283), wk =   0.7500000

                       cryst. coord.
        k(    1) = (   0.0000000   0.0000000   0.0000000), wk =   0.2500000
        k(    2) = (   0.0000000   0.0000000  -0.5000000), wk =   0.2500000
        k(    3) = (   0.0000000  -0.5000000   0.0000000), wk =   0.7500000
        k(    4) = (   0.0000000  -0.5000000  -0.5000000), wk =   0.7500000

     Dense  grid:  1726709 G-vectors     FFT dimensions: ( 160, 160, 180)

     Smooth grid:  1235535 G-vectors     FFT dimensions: ( 144, 144, 160)

     Dynamical RAM for                 wfc:      38.03 MB

     Dynamical RAM for     wfc (w. buffer):      38.03 MB

     Dynamical RAM for           str. fact:       0.82 MB

     Dynamical RAM for           local pot:       0.00 MB

     Dynamical RAM for          nlocal pot:      91.53 MB

     Dynamical RAM for                qrad:       3.00 MB

     Dynamical RAM for          rho,v,vnew:       2.99 MB

     Dynamical RAM for               rhoin:       1.00 MB

     Dynamical RAM for            rho*nmix:       6.59 MB

     Dynamical RAM for           G-vectors:       1.69 MB

     Dynamical RAM for          h,s,v(r/c):     781.56 MB

     Dynamical RAM for          <psi|beta>:      39.19 MB

     Dynamical RAM for                 psi:     152.14 MB

     Dynamical RAM for                hpsi:     152.14 MB

     Dynamical RAM for                spsi:     152.14 MB

     Dynamical RAM for      wfcinit/wfcrot:     100.50 MB

     Dynamical RAM for           addusdens:      29.44 MB

     Dynamical RAM for          addusforce:      49.47 MB

     Dynamical RAM for         addusstress:      20.84 MB

     Estimated static dynamical RAM per process >     143.24 MB

     Estimated max dynamical RAM per process >       1.39 GB

     Estimated total dynamical RAM >     355.51 GB

     Atomic positions and unit cell read from directory:
     ./GaN.save/
     Atomic positions from file used, from input discarded
 

     Check: negative core charge=   -0.000003

     The initial density is read from file :
     ./GaN.save/charge-density


     starting charge    1720.0000, renormalised to    1721.0000


     %%%%%%%%%%%%%%%%%%%%%%%%%%%%%%%%%%%%%%%%%%%%%%%%%%%%%%%%%%%%%%%%%%%%%%%%
     %                                                                      %
     % You are using vdW-DF, which was implemented by the Thonhauser group. %
     % Please cite the following two papers that made this development      %
     % possible and the two reviews that describe the various versions:     %
     %                                                                      %
     %   T. Thonhauser et al., PRL 115, 136402 (2015).                      %
     %   T. Thonhauser et al., PRB 76, 125112 (2007).                       %
     %   K. Berland et al., Rep. Prog. Phys. 78, 066501 (2015).             %
     %   D.C. Langreth et al., J. Phys.: Condens. Matter 21, 084203 (2009). %
     %                                                                      %
     % If you are calculating stress with vdW-DF, please also cite:         %
     %                                                                      %
     %   R. Sabatini et al., J. Phys.: Condens. Matter 24, 424209 (2012).   %
     %                                                                      %
     %%%%%%%%%%%%%%%%%%%%%%%%%%%%%%%%%%%%%%%%%%%%%%%%%%%%%%%%%%%%%%%%%%%%%%%%

     %%%%%%%%%%%%%%%%%%%%%%%%%%%%%%%%%%%%%%%%%%%%%%%%%%%%%%%%%%%%%%%%%%%%%%%%
     %                                                                      %
     %  vdW-DF NEWS:                                                        %
     %                                                                      %
     %  * vdW-DF3 is now available. DOI: 10.1021/acs.jctc.0c00471           %
     %    use with input_dft = 'vdW-DF3-opt1' or 'vdW-DF3-opt2'             %
     %                                                                      %
     %  * Unscreened and range-separated vdW-DF hybrid functionals          %
     %    DOI: 10.1063/1.4986522 and 10.1088/1361-648X/ac2ad2               %
     %    use with input_dft = 'vdW-DF-cx0' (etc) and 'vdW-DF-ahcx'         %
     %                                                                      %
     %%%%%%%%%%%%%%%%%%%%%%%%%%%%%%%%%%%%%%%%%%%%%%%%%%%%%%%%%%%%%%%%%%%%%%%%


     Carrying out vdW-DF run using the following parameters:
     Nqs    =  20  Npoints =  1024  r_max =  100.000
     q_mesh =  0.00001000  0.04494208  0.09755937  0.15916263
               0.23128650  0.31572767  0.41458969  0.53033537
               0.66584808  0.82450364  1.01025438  1.22772762
               1.48234092  1.78043706  2.12944203  2.53805004
               3.01644009  3.57652955  4.23227104  5.00000000


     -----------------------------------------------
     Non-local corr. energy    =      51.93555041 Ry
     -----------------------------------------------

     Wavefunctions not found or not readable, recomputing them from scratch
     Starting wfcs are 1243 randomized atomic wfcs
     Checking if some PAW data can be deallocated... 
       PAW data deallocated on   97 nodes for type:  1
       PAW data deallocated on  159 nodes for type:  2

     total cpu time spent up to now is       39.6 secs

     Self-consistent Calculation

     iteration #  1     ecut=    70.00 Ry     beta= 0.70
     Davidson diagonalization with overlap

---- Real-time Memory Report at c_bands before calling an iterative solver
           688 MiB given to the printing process from OS
             0 MiB allocation reported by mallinfo(arena+hblkhd)
       1893037 MiB available memory on the node where the printing process lives
------------------
     ethr =  1.00E-05,  avg # of iterations = 28.0


     -----------------------------------------------
     Non-local corr. energy    =      51.83343570 Ry
     -----------------------------------------------


     total cpu time spent up to now is      549.8 secs

     total energy              =  -29724.07519514 Ry
     estimated scf accuracy    <       0.02829626 Ry

     iteration #  2     ecut=    70.00 Ry     beta= 0.70
     Davidson diagonalization with overlap

---- Real-time Memory Report at c_bands before calling an iterative solver
          1642 MiB given to the printing process from OS
             0 MiB allocation reported by mallinfo(arena+hblkhd)
       1891551 MiB available memory on the node where the printing process lives
------------------
     ethr =  1.64E-06,  avg # of iterations = 15.5


     -----------------------------------------------
     Non-local corr. energy    =      51.85457013 Ry
     -----------------------------------------------


     total cpu time spent up to now is      749.9 secs

     total energy              =  -29724.07045926 Ry
     estimated scf accuracy    <       0.09851996 Ry

     iteration #  3     ecut=    70.00 Ry     beta= 0.70
     Davidson diagonalization with overlap

---- Real-time Memory Report at c_bands before calling an iterative solver
          1642 MiB given to the printing process from OS
             0 MiB allocation reported by mallinfo(arena+hblkhd)
       1882042 MiB available memory on the node where the printing process lives
------------------
     ethr =  1.64E-06,  avg # of iterations = 13.3


     -----------------------------------------------
     Non-local corr. energy    =      51.87527482 Ry
     -----------------------------------------------


     total cpu time spent up to now is     1082.9 secs

     total energy              =  -29724.08785429 Ry
     estimated scf accuracy    <       0.01962836 Ry

     iteration #  4     ecut=    70.00 Ry     beta= 0.70
     Davidson diagonalization with overlap

---- Real-time Memory Report at c_bands before calling an iterative solver
          1642 MiB given to the printing process from OS
             0 MiB allocation reported by mallinfo(arena+hblkhd)
       1881864 MiB available memory on the node where the printing process lives
------------------
     ethr =  1.14E-06,  avg # of iterations = 14.0


     -----------------------------------------------
     Non-local corr. energy    =      51.88388650 Ry
     -----------------------------------------------


     total cpu time spent up to now is     1373.0 secs

     total energy              =  -29724.09035132 Ry
     estimated scf accuracy    <       0.00129532 Ry

     iteration #  5     ecut=    70.00 Ry     beta= 0.70
     Davidson diagonalization with overlap

---- Real-time Memory Report at c_bands before calling an iterative solver
          1642 MiB given to the printing process from OS
             0 MiB allocation reported by mallinfo(arena+hblkhd)
       1881785 MiB available memory on the node where the printing process lives
------------------
     ethr =  7.53E-08,  avg # of iterations = 11.5


     -----------------------------------------------
     Non-local corr. energy    =      51.89164415 Ry
     -----------------------------------------------


     total cpu time spent up to now is     1664.3 secs

     total energy              =  -29724.09059560 Ry
     estimated scf accuracy    <       0.00036463 Ry

     iteration #  6     ecut=    70.00 Ry     beta= 0.70
     Davidson diagonalization with overlap

---- Real-time Memory Report at c_bands before calling an iterative solver
          1642 MiB given to the printing process from OS
             0 MiB allocation reported by mallinfo(arena+hblkhd)
       1881685 MiB available memory on the node where the printing process lives
------------------
     ethr =  2.12E-08,  avg # of iterations = 12.5


     -----------------------------------------------
     Non-local corr. energy    =      51.89462578 Ry
     -----------------------------------------------


     total cpu time spent up to now is     2128.6 secs

     total energy              =  -29724.09069929 Ry
     estimated scf accuracy    <       0.00010239 Ry

     iteration #  7     ecut=    70.00 Ry     beta= 0.70
     Davidson diagonalization with overlap

---- Real-time Memory Report at c_bands before calling an iterative solver
          1642 MiB given to the printing process from OS
             0 MiB allocation reported by mallinfo(arena+hblkhd)
       1882578 MiB available memory on the node where the printing process lives
------------------
     ethr =  5.95E-09,  avg # of iterations = 13.0


     -----------------------------------------------
     Non-local corr. energy    =      51.89480370 Ry
     -----------------------------------------------


     total cpu time spent up to now is     2439.8 secs

     total energy              =  -29724.09071490 Ry
     estimated scf accuracy    <       0.00001453 Ry

     iteration #  8     ecut=    70.00 Ry     beta= 0.70
     Davidson diagonalization with overlap

---- Real-time Memory Report at c_bands before calling an iterative solver
          1642 MiB given to the printing process from OS
             0 MiB allocation reported by mallinfo(arena+hblkhd)
       1881458 MiB available memory on the node where the printing process lives
------------------
     ethr =  8.44E-10,  avg # of iterations = 14.0


     -----------------------------------------------
     Non-local corr. energy    =      51.89486517 Ry
     -----------------------------------------------


     total cpu time spent up to now is     2791.4 secs

     total energy              =  -29724.09071789 Ry
     estimated scf accuracy    <       0.00000582 Ry

     iteration #  9     ecut=    70.00 Ry     beta= 0.70
     Davidson diagonalization with overlap

---- Real-time Memory Report at c_bands before calling an iterative solver
          1642 MiB given to the printing process from OS
             0 MiB allocation reported by mallinfo(arena+hblkhd)
       1881358 MiB available memory on the node where the printing process lives
------------------
     ethr =  3.38E-10,  avg # of iterations = 14.3


     -----------------------------------------------
     Non-local corr. energy    =      51.89502679 Ry
     -----------------------------------------------


     total cpu time spent up to now is     3094.7 secs

     total energy              =  -29724.09071910 Ry
     estimated scf accuracy    <       0.00000053 Ry

     iteration # 10     ecut=    70.00 Ry     beta= 0.70
     Davidson diagonalization with overlap

---- Real-time Memory Report at c_bands before calling an iterative solver
          1642 MiB given to the printing process from OS
             0 MiB allocation reported by mallinfo(arena+hblkhd)
       1881264 MiB available memory on the node where the printing process lives
------------------
     c_bands:  5 eigenvalues not converged
     ethr =  3.10E-11,  avg # of iterations = 17.0


     -----------------------------------------------
     Non-local corr. energy    =      51.89517487 Ry
     -----------------------------------------------


     total cpu time spent up to now is     3384.9 secs

     total energy              =  -29724.09071936 Ry
     estimated scf accuracy    <       0.00000058 Ry

     iteration # 11     ecut=    70.00 Ry     beta= 0.70
     Davidson diagonalization with overlap

---- Real-time Memory Report at c_bands before calling an iterative solver
          1642 MiB given to the printing process from OS
             0 MiB allocation reported by mallinfo(arena+hblkhd)
       1882219 MiB available memory on the node where the printing process lives
------------------
     ethr =  3.10E-11,  avg # of iterations = 11.8


     -----------------------------------------------
     Non-local corr. energy    =      51.89532363 Ry
     -----------------------------------------------


     total cpu time spent up to now is     3624.2 secs

     total energy              =  -29724.09071945 Ry
     estimated scf accuracy    <       0.00000010 Ry

     iteration # 12     ecut=    70.00 Ry     beta= 0.70
     Davidson diagonalization with overlap

---- Real-time Memory Report at c_bands before calling an iterative solver
          1642 MiB given to the printing process from OS
             0 MiB allocation reported by mallinfo(arena+hblkhd)
       1881107 MiB available memory on the node where the printing process lives
------------------
     ethr =  5.86E-12,  avg # of iterations = 17.3


     -----------------------------------------------
     Non-local corr. energy    =      51.89544891 Ry
     -----------------------------------------------


     total cpu time spent up to now is     3956.3 secs

     End of self-consistent calculation

          k = 0.0000 0.0000 0.0000 (154543 PWs)   bands (ev):

    -9.4071  -6.9083  -6.7231  -6.7062  -6.6477  -6.6443  -6.6443  -6.6140
    -6.5965  -6.5965  -6.5730  -6.5622  -6.5622  -6.5287  -6.5072  -6.5025
    -6.4981  -6.4981  -6.4962  -6.4919  -6.4919  -6.4895  -6.4894  -6.4801
    -6.4732  -6.4732  -6.4654  -6.4654  -6.4583  -6.4521  -6.4491  -6.4491
    -6.4475  -6.4470  -6.4438  -6.4438  -6.4413  -6.4330  -6.4330  -6.4266
    -6.4240  -6.4229  -6.4229  -6.4197  -6.4197  -6.4170  -6.4170  -6.4163
    -6.4107  -6.4107  -6.4100  -6.4093  -6.4061  -6.4044  -6.4044  -6.4031
    -6.4031  -6.4023  -6.3946  -6.3946  -6.3929  -6.3898  -6.3898  -6.3872
    -6.3872  -6.3842  -6.3842  -6.3826  -6.3819  -6.3819  -6.3770  -6.3728
    -6.3728  -6.3702  -6.3702  -6.3672  -6.3663  -6.3663  -6.3631  -6.3631
    -6.3624  -6.3561  -6.3506  -6.3506  -6.3502  -6.3431  -6.3369  -6.3326
    -6.3326  -6.2796  -6.2370  -6.2370  -6.2260  -6.1978  -6.1978  -5.7482
    -5.5190  -5.4589  -5.4589  -5.4444  -5.4338  -5.4338  -5.4315  -5.4160
    -5.4160  -5.3991  -5.3959  -5.3959  -5.3949  -5.3949  -5.3926  -5.3784
    -5.3742  -5.3742  -5.3709  -5.3632  -5.3632  -5.3608  -5.3601  -5.3601
    -5.3538  -5.3538  -5.3470  -5.3454  -5.3454  -5.3407  -5.3377  -5.3325
    -5.3324  -5.3311  -5.3311  -5.3260  -5.3260  -5.3257  -5.3215  -5.3195
    -5.3195  -5.3195  -5.3177  -5.3177  -5.3140  -5.3108  -5.3108  -5.3061
    -5.3061  -5.3042  -5.3042  -5.3027  -5.3007  -5.2985  -5.2978  -5.2978
    -5.2949  -5.2949  -5.2948  -5.2939  -5.2939  -5.2919  -5.2913  -5.2913
    -5.2891  -5.2885  -5.2885  -5.2872  -5.2872  -5.2848  -5.2832  -5.2832
    -5.2825  -5.2824  -5.2786  -5.2786  -5.2772  -5.2766  -5.2766  -5.2720
    -5.2720  -5.2703  -5.2698  -5.2688  -5.2661  -5.2661  -5.2648  -5.2625
    -5.2625  -5.2603  -5.2603  -5.2601  -5.2601  -5.2601  -5.2582  -5.2577
    -5.2576  -5.2576  -5.2555  -5.2550  -5.2550  -5.2544  -5.2544  -5.2512
    -5.2505  -5.2496  -5.2496  -5.2488  -5.2488  -5.2485  -5.2477  -5.2477
    -5.2444  -5.2433  -5.2433  -5.2425  -5.2423  -5.2423  -5.2388  -5.2388
    -5.2379  -5.2342  -5.2342  -5.2331  -5.2331  -5.2329  -5.2329  -5.2308
    -5.2304  -5.2275  -5.2274  -5.2250  -5.2240  -5.2227  -5.2227  -5.2205
    -5.2205  -5.2204  -5.2161  -5.2161  -5.2157  -5.2132  -5.2132  -5.2125
    -5.2116  -5.2111  -5.2111  -5.2099  -5.2099  -5.2074  -5.2052  -5.2052
    -5.2050  -5.2050  -5.2025  -5.2015  -5.1989  -5.1988  -5.1973  -5.1973
    -5.1959  -5.1959  -5.1944  -5.1924  -5.1924  -5.1910  -5.1910  -5.1889
    -5.1886  -5.1886  -5.1872  -5.1872  -5.1872  -5.1864  -5.1853  -5.1853
    -5.1848  -5.1813  -5.1813  -5.1804  -5.1801  -5.1793  -5.1793  -5.1770
    -5.1730  -5.1728  -5.1728  -5.1725  -5.1718  -5.1718  -5.1689  -5.1689
    -5.1678  -5.1660  -5.1660  -5.1655  -5.1653  -5.1649  -5.1649  -5.1647
    -5.1647  -5.1635  -5.1621  -5.1618  -5.1613  -5.1613  -5.1568  -5.1568
    -5.1556  -5.1552  -5.1552  -5.1547  -5.1535  -5.1535  -5.1521  -5.1520
    -5.1520  -5.1511  -5.1494  -5.1483  -5.1483  -5.1479  -5.1458  -5.1457
    -5.1457  -5.1453  -5.1453  -5.1453  -5.1425  -5.1425  -5.1415  -5.1415
    -5.1413  -5.1388  -5.1388  -5.1369  -5.1353  -5.1353  -5.1331  -5.1331
    -5.1329  -5.1326  -5.1316  -5.1316  -5.1311  -5.1311  -5.1301  -5.1291
    -5.1278  -5.1275  -5.1275  -5.1268  -5.1268  -5.1250  -5.1250  -5.1231
    -5.1231  -5.1229  -5.1217  -5.1216  -5.1216  -5.1202  -5.1202  -5.1170
    -5.1170  -5.1167  -5.1153  -5.1127  -5.1127  -5.1124  -5.1118  -5.1105
    -5.1105  -5.1086  -5.1086  -5.1081  -5.1075  -5.1075  -5.1072  -5.1063
    -5.1063  -5.1044  -5.1042  -5.1024  -5.1022  -5.1022  -5.1006  -5.1006
    -5.0990  -5.0990  -5.0989  -5.0975  -5.0975  -5.0974  -5.0944  -5.0919
    -5.0914  -5.0914  -5.0902  -5.0902  -5.0874  -5.0862  -5.0858  -5.0858
    -5.0832  -5.0832  -5.0822  -5.0822  -5.0812  -5.0811  -5.0803  -5.0764
    -5.0764  -5.0757  -5.0728  -5.0728  -5.0721  -5.0683  -5.0683  -5.0661
    -5.0660  -5.0660  -5.0659  -5.0639  -5.0625  -5.0614  -5.0614  -5.0604
    -5.0582  -5.0571  -5.0571  -5.0555  -5.0555  -5.0521  -5.0487  -5.0487
    -5.0472  -5.0472  -5.0441  -5.0428  -5.0428  -5.0394  -5.0394  -5.0357
    -5.0357  -5.0310  -5.0310  -5.0310  -5.0275  -5.0187  -5.0187  -5.0178
    -5.0148  -5.0079  -5.0042  -5.0042  -4.9991  -4.9991  -4.9889  -4.9889
    -4.9803  -4.9803  -4.9750  -4.9750  -4.9583  -4.9532  -4.9489  -4.9489
    -4.9465  -4.9230  -4.9230  -4.9112  -4.8703  -4.8703  -4.8696  -4.8517
    -4.8517  -4.8327  -4.8145  -4.8111  -4.8111  -4.7660  -4.7660  -4.6981
    -4.6981  -4.6854  -4.6721  -4.6720  -4.6580  -4.6462  -4.6462  -4.6448
    -4.6303  -4.6141  -4.6141  -4.5977  -4.5977  -4.5830  -4.5830  -4.5653
    -4.3998  -4.3167  -4.2612  -4.2612  -4.2324  -3.8562  -3.8562  -3.8461
    -3.8385  -3.8385  -3.8367  -3.8313  -3.8313  -3.8256  -3.8255  -3.8255
    -3.8113  -3.8085  -3.8085  -3.7660  -3.7660  -3.7434  -3.7093  -3.6635
    -3.6634  -3.6578  -3.6578  -3.6467  -3.6447  -3.6333  -3.6333  -3.6175
    -3.6175  -3.6011  -3.5943  -3.5810  -3.5810  -3.5744  -3.5465  -3.5073
    -3.5072  -3.4774  -3.3623  -3.3622  -3.2674  -3.2486  -3.2380  -3.2380
    -3.2286  -3.2286  -3.2096  -3.1966  -3.1966  -3.1937  -3.1839  -3.1838
    -3.1744  -3.1744  -3.1738  -3.1652  -3.1652  -3.1395  -3.1395  -3.1392
    -3.1392  -3.0758  -3.0439  -3.0439  -2.9428  -2.8868  -2.8868  -2.8685
    -2.8685  -2.8658  -2.3423  -1.2440   2.0239   2.1768   2.1768   2.2454
     2.2481   2.2481   2.3052   2.4276   2.4276   2.5209   2.5209   2.5412
     2.6532   2.7230   2.7231   2.7276   2.7553   2.7553   2.7826   2.7826
     2.7959   2.8108   2.8217   2.8218   2.8323   2.8323   2.8406   2.8490
     2.8490   2.8537   2.8760   2.8761   2.8941   3.0291   3.0291   3.0414
     3.1419   3.1419   3.1500   3.1616   3.1616   3.2134   3.2791   3.2792
     3.2803   3.3017   3.3017   3.3182   3.3344   3.3345   3.3614   3.3971
     3.4033   3.4033   3.5175   3.5308   3.5429   3.5499   3.5500   3.5522
     3.5522   3.5687   3.5751   3.5839   3.5839   3.6128   3.6128   3.6955
     3.7128   3.7128   3.7997   3.8024   3.8025   3.8631   4.0847   4.0847
     4.5885   4.6086   4.7692   4.7692   4.8053   4.8467   4.8467   4.8531
     4.8561   4.8587   4.8588   4.8710   4.8710   4.8782   4.8782   4.8880
     4.9092   4.9270   4.9270   4.9342   4.9381   4.9382   4.9416   4.9418
     4.9418   4.9608   4.9608   4.9670   4.9670   4.9773   5.0692   5.0692
     5.0793   5.0981   5.1264   5.1311   5.1311   5.1433   5.1495   5.1495
     5.1657   5.1657   5.1910   5.4762   5.4762   5.6236   5.7550   5.8434
     5.8434   5.8452   5.8672   5.8673   5.8851   5.8875   5.9050   5.9051
     5.9110   5.9203   5.9204   5.9419   5.9419   5.9660   5.9661   5.9995
     6.0439   6.0459   6.0476   6.0476   6.0566   6.0616   6.0616   6.0772
     6.0772   6.0796   6.0913   6.0913   6.0922   6.0922   6.1232   6.1442
     6.1442   6.1582   6.2564   6.2710   6.2710   6.3460   6.3460   6.3656
     6.3691   6.3804   6.3804   6.3866   6.3999   6.3999   6.4122   6.4322
     6.4322   6.5033   6.5078   6.5152   6.5152   6.5627   6.6444   6.6444
     6.7012   6.7012   6.7210   6.7452   6.7587   6.7587   6.7710   6.8214
     6.8214   6.8351   6.8452   6.8453   6.8740   6.8922   6.8922   6.9199
     6.9199   6.9514   7.0269   7.0269   7.0443   7.1457   7.1516   7.1516
     7.1644   7.1702   7.1702   7.1740   7.1740   7.1779   7.2111   7.2172
     7.2173   7.2188   7.2447   7.2584   7.2584   7.2825   7.2826   7.3003
     7.3208   7.3208   7.3430   7.3583   7.4129   7.4129   7.4206   7.4206
     7.4331   7.4331   7.4555   7.4677   7.4693   7.5074   7.5074   7.5415
     7.5629   7.5629   7.5725   7.5734   7.5734   7.5769   7.5867   7.5867
     7.6167   7.6167   7.6825   7.6826   7.7474   7.7475   7.7871   7.8147
     7.8147   7.8425   7.8431   7.8431   7.8523   7.8523   7.8551   7.8609
     7.9103   7.9104   7.9264   7.9463   7.9613   7.9614   8.0087   8.0088
     8.0375   8.0391   8.0391   8.0849   8.0849   8.2346   8.2346   8.2371
     8.2737   8.2738   8.2763   8.4343   8.4344   8.4836   8.5051   8.5052
     8.7421   8.7421   8.9702   9.9014  10.2553  11.3645  11.9626  12.1541
    12.2065  12.2065  12.6068  12.6068  12.6254  12.6505  12.7122  12.7591
    12.7592  12.7733  12.8002  12.8055  12.8055  12.8570  12.9176  12.9176
    12.9332  12.9941  12.9941  13.0319  13.0319  13.0459  13.0536  13.0589
    13.0590  13.2287  13.3120  13.5011  13.5012  13.6193  13.6194  13.6690
    13.7320  13.7320  13.7598  13.8333  13.8334  13.9051  13.9463  14.0141
    14.0142  14.1240  14.1241  14.1735  14.1735  14.1835  14.2530  14.2656
    14.2656  14.2871  14.2872  14.2922  14.2966  14.2967  14.3067  14.3144
    14.3144  14.3293  14.3545  14.3556  14.3556  14.3702  14.3767  14.3768
    14.3878  14.3878  14.4179  14.5550  14.5550  14.5641  14.6234  14.6918
    14.6918  14.7010  14.7011  14.7234  14.7235  14.7480  14.7694  14.7694
    14.7814  14.7814  14.7916  14.8161  14.8161  14.8215  14.8500  14.8500
    14.8586  14.8962  14.8964  14.8964  14.9801  15.0835  15.0835  15.4301
    15.4434  15.4434  15.6141  15.6853  15.6854  15.7743  15.7992  15.7992
    15.8335  15.8335  15.8398  15.8573  15.8729  15.8729  15.9292  15.9429
    15.9429  15.9558  15.9617  15.9617  15.9889  16.0079  16.0080  16.0390
    16.0589  16.0589  16.0783  16.0783  16.1446  16.1452  16.1452  16.2120
    16.2129  16.2638  16.2638  16.2750  16.2841  16.2841  16.2993  16.2993
    16.3129  16.3615  16.3615  16.3920  16.3920  16.3976  16.3995  16.4166
    16.4185  16.4185  16.4384  16.4384  16.4530  16.4561  16.4576  16.4576
    16.4590  16.4686  16.4686  16.4768  16.4808  16.4838  16.4838  16.5003
    16.5003  16.5116  16.5238  16.5238  16.5535  16.5535  16.5693  16.6100
    16.6100

     occupation numbers 
     1.0000   1.0000   1.0000   1.0000   1.0000   1.0000   1.0000   1.0000
     1.0000   1.0000   1.0000   1.0000   1.0000   1.0000   1.0000   1.0000
     1.0000   1.0000   1.0000   1.0000   1.0000   1.0000   1.0000   1.0000
     1.0000   1.0000   1.0000   1.0000   1.0000   1.0000   1.0000   1.0000
     1.0000   1.0000   1.0000   1.0000   1.0000   1.0000   1.0000   1.0000
     1.0000   1.0000   1.0000   1.0000   1.0000   1.0000   1.0000   1.0000
     1.0000   1.0000   1.0000   1.0000   1.0000   1.0000   1.0000   1.0000
     1.0000   1.0000   1.0000   1.0000   1.0000   1.0000   1.0000   1.0000
     1.0000   1.0000   1.0000   1.0000   1.0000   1.0000   1.0000   1.0000
     1.0000   1.0000   1.0000   1.0000   1.0000   1.0000   1.0000   1.0000
     1.0000   1.0000   1.0000   1.0000   1.0000   1.0000   1.0000   1.0000
     1.0000   1.0000   1.0000   1.0000   1.0000   1.0000   1.0000   1.0000
     1.0000   1.0000   1.0000   1.0000   1.0000   1.0000   1.0000   1.0000
     1.0000   1.0000   1.0000   1.0000   1.0000   1.0000   1.0000   1.0000
     1.0000   1.0000   1.0000   1.0000   1.0000   1.0000   1.0000   1.0000
     1.0000   1.0000   1.0000   1.0000   1.0000   1.0000   1.0000   1.0000
     1.0000   1.0000   1.0000   1.0000   1.0000   1.0000   1.0000   1.0000
     1.0000   1.0000   1.0000   1.0000   1.0000   1.0000   1.0000   1.0000
     1.0000   1.0000   1.0000   1.0000   1.0000   1.0000   1.0000   1.0000
     1.0000   1.0000   1.0000   1.0000   1.0000   1.0000   1.0000   1.0000
     1.0000   1.0000   1.0000   1.0000   1.0000   1.0000   1.0000   1.0000
     1.0000   1.0000   1.0000   1.0000   1.0000   1.0000   1.0000   1.0000
     1.0000   1.0000   1.0000   1.0000   1.0000   1.0000   1.0000   1.0000
     1.0000   1.0000   1.0000   1.0000   1.0000   1.0000   1.0000   1.0000
     1.0000   1.0000   1.0000   1.0000   1.0000   1.0000   1.0000   1.0000
     1.0000   1.0000   1.0000   1.0000   1.0000   1.0000   1.0000   1.0000
     1.0000   1.0000   1.0000   1.0000   1.0000   1.0000   1.0000   1.0000
     1.0000   1.0000   1.0000   1.0000   1.0000   1.0000   1.0000   1.0000
     1.0000   1.0000   1.0000   1.0000   1.0000   1.0000   1.0000   1.0000
     1.0000   1.0000   1.0000   1.0000   1.0000   1.0000   1.0000   1.0000
     1.0000   1.0000   1.0000   1.0000   1.0000   1.0000   1.0000   1.0000
     1.0000   1.0000   1.0000   1.0000   1.0000   1.0000   1.0000   1.0000
     1.0000   1.0000   1.0000   1.0000   1.0000   1.0000   1.0000   1.0000
     1.0000   1.0000   1.0000   1.0000   1.0000   1.0000   1.0000   1.0000
     1.0000   1.0000   1.0000   1.0000   1.0000   1.0000   1.0000   1.0000
     1.0000   1.0000   1.0000   1.0000   1.0000   1.0000   1.0000   1.0000
     1.0000   1.0000   1.0000   1.0000   1.0000   1.0000   1.0000   1.0000
     1.0000   1.0000   1.0000   1.0000   1.0000   1.0000   1.0000   1.0000
     1.0000   1.0000   1.0000   1.0000   1.0000   1.0000   1.0000   1.0000
     1.0000   1.0000   1.0000   1.0000   1.0000   1.0000   1.0000   1.0000
     1.0000   1.0000   1.0000   1.0000   1.0000   1.0000   1.0000   1.0000
     1.0000   1.0000   1.0000   1.0000   1.0000   1.0000   1.0000   1.0000
     1.0000   1.0000   1.0000   1.0000   1.0000   1.0000   1.0000   1.0000
     1.0000   1.0000   1.0000   1.0000   1.0000   1.0000   1.0000   1.0000
     1.0000   1.0000   1.0000   1.0000   1.0000   1.0000   1.0000   1.0000
     1.0000   1.0000   1.0000   1.0000   1.0000   1.0000   1.0000   1.0000
     1.0000   1.0000   1.0000   1.0000   1.0000   1.0000   1.0000   1.0000
     1.0000   1.0000   1.0000   1.0000   1.0000   1.0000   1.0000   1.0000
     1.0000   1.0000   1.0000   1.0000   1.0000   1.0000   1.0000   1.0000
     1.0000   1.0000   1.0000   1.0000   1.0000   1.0000   1.0000   1.0000
     1.0000   1.0000   1.0000   1.0000   1.0000   1.0000   1.0000   1.0000
     1.0000   1.0000   1.0000   1.0000   1.0000   1.0000   1.0000   1.0000
     1.0000   1.0000   1.0000   1.0000   1.0000   1.0000   1.0000   1.0000
     1.0000   1.0000   1.0000   1.0000   1.0000   1.0000   1.0000   1.0000
     1.0000   1.0000   1.0000   1.0000   1.0000   1.0000   1.0000   1.0000
     1.0000   1.0000   1.0000   1.0000   1.0000   1.0000   1.0000   1.0000
     1.0000   1.0000   1.0000   1.0000   1.0000   1.0000   1.0000   1.0000
     1.0000   1.0000   1.0000   1.0000   1.0000   1.0000   1.0000   1.0000
     1.0000   1.0000   1.0000   1.0000   1.0000   1.0000   1.0000   1.0000
     1.0000   1.0000   1.0000   1.0000   1.0000   1.0000   1.0000   1.0000
     1.0000   1.0000   1.0000   1.0000   1.0000   1.0000   1.0000   1.0000
     1.0000   1.0000   1.0000   1.0000   1.0000   1.0000   1.0000   1.0000
     1.0000   1.0000   1.0000   1.0000   1.0000   1.0000   1.0000   1.0000
     1.0000   1.0000   1.0000   1.0000   1.0000   1.0000   1.0000   1.0000
     1.0000   1.0000   1.0000   1.0000   1.0000   1.0000   1.0000   1.0000
     1.0000   1.0000   1.0000   1.0000   1.0000   1.0000   1.0000   1.0000
     1.0000   1.0000   1.0000   1.0000   1.0000   1.0000   1.0000   1.0000
     1.0000   1.0000   1.0000   1.0000   1.0000   1.0000   1.0000   1.0000
     1.0000   1.0000   1.0000   1.0000   1.0000   1.0000   1.0000   1.0000
     1.0000   1.0000   1.0000   1.0000   1.0000   1.0000   1.0000   1.0000
     1.0000   1.0000   1.0000   1.0000   1.0000   1.0000   1.0000   1.0000
     1.0000   1.0000   1.0000   1.0000   1.0000   1.0000   1.0000   1.0000
     1.0000   1.0000   1.0000   1.0000   1.0000   1.0000   1.0000   1.0000
     1.0000   1.0000   1.0000   1.0000   1.0000   1.0000   1.0000   1.0000
     1.0000   1.0000   1.0000   1.0000   1.0000   1.0000   1.0000   1.0000
     1.0000   1.0000   1.0000   1.0000   1.0000   1.0000   1.0000   1.0000
     1.0000   1.0000   1.0000   1.0000   1.0000   1.0000   1.0000   1.0000
     1.0000   1.0000   1.0000   1.0000   1.0000   1.0000   1.0000   1.0000
     1.0000   1.0000   1.0000   1.0000   1.0000   1.0000   1.0000   1.0000
     1.0000   1.0000   1.0000   1.0000   1.0000   1.0000   1.0000   1.0000
     1.0000   1.0000   1.0000   1.0000   1.0000   1.0000   1.0000   1.0000
     1.0000   1.0000   1.0000   1.0000   1.0000   1.0000   1.0000   1.0000
     1.0000   1.0000   1.0000   1.0000   1.0000   1.0000   1.0000   1.0000
     1.0000   1.0000   1.0000   1.0000   1.0000   1.0000   1.0000   1.0000
     1.0000   1.0000   1.0000   1.0000   1.0000   1.0000   1.0000   1.0000
     1.0000   1.0000   1.0000   1.0000   1.0000   1.0000   1.0000   1.0000
     1.0000   1.0000   1.0000   1.0000   1.0000   1.0000   1.0000   1.0000
     1.0000   1.0000   1.0000   1.0000   1.0000   1.0000   1.0000   1.0000
     1.0000   1.0000   1.0000   1.0000   1.0000   1.0000   1.0000   1.0000
     1.0000   1.0000   1.0000   1.0000   1.0000   1.0000   1.0000   1.0000
     1.0000   1.0000   1.0000   1.0000   1.0000   1.0000   1.0000   1.0000
     1.0000   1.0000   1.0000   1.0000   1.0000   1.0000   1.0000   1.0000
     1.0000   1.0000   1.0000   1.0000   1.0000   1.0000   1.0000   1.0000
     1.0000   1.0000   1.0000   1.0000   1.0000   1.0000   1.0000   1.0000
     1.0000   1.0000   1.0000   1.0000   1.0000   1.0000   1.0000   1.0000
     1.0000   1.0000   1.0000   1.0000   1.0000   1.0000   1.0000   1.0000
     1.0000   1.0000   1.0000   1.0000   1.0000   1.0000   1.0000   1.0000
     1.0000   1.0000   1.0000   1.0000   1.0000   1.0000   1.0000   1.0000
     1.0000   1.0000   1.0000   1.0000   1.0000   1.0000   1.0000   1.0000
     1.0000   1.0000   1.0000   1.0000   1.0000   1.0000   1.0000   1.0000
     1.0000   1.0000   1.0000   1.0000   1.0000   1.0000   1.0000   1.0000
     1.0000   1.0000   1.0000   1.0000   1.0000   1.0000   1.0000   1.0000
     1.0000   1.0000   1.0000   1.0000   1.0000   1.0000   1.0000   1.0000
     1.0000   1.0000   1.0000   1.0000   1.0000   1.0000   1.0000   1.0000
     1.0000   1.0000   1.0000   1.0000   1.0000   1.0000   1.0000   1.0000
     1.0000   1.0000   1.0000   1.0000   1.0000   1.0000   1.0000   1.0000
     1.0000   1.0000   1.0000   1.0000   1.0000   1.0000   1.0000   1.0000
     1.0000   1.0000   1.0000   1.0000   1.0000   0.0156   0.0000   0.0000
     0.0000   0.0000   0.0000   0.0000   0.0000   0.0000   0.0000   0.0000
     0.0000   0.0000   0.0000   0.0000   0.0000   0.0000   0.0000   0.0000
     0.0000   0.0000   0.0000   0.0000   0.0000   0.0000   0.0000   0.0000
     0.0000   0.0000   0.0000   0.0000   0.0000   0.0000   0.0000   0.0000
     0.0000   0.0000   0.0000   0.0000   0.0000   0.0000   0.0000   0.0000
     0.0000   0.0000   0.0000   0.0000   0.0000   0.0000   0.0000   0.0000
     0.0000   0.0000   0.0000   0.0000   0.0000   0.0000   0.0000   0.0000
     0.0000   0.0000   0.0000   0.0000   0.0000   0.0000   0.0000   0.0000
     0.0000   0.0000   0.0000   0.0000   0.0000   0.0000   0.0000   0.0000
     0.0000   0.0000   0.0000   0.0000   0.0000   0.0000   0.0000   0.0000
     0.0000   0.0000   0.0000   0.0000   0.0000   0.0000   0.0000   0.0000
     0.0000   0.0000   0.0000   0.0000   0.0000   0.0000   0.0000   0.0000
     0.0000   0.0000   0.0000   0.0000   0.0000   0.0000   0.0000   0.0000
     0.0000   0.0000   0.0000   0.0000   0.0000   0.0000   0.0000   0.0000
     0.0000   0.0000   0.0000   0.0000   0.0000   0.0000   0.0000   0.0000
     0.0000   0.0000   0.0000   0.0000   0.0000   0.0000   0.0000   0.0000
     0.0000   0.0000   0.0000   0.0000   0.0000   0.0000   0.0000   0.0000
     0.0000   0.0000   0.0000   0.0000   0.0000   0.0000   0.0000   0.0000
     0.0000   0.0000   0.0000   0.0000   0.0000   0.0000   0.0000   0.0000
     0.0000   0.0000   0.0000   0.0000   0.0000   0.0000   0.0000   0.0000
     0.0000   0.0000   0.0000   0.0000   0.0000   0.0000   0.0000   0.0000
     0.0000

          k = 0.0000 0.0000-0.4090 (154532 PWs)   bands (ev):

    -9.4071  -6.8756  -6.8180  -6.6682  -6.6366  -6.6366  -6.6182  -6.5803
    -6.5803  -6.5798  -6.5727  -6.5727  -6.5686  -6.5529  -6.5424  -6.5424
    -6.5387  -6.5214  -6.5072  -6.5072  -6.4916  -6.4697  -6.4697  -6.4604
    -6.4537  -6.4537  -6.4522  -6.4512  -6.4512  -6.4479  -6.4479  -6.4467
    -6.4460  -6.4429  -6.4392  -6.4368  -6.4367  -6.4325  -6.4325  -6.4296
    -6.4275  -6.4275  -6.4249  -6.4249  -6.4238  -6.4199  -6.4199  -6.4180
    -6.4171  -6.4143  -6.4140  -6.4140  -6.4079  -6.4079  -6.4036  -6.4028
    -6.4028  -6.4011  -6.3969  -6.3969  -6.3936  -6.3907  -6.3907  -6.3878
    -6.3878  -6.3812  -6.3811  -6.3809  -6.3795  -6.3776  -6.3776  -6.3740
    -6.3740  -6.3692  -6.3692  -6.3683  -6.3676  -6.3676  -6.3615  -6.3613
    -6.3613  -6.3558  -6.3514  -6.3514  -6.3483  -6.3434  -6.3366  -6.3326
    -6.3326  -6.2797  -6.2374  -6.2374  -6.2261  -6.1974  -6.1974  -5.7481
    -5.5190  -5.4589  -5.4589  -5.4444  -5.4338  -5.4338  -5.4315  -5.4159
    -5.4159  -5.3991  -5.3959  -5.3959  -5.3949  -5.3949  -5.3925  -5.3745
    -5.3742  -5.3742  -5.3708  -5.3632  -5.3632  -5.3607  -5.3600  -5.3600
    -5.3539  -5.3539  -5.3454  -5.3454  -5.3412  -5.3405  -5.3368  -5.3322
    -5.3322  -5.3311  -5.3311  -5.3261  -5.3261  -5.3258  -5.3190  -5.3190
    -5.3179  -5.3176  -5.3173  -5.3173  -5.3133  -5.3097  -5.3096  -5.3055
    -5.3055  -5.3043  -5.3042  -5.3042  -5.3028  -5.3022  -5.2982  -5.2982
    -5.2954  -5.2954  -5.2952  -5.2947  -5.2947  -5.2947  -5.2941  -5.2934
    -5.2924  -5.2924  -5.2903  -5.2903  -5.2888  -5.2888  -5.2862  -5.2857
    -5.2847  -5.2847  -5.2798  -5.2798  -5.2784  -5.2782  -5.2782  -5.2718
    -5.2718  -5.2706  -5.2695  -5.2695  -5.2691  -5.2658  -5.2656  -5.2652
    -5.2652  -5.2628  -5.2616  -5.2616  -5.2605  -5.2605  -5.2604  -5.2583
    -5.2583  -5.2554  -5.2553  -5.2553  -5.2540  -5.2530  -5.2518  -5.2518
    -5.2493  -5.2493  -5.2489  -5.2486  -5.2463  -5.2462  -5.2462  -5.2457
    -5.2457  -5.2406  -5.2406  -5.2386  -5.2386  -5.2380  -5.2370  -5.2369
    -5.2353  -5.2353  -5.2326  -5.2326  -5.2297  -5.2297  -5.2293  -5.2270
    -5.2268  -5.2265  -5.2265  -5.2258  -5.2254  -5.2254  -5.2243  -5.2243
    -5.2194  -5.2176  -5.2176  -5.2164  -5.2163  -5.2118  -5.2118  -5.2113
    -5.2103  -5.2098  -5.2098  -5.2091  -5.2091  -5.2059  -5.2058  -5.2047
    -5.2047  -5.2042  -5.2042  -5.2006  -5.2005  -5.2005  -5.1981  -5.1981
    -5.1976  -5.1975  -5.1965  -5.1965  -5.1963  -5.1937  -5.1936  -5.1936
    -5.1936  -5.1919  -5.1918  -5.1901  -5.1885  -5.1879  -5.1879  -5.1874
    -5.1874  -5.1873  -5.1866  -5.1852  -5.1835  -5.1835  -5.1788  -5.1788
    -5.1781  -5.1781  -5.1762  -5.1760  -5.1731  -5.1731  -5.1724  -5.1708
    -5.1704  -5.1704  -5.1683  -5.1683  -5.1655  -5.1655  -5.1648  -5.1624
    -5.1624  -5.1622  -5.1607  -5.1606  -5.1606  -5.1606  -5.1593  -5.1581
    -5.1581  -5.1566  -5.1566  -5.1555  -5.1555  -5.1555  -5.1542  -5.1536
    -5.1536  -5.1533  -5.1485  -5.1483  -5.1470  -5.1470  -5.1467  -5.1467
    -5.1439  -5.1439  -5.1433  -5.1424  -5.1408  -5.1408  -5.1398  -5.1398
    -5.1397  -5.1378  -5.1378  -5.1360  -5.1360  -5.1343  -5.1324  -5.1324
    -5.1318  -5.1315  -5.1314  -5.1314  -5.1308  -5.1293  -5.1293  -5.1286
    -5.1286  -5.1271  -5.1271  -5.1270  -5.1243  -5.1243  -5.1218  -5.1210
    -5.1210  -5.1203  -5.1203  -5.1179  -5.1178  -5.1178  -5.1155  -5.1155
    -5.1155  -5.1143  -5.1143  -5.1142  -5.1121  -5.1117  -5.1111  -5.1111
    -5.1100  -5.1100  -5.1089  -5.1078  -5.1070  -5.1070  -5.1057  -5.1057
    -5.1050  -5.1050  -5.1024  -5.1024  -5.1012  -5.0999  -5.0999  -5.0977
    -5.0975  -5.0972  -5.0972  -5.0964  -5.0964  -5.0953  -5.0928  -5.0914
    -5.0914  -5.0887  -5.0887  -5.0873  -5.0873  -5.0872  -5.0862  -5.0846
    -5.0846  -5.0833  -5.0833  -5.0812  -5.0800  -5.0800  -5.0760  -5.0760
    -5.0758  -5.0723  -5.0720  -5.0720  -5.0687  -5.0687  -5.0667  -5.0654
    -5.0650  -5.0649  -5.0649  -5.0635  -5.0612  -5.0612  -5.0610  -5.0582
    -5.0582  -5.0581  -5.0560  -5.0560  -5.0522  -5.0490  -5.0490  -5.0469
    -5.0469  -5.0441  -5.0433  -5.0433  -5.0392  -5.0392  -5.0358  -5.0358
    -5.0313  -5.0313  -5.0312  -5.0297  -5.0186  -5.0186  -5.0177  -5.0176
    -5.0079  -5.0043  -5.0042  -4.9992  -4.9992  -4.9884  -4.9884  -4.9771
    -4.9771  -4.9706  -4.9706  -4.9583  -4.9558  -4.9485  -4.9485  -4.9465
    -4.9217  -4.9079  -4.9079  -4.8730  -4.8673  -4.8673  -4.8588  -4.8587
    -4.8465  -4.8327  -4.8283  -4.8283  -4.8279  -4.8181  -4.7875  -4.7875
    -4.7605  -4.7605  -4.7575  -4.7429  -4.7429  -4.6848  -4.6548  -4.6548
    -4.6303  -4.6007  -4.6007  -4.5653  -4.4306  -4.4306  -4.3110  -4.3064
    -4.3064  -4.3051  -4.2901  -4.2901  -4.2662  -4.2662  -4.2164  -4.1443
    -4.1442  -4.0184  -3.8228  -3.8168  -3.8167  -3.8063  -3.7726  -3.7666
    -3.7666  -3.7611  -3.7611  -3.7512  -3.7341  -3.7177  -3.7177  -3.7025
    -3.6298  -3.6223  -3.6223  -3.5274  -3.5274  -3.5112  -3.4441  -3.4441
    -3.4313  -3.4300  -3.4300  -3.4256  -3.4256  -3.4222  -3.4216  -3.4216
    -3.4178  -3.4065  -3.4065  -3.4058  -3.3991  -3.3976  -3.3976  -3.3864
    -3.3864  -3.3836  -3.3750  -3.3666  -3.3666  -3.3292  -3.3292  -3.3118
    -3.2068  -3.1690  -3.1690  -3.1178  -3.0784  -3.0784  -3.0580  -3.0439
    -3.0439  -2.9938  -2.9938  -2.9755  -2.9589  -2.9443  -2.9443  -2.9214
    -2.8865  -2.8865  -2.3457  -1.2445   2.2076   2.2077   2.3321   2.3437
     2.3438   2.3624   2.3825   2.3825   2.4005   2.4340   2.4354   2.4354
     2.4835   2.5296   2.5902   2.5902   2.7839   2.9019   2.9020   2.9165
     2.9250   2.9250   2.9400   2.9471   2.9471   2.9549   2.9550   2.9638
     2.9696   2.9722   2.9723   2.9744   2.9744   2.9799   2.9836   2.9970
     2.9970   3.0030   3.0074   3.0074   3.0104   3.0105   3.0204   3.0204
     3.0322   3.0489   3.0489   3.0714   3.1362   3.1881   3.1881   3.2822
     3.3313   3.3314   3.3344   3.4543   3.4543   3.5620   3.6235   3.6235
     3.6360   3.6488   3.6488   3.6948   3.7035   3.7074   3.7075   3.9237
     3.9237   4.0875   4.2006   4.2108   4.2108   4.2160   4.2309   4.2309
     4.2382   4.2383   4.2569   4.3796   4.3796   4.7008   4.7953   4.9060
     4.9060   4.9139   4.9244   4.9244   4.9310   4.9452   4.9626   4.9626
     4.9966   4.9974   5.0170   5.0171   5.0496   5.0629   5.0630   5.0754
     5.0847   5.0869   5.0869   5.1196   5.1197   5.1363   5.1472   5.1472
     5.1961   5.1962   5.2284   5.2458   5.2458   5.3112   5.3705   5.3706
     5.3931   5.4079   5.4080   5.4313   5.4313   5.4340   5.4606   5.4983
     5.4983   5.5084   5.5465   5.5565   5.5565   5.5567   5.5585   5.5751
     5.5751   5.5884   5.5884   5.5999   5.6188   5.6188   5.6203   5.6388
     5.6388   5.6496   5.6812   5.6812   5.7431   5.7431   5.7617   5.9553
     5.9553   6.2161   6.2263   6.2263   6.3001   6.3604   6.3604   6.4530
     6.5280   6.5469   6.5469   6.5569   6.5867   6.5902   6.5902   6.5978
[...]
     -----------------------------------------------

          total   stress  (Ry/bohr**3)                   (kbar)     P=       11.14
   0.00003917   0.00000000   0.00000000            5.76        0.00        0.00
   0.00000000   0.00003917   0.00000000            0.00        5.76        0.00
   0.00000000   0.00000000   0.00014882            0.00        0.00       21.89

     kinetic stress (kbar)  18375.14      0.00      0.00
                                0.00  18375.14      0.00
                                0.00      0.00  18426.32

     local   stress (kbar)   5042.33     -0.07     -0.00
                               -0.07   5042.23     -0.00
                               -0.00     -0.00   3889.50

     nonloc. stress (kbar)     90.04     -0.00      0.00
                               -0.00     90.04      0.00
                                0.00      0.00     93.98

     hartree stress (kbar)  19548.78     -0.00     -0.00
                               -0.00  19548.78      0.00
                               -0.00      0.00  20094.97

     exc-cor stress (kbar)   5142.68      0.00     -0.00
                                0.00   5142.68      0.00
                               -0.00      0.00   5142.07

     corecor stress (kbar) -13976.46     -0.00     -0.00
                               -0.00 -13976.46      0.00
                               -0.00      0.00 -13976.80

     ewald   stress (kbar) -34377.34      0.09      0.00
                                0.09 -34377.22     -0.00
                                0.00     -0.00 -33808.23

     hubbard stress (kbar)      0.00      0.00      0.00
                                0.00      0.00      0.00
                                0.00      0.00      0.00

     DFT-D   stress (kbar)      0.00      0.00      0.00
                                0.00      0.00      0.00
                                0.00      0.00      0.00

     XDM     stress (kbar)      0.00      0.00      0.00
                                0.00      0.00      0.00
                                0.00      0.00      0.00

     dft-nl  stress (kbar)    160.58     -0.00     -0.00
                               -0.00    160.58     -0.00
                               -0.00     -0.00    160.09

     TS-vdW  stress (kbar)      0.00      0.00      0.00
                                0.00      0.00      0.00
                                0.00      0.00      0.00

     MDB     stress (kbar)      0.00      0.00      0.00
                                0.00      0.00      0.00
                                0.00      0.00      0.00

     3D-RISM stress (kbar)      0.00      0.00      0.00
                                0.00      0.00      0.00
                                0.00      0.00      0.00

     Energy error            =      2.2E-05 Ry
     Gradient error          =      7.6E-04 Ry/Bohr

     bfgs converged in   8 scf cycles and   7 bfgs steps
     (criteria: energy <  1.0E-04 Ry, force <  1.0E-03 Ry/Bohr)

     End of BFGS Geometry Optimization

     Final energy             =  -29724.0916369515 Ry

     File ./GaN.bfgs deleted, as requested
Begin final coordinates

ATOMIC_POSITIONS (angstrom)
Ga            1.6222756606        0.9366198184        7.8340985788
Ga            1.6222756606        0.9366198184       13.1251067560
Ga            0.0675336651        3.6786163073        2.6555334218
Ga           -0.0092972851        3.7568763322        7.9498870638
Ga           -0.0014363815        3.7437701964       13.2002537348
Ga           -1.6216424962        6.5567064055        2.6373225805
Ga           -1.6243170222        6.5551622673        7.9233472021
Ga           -1.6232578954        6.5557737544       13.2271812181
Ga           -3.2695535549        9.4586209218        2.6555334218
Ga           -3.2401938604        9.3529533546        7.9498870638
Ga           -3.2476136551        9.3663141647       13.2002537348
Ga            4.7742852747        0.9120676385        2.6555334218
Ga            4.8804759195        0.9394751807        7.9498870638
Ga            4.8651952212        0.9392205064       13.2002537348
Ga            3.1770176561        3.6786163073        2.6555334218
Ga            3.2538486063        3.7568763322        7.9498870638
Ga            3.2459877027        3.7437701964       13.2002537348
Ga            1.6222756606        6.5512417314        2.6470972918
Ga            1.6222756606        6.5563031781        7.9279275252
Ga            1.6222756606        6.5577435781       13.2173695437
Ga           -0.0044159644        9.3687542742        2.6470972918
Ga           -0.0000326229        9.3662235508        7.9279275252
Ga            0.0012148000        9.3655033509       13.2173695437
Ga            8.1113724947        0.9358920565        2.6373225805
Ga            8.1113724947        0.9389803331        7.9233472021
Ga            8.1113724947        0.9377573588       13.2271812181
Ga            6.4759477286        3.7388886935        2.6440930822
Ga            6.4875477701        3.7455859806        7.9201901441
Ga            6.4914534304        3.7478409146       13.2210988168
Ga            4.8661938174        6.5567064055        2.6373225805
Ga            4.8688683434        6.5551622673        7.9233472021
Ga            4.8678092166        6.5557737544       13.2271812181
Ga            3.2489672856        9.3687542742        2.6470972918
Ga            3.2445839441        9.3662235508        7.9279275252
Ga            3.2433365212        9.3655033509       13.2173695437
Ga           11.4484597148        0.9120676385        2.6555334218
Ga           11.3422690700        0.9394751807        7.9498870638
Ga           11.3575497683        0.9392205064       13.2002537348
Ga            9.7467972609        3.7388886935        2.6440930822
Ga            9.7351972194        3.7455859806        7.9201901441
Ga            9.7312915591        3.7478409146       13.2210988168
Ga            8.1113724947        6.5715274806        2.6440930822
Ga            8.1113724947        6.5581329064        7.9201901441
Ga            8.1113724947        6.5536230383       13.2210988168
Ga            6.5141048761        9.4586209218        2.6555334218
Ga            6.4847451816        9.3529533546        7.9498870638
Ga            6.4921649763        9.3663141647       13.2002537348
Ga            0.0170286207        1.8634098334        5.3351000155
Ga            0.0025014302        1.8717971107       10.5365219376
Ga            0.0450370490        1.8472391598       15.7951392176
Ga           -1.6164253176        4.6782827807        5.2756988171
Ga           -1.6263662247        4.6864211278       10.5774065899
Ga           -1.6150549629        4.6717865931       15.8647614588
Ga           -3.2458000789        7.5004426518        5.2756988171
Ga           -3.2437225171        7.4877644002       10.5774065899
Ga           -3.2507407651        7.5048775076       15.8647614588
Ga           -4.8668245904       10.3224917320        5.3351000155
Ga           -4.8668245904       10.3057171772       10.5365219376
Ga           -4.8668245904       10.3548330791       15.7951392176
Ga            3.2275158668        1.8634098334        5.3351000155
Ga            3.2420430573        1.8717971107       10.5365219376
Ga            3.1995074385        1.8472391598       15.7951392176
Ga            1.6222722437        4.6718019346        5.2969800258
Ga            1.6222722437        4.6898911241       10.5774050576
Ga            1.6222722437        4.6793237894       15.8496299438
Ga           -0.0012364813        7.4922524043        5.2838383892
Ga           -0.0014619833        7.4921222106       10.5717644516
Ga           -0.0001390202        7.4928860237       15.8645473472
Ga           -1.6320638755       10.3084774382        5.2969800258
Ga           -1.6163981779       10.2994328435       10.5774050576
Ga           -1.6255497582       10.3047165108       15.8496299438
Ga            6.4819943166        1.8705859663        5.2756988171
Ga            6.4940127855        1.8751258708       10.5774065899
Ga            6.4756832758        1.8726472981       15.8647614588
Ga            4.8609698051        4.6782827807        5.2756988171
Ga            4.8709107122        4.6864211278       10.5774065899
Ga            4.8595994504        4.6717865931       15.8647614588
Ga            3.2457809688        7.4922524043        5.2838383892
Ga            3.2460064708        7.4921222106       10.5717644516
Ga            3.2446835077        7.4928860237       15.8645473472
Ga            1.6222722437       10.3042520025        5.2838383892
Ga            1.6222722437       10.3045123899       10.5717644516
Ga            1.6222722437       10.3029847637       15.8645473472
Ga            9.7407438391        1.8705859663        5.2756988171
Ga            9.7287253702        1.8751258708       10.5774065899
Ga            9.7470548799        1.8726472981       15.8647614588
Ga            8.1113690779        4.6831037996        5.2818896365
Ga            8.1113690779        4.6831037996       10.5665062698
Ga            8.1113690779        4.6831037996       15.8684895414
Ga            6.4903445663        7.5004426518        5.2756988171
Ga            6.4882670045        7.4877644002       10.5774065899
Ga            6.4952852525        7.5048775076       15.8647614588
Ga            4.8766083630       10.3084774382        5.2969800258
Ga            4.8609426654       10.2994328435       10.5774050576
Ga            4.8700942457       10.3047165108       15.8496299438
N             1.6222756606        0.9366198184        5.0899979846
N             1.6222756606        0.9366198184        9.8895003962
N             1.6222756606        0.9366198184       15.0828578489
N             0.0043187867        3.7307432979        4.6303522174
N            -0.0017896929        3.7624397482        9.9355734003
N             0.0033857250        3.7377234940       15.2004661315
N            -1.6237017183        6.5555175131        4.6236559469
N            -1.6228818170        6.5559908833        9.9187027858
N            -1.6255179843        6.5544688915       15.2227869757
N            -3.2560176960        9.3778117358        4.6303522174
N            -3.2316220047        9.3566734121        9.9355734003
N            -3.2504391998        9.3735135827       15.2004661315
N             4.8510360121        0.9407498338        4.6303522174
N             4.8815401830        0.9301917072        9.9355734003
N             4.8575475700        0.9380677908       15.2004661315
N             3.2402325345        3.7307432979        4.6303522174
N             3.2463410141        3.7624397482        9.9355734003
N             3.2411655962        3.7377234940       15.2004661315
N             1.6222756606        6.5507210890        4.6340116264
N             1.6222756606        6.5605607915        9.9211305805
N             1.6222756606        6.5559069708       15.2108921351
N            -0.0048668540        9.3690145954        4.6340116264
N             0.0036545784        9.3640947441        9.9211305805
N            -0.0003757485        9.3664216545       15.2108921351
N             8.1113724947        0.9382698414        4.6236559469
N             8.1113724947        0.9373231009        9.9187027858
N             8.1113724947        0.9403670847       15.2227869757
N             6.4884768592        3.7461223904        4.6300735886
N             6.4886371888        3.7462149568        9.9169214379
N             6.4886540949        3.7462247175       15.2136256886
N             4.8682530395        6.5555175131        4.6236559469
N             4.8674331382        6.5559908833        9.9187027858
N             4.8700693055        6.5544688915       15.2227869757
N             3.2494181752        9.3690145954        4.6340116264
N             3.2408967428        9.3640947441        9.9211305805
N             3.2449270697        9.3664216545       15.2108921351
N            11.3717089774        0.9407498338        4.6303522174
N            11.3412048065        0.9301917072        9.9355734003
N            11.3651974195        0.9380677908       15.2004661315
N             9.7342681303        3.7461223904        4.6300735886
N             9.7341078007        3.7462149568        9.9169214379
N             9.7340908946        3.7462247175       15.2136256886
N             8.1113724947        6.5570600867        4.6300735886
N             8.1113724947        6.5568749540        9.9169214379
N             8.1113724947        6.5568554325       15.2136256886
N             6.5005690172        9.3778117358        4.6303522174
N             6.4761733259        9.3566734121        9.9355734003
N             6.4949905210        9.3735135827       15.2004661315
N             0.3002969907        1.6998647637        1.9221402421
N            -0.0504850241        1.9023888544        7.3429332928
N            -0.0097129020        1.8788490587       12.5321388945
N            -1.5835988585        4.6392984295        1.9930055251
N            -1.6240753541        4.6893667600        7.2684087905
N            -1.6264878044        4.6859523608       12.5702002681
N            -3.2631482878        7.5483633749        1.9930055251
N            -3.2400260895        7.4882755362        7.2684087905
N            -3.2441892711        7.4878934926       12.5702002681
N            -4.8668245904       10.6495818712        1.9221402421
N            -4.8668245904       10.2445336899        7.3429332928
N            -4.8668245904       10.2916132813       12.5321388945
N             2.9442474968        1.6998647637        1.9221402421
N             3.2950295116        1.9023888544        7.3429332928
N             3.2542573895        1.8788490587       12.5321388945
N             1.6222722437        4.6780481776        1.9780674428
N             1.6222722437        4.6826336784        7.2843655800
N             1.6222722437        4.6865638863       12.5682518023
N             0.0009251140        7.4935004019        1.9894686223
N             0.0001903124        7.4930761640        7.2739806792
N            -0.0017346110        7.4919648089       12.5677347409
N            -1.6266544704       10.3053543167        1.9780674428
N            -1.6226833102       10.3030615663        7.2843655800
N            -1.6192796503       10.3010964624       12.5682518023
N             6.4318196486        1.8616495944        1.9930055251
N             6.4954183425        1.8716691026        7.2684087905
N             6.4936676112        1.8754655454       12.5702002681
N             4.8281433460        4.6392984295        1.9930055251
N             4.8686198416        4.6893667600        7.2684087905
N             4.8710322919        4.6859523608       12.5702002681
N             3.2436193735        7.4935004019        1.9894686223
N             3.2443541751        7.4930761640        7.2739806792
N             3.2462790985        7.4919648089       12.5677347409
N             1.6222722437       10.3017560073        1.9894686223
N             1.6222722437       10.3026044831        7.2739806792
N             1.6222722437       10.3048271932       12.5677347409
N             9.7909185071        1.8616495944        1.9930055251
N             9.7273198132        1.8716691026        7.2684087905
N             9.7290705445        1.8754655454       12.5702002681
N             8.1113690779        4.6831037996        1.9945549991
N             8.1113690779        4.6831037996        7.2723152408
N             8.1113690779        4.6831037996       12.5633392420
N             6.5076927752        7.5483633749        1.9930055251
N             6.4845705769        7.4882755362        7.2684087905
N             6.4887337585        7.4878934926       12.5702002681
N             4.8711989579       10.3053543167        1.9780674428
N             4.8672277977       10.3030615663        7.2843655800
N             4.8638241378       10.3010964624       12.5682518023
N             1.6222756606        0.9366198184        2.4035461838
End final coordinates



     Writing all to output data dir ./GaN.save/
 
     init_run     :     24.47s CPU     37.73s WALL (       1 calls)
     electrons    :  26860.96s CPU  27214.93s WALL (       8 calls)
     update_pot   :     10.17s CPU     10.28s WALL (       7 calls)
     forces       :     80.40s CPU     82.01s WALL (       8 calls)
     stress       :   1363.00s CPU   1375.34s WALL (       8 calls)

     Called by init_run:
     wfcinit      :     20.42s CPU     33.22s WALL (       1 calls)
     wfcinit:atom :      0.08s CPU      0.08s WALL (       1 calls)
     wfcinit:wfcr :     18.72s CPU     31.23s WALL (       1 calls)
     potinit      :      0.98s CPU      1.17s WALL (       1 calls)
     hinit0       :      1.82s CPU      2.04s WALL (       1 calls)

     Called by electrons:
     c_bands      :  26390.72s CPU  26732.81s WALL (     101 calls)
     sum_band     :    359.45s CPU    365.03s WALL (     101 calls)
     v_of_rho     :     58.76s CPU     59.74s WALL (     104 calls)
     v_h          :      0.55s CPU      0.56s WALL (     104 calls)
     v_xc         :     66.60s CPU     67.67s WALL (     120 calls)
     newd         :     13.00s CPU     13.20s WALL (     104 calls)
     PAW_pot      :     30.10s CPU     30.47s WALL (     111 calls)
     mix_rho      :      3.47s CPU      3.59s WALL (     101 calls)
     vdW_kernel   :      0.16s CPU      0.16s WALL (       1 calls)

     Called by c_bands:
     init_us_2    :     13.64s CPU     13.95s WALL (     210 calls)
     init_us_2:cp :     13.64s CPU     13.95s WALL (     210 calls)
     cegterg      :  18475.47s CPU  18721.46s WALL (     102 calls)

     Called by sum_band:
     sum_band:wei :      0.47s CPU      1.05s WALL (     101 calls)
     sum_band:loo :    331.63s CPU    335.15s WALL (     101 calls)
     sum_band:buf :      0.00s CPU      0.00s WALL (     101 calls)
     sum_band:ini :     10.53s CPU     10.69s WALL (     101 calls)
     sum_band:cal :    209.97s CPU    211.84s WALL (     108 calls)
     sum_band:bec :      2.66s CPU      2.71s WALL (     108 calls)
     addusdens    :     11.86s CPU     12.19s WALL (     101 calls)
     addusd:skk   :      1.61s CPU      1.69s WALL (     202 calls)
     addusd:dgemm :      4.98s CPU      5.18s WALL (     202 calls)
     addusd:qvan2 :      1.60s CPU      1.61s WALL (     202 calls)

     Called by *egterg:
     cdiaghg      :  14385.87s CPU  14496.55s WALL (    1209 calls)
     cegterg:over :    787.15s CPU    816.22s WALL (    1120 calls)
     cegterg:upda :    484.94s CPU    495.50s WALL (    1120 calls)
     cegterg:last :    252.82s CPU    254.82s WALL (     108 calls)
     h_psi        :   1795.17s CPU   1828.94s WALL (    1223 calls)
     s_psi        :    549.95s CPU    561.83s WALL (    1223 calls)
     g_psi        :      2.43s CPU      2.47s WALL (    1120 calls)

     Called by h_psi:
     h_psi:calbec :    596.46s CPU    601.67s WALL (    1223 calls)
     vloc_psi     :    636.71s CPU    644.34s WALL (    1223 calls)
     add_vuspsi   :    552.29s CPU    565.45s WALL (    1223 calls)

     General routines
     calbec       :    884.15s CPU    891.91s WALL (    1371 calls)
     fft          :     32.15s CPU     32.59s WALL (    7900 calls)
     ffts         :      0.82s CPU      0.83s WALL (     205 calls)
     fftw         :    705.42s CPU    713.85s WALL (  690595 calls)
     interpolate  :      0.85s CPU      0.87s WALL (     104 calls)
 
     Parallel routines

     PAW routines
     PAW_pot      :     30.10s CPU     30.47s WALL (     111 calls)
     PAW_symme    :      0.58s CPU      0.59s WALL (     211 calls)
 
     PWSCF        :      7h52m CPU      7h59m WALL

 
   This run was terminated on:  16:12:28   3Mar2024            

=------------------------------------------------------------------------------=
   JOB DONE.
=------------------------------------------------------------------------------=
