
     Program PWSCF v.7.1 starts on 29Jan2024 at 11: 5:30 

     This program is part of the open-source Quantum ESPRESSO suite
     for quantum simulation of materials; please cite
         "P. Giannozzi et al., J. Phys.:Condens. Matter 21 395502 (2009);
         "P. Giannozzi et al., J. Phys.:Condens. Matter 29 465901 (2017);
         "P. Giannozzi et al., J. Chem. Phys. 152 154105 (2020);
          URL http://www.quantum-espresso.org", 
     in publications or presentations arising from this work. More details at
     http://www.quantum-espresso.org/quote

     Parallel version (MPI & OpenMP), running on     128 processor cores
     Number of MPI processes:               128
     Threads/MPI process:                     1

     MPI processes distributed on     1 nodes
     2038439 MiB available memory on the printing compute node when the environment starts
 
     Reading input from espresso.pwi
Warning: card &CELL ignored
Warning: card    CELL_DYNAMICS    = 'BFGS' ignored
Warning: card / ignored

     Current dimensions of program PWSCF are:
     Max number of different atomic species (ntypx) = 10
     Max number of k-points (npk) =  40000
     Max angular momentum in pseudopotentials (lmaxx) =  4
     file Ga.pbe-dn-kjpaw_psl.1.0.0.UPF: wavefunction(s)  4S renormalized
     file N.pbe-n-kjpaw_psl.1.0.0.UPF: wavefunction(s)  2S renormalized

     **************************************************************************
     Initializing libbeef V0.1.2 with the BEEF-vdW functional.
     Citation: Wellendorff et al., PRB 85, 235149 (2012).
     **************************************************************************


     IMPORTANT: XC functional enforced from input :
     Exchange-correlation= BEEF-VDW
                           (   1   4  43  14   2   0   0)
     Any further DFT definition will be discarded
     Please, verify this is what you really want

 
     K-points division:     npool     =       4
     R & G space division:  proc/nbgrp/npool/nimage =      32
     Subspace diagonalization in iterative solution of the eigenvalue problem:
     a serial algorithm will be used

 
     Parallelization info
     --------------------
     sticks:   dense  smooth     PW     G-vecs:    dense   smooth      PW
     Min         253     203     54                20226    14477    1979
     Max         255     204     56                20235    14484    1982
     Sum        8137    6505   1735               647327   463355   63361
 
     Using Slab Decomposition
 


     bravais-lattice index     =            4
     lattice parameter (alat)  =      18.3939  a.u.
     unit-cell volume          =    5856.2271 (a.u.)^3
     number of atoms/cell      =           71
     number of atomic types    =            2
     number of electrons       =       637.00
     number of Kohn-Sham states=          383
     kinetic-energy cutoff     =      70.0000  Ry
     charge density cutoff     =     350.0000  Ry
     scf convergence threshold =      1.0E-09
     mixing beta               =       0.7000
     number of iterations used =            8  plain     mixing
     energy convergence thresh.=      1.0E-04
     force convergence thresh. =      1.0E-03
     Exchange-correlation= BEEF-VDW
                           (   1   4  43  14   2   0   0)
     nstep                     =           50


     celldm(1)=  18.393924  celldm(2)=   0.000000  celldm(3)=   1.086586
     celldm(4)=   0.000000  celldm(5)=   0.000000  celldm(6)=   0.000000

     crystal axes: (cart. coord. in units of alat)
               a(1) = (   1.000000   0.000000   0.000000 )  
               a(2) = (  -0.500000   0.866025   0.000000 )  
               a(3) = (   0.000000   0.000000   1.086586 )  

     reciprocal axes: (cart. coord. in units 2 pi/alat)
               b(1) = (  1.000000  0.577350 -0.000000 )  
               b(2) = (  0.000000  1.154701  0.000000 )  
               b(3) = (  0.000000 -0.000000  0.920314 )  


     PseudoPot. # 1 for Ga read from file:
     /trace/group/acmegroup/atimmins/packages/espresso/pseudo/psl_1.0.0/pslibrary.1.0.0/pbe/PSEUDOPOTENTIALS/Ga.pbe-dn-kjpaw_psl.1.0.0.UPF
     MD5 check sum: cd2a01e492f15b435d17032472d8505c
     Pseudo is Projector augmented-wave + core cor, Zval = 13.0
     Generated using 'atomic' code by A. Dal Corso  v.7.1
     Shape of augmentation charge: PSQ
     Using radial grid of 1205 points,  6 beta functions with: 
                l(1) =   0
                l(2) =   0
                l(3) =   1
                l(4) =   1
                l(5) =   2
                l(6) =   2
     Q(r) pseudized with 0 coefficients 


     PseudoPot. # 2 for N  read from file:
     /trace/group/acmegroup/atimmins/packages/espresso/pseudo/psl_1.0.0/pslibrary.1.0.0/pbe/PSEUDOPOTENTIALS/N.pbe-n-kjpaw_psl.1.0.0.UPF
     MD5 check sum: f77f775694dac7e2c3fe1c82443d1a16
     Pseudo is Projector augmented-wave + core cor, Zval =  5.0
     Generated using 'atomic' code by A. Dal Corso  v.7.1
     Shape of augmentation charge: PSQ
     Using radial grid of 1085 points,  4 beta functions with: 
                l(1) =   0
                l(2) =   0
                l(3) =   1
                l(4) =   1
     Q(r) pseudized with 0 coefficients 


     atomic species   valence    mass     pseudopotential
        Ga            13.00    69.72300     Ga( 1.00)
        N              5.00    14.00700     N ( 1.00)

      6 Sym. Ops. (no inversion) found ( 4 have fractional translation)


                                    s                        frac. trans.

      isym =  1     identity                                     

 cryst.   s( 1) = (     1          0          0      )
                  (     0          1          0      )
                  (     0          0          1      )

 cart.    s( 1) = (  1.0000000  0.0000000  0.0000000 )
                  (  0.0000000  1.0000000  0.0000000 )
                  (  0.0000000  0.0000000  1.0000000 )


      isym =  2     120 deg rotation - cryst. axis [0,0,1]       

 cryst.   s( 2) = (     0          1          0      )    f =( -0.3333334 )
                  (    -1         -1          0      )       (  0.0000003 )
                  (     0          0          1      )       (  0.0000000 )

 cart.    s( 2) = ( -0.5000000 -0.8660254  0.0000000 )    f =( -0.3333335 )
                  (  0.8660254 -0.5000000  0.0000000 )       (  0.0000002 )
                  (  0.0000000  0.0000000  1.0000000 )       (  0.0000000 )


      isym =  3     120 deg rotation - cryst. axis [0,0,-1]      

 cryst.   s( 3) = (    -1         -1          0      )    f =( -0.3333336 )
                  (     1          0          0      )       ( -0.3333334 )
                  (     0          0          1      )       (  0.0000000 )

 cart.    s( 3) = ( -0.5000000  0.8660254  0.0000000 )    f =( -0.1666669 )
                  ( -0.8660254 -0.5000000  0.0000000 )       ( -0.2886752 )
                  (  0.0000000  0.0000000  1.0000000 )       (  0.0000000 )


      isym =  4     inv. 180 deg rotation - cart. axis [1,0,0]   

 cryst.   s( 4) = (    -1          0          0      )    f =( -0.3333336 )
                  (     1          1          0      )       (  0.0000000 )
                  (     0          0          1      )       (  0.0000000 )

 cart.    s( 4) = ( -1.0000000  0.0000000  0.0000000 )    f =( -0.3333336 )
                  (  0.0000000  1.0000000  0.0000000 )       (  0.0000000 )
                  (  0.0000000  0.0000000  1.0000000 )       (  0.0000000 )


      isym =  5     inv. 180 deg rotation - cryst. axis [0,1,0]  

 cryst.   s( 5) = (     1          1          0      )
                  (     0         -1          0      )
                  (     0          0          1      )

 cart.    s( 5) = (  0.5000000  0.8660254  0.0000000 )
                  (  0.8660254 -0.5000000  0.0000000 )
                  (  0.0000000  0.0000000  1.0000000 )


      isym =  6     inv. 180 deg rotation - cryst. axis [1,1,0]  

 cryst.   s( 6) = (     0         -1          0      )    f =( -0.3333334 )
                  (    -1          0          0      )       ( -0.3333334 )
                  (     0          0          1      )       (  0.0000000 )

 cart.    s( 6) = (  0.5000000 -0.8660254  0.0000000 )    f =( -0.1666667 )
                  ( -0.8660254 -0.5000000  0.0000000 )       ( -0.2886752 )
                  (  0.0000000  0.0000000  1.0000000 )       (  0.0000000 )


     point group C_3v (3m)  
     there are  3 classes
     the character table:

       E     2C3   3s_v 
A_1    1.00  1.00  1.00
A_2    1.00  1.00 -1.00
E      2.00 -1.00  0.00

     the symmetry operations in each class and the name of the first element:

     E        1
          identity                                               
     2C3      2    3
          120 deg rotation - cryst. axis [0,0,1]                 
     3s_v     4    5    6
          inv. 180 deg rotation - cart. axis [1,0,0]             

   Cartesian axes

     site n.     atom                  positions (alat units)
         1           Ga  tau(   1) = (   0.1666668   0.0962250   0.8144844  )
         2           Ga  tau(   2) = (   0.0000001   0.3849001   0.2711914  )
         3           Ga  tau(   3) = (   0.0000001   0.3849001   0.8144844  )
         4           Ga  tau(   4) = (  -0.1666665   0.6735752   0.2711914  )
         5           Ga  tau(   5) = (  -0.1666665   0.6735752   0.8144844  )
         6           Ga  tau(   6) = (   0.5000001   0.0962250   0.2711914  )
         7           Ga  tau(   7) = (   0.5000001   0.0962250   0.8144844  )
         8           Ga  tau(   8) = (   0.3333335   0.3849001   0.2711914  )
         9           Ga  tau(   9) = (   0.3333335   0.3849001   0.8144844  )
        10           Ga  tau(  10) = (   0.1666668   0.6735752   0.2711914  )
        11           Ga  tau(  11) = (   0.1666668   0.6735752   0.8144844  )
        12           Ga  tau(  12) = (   0.8333335   0.0962250   0.2711914  )
        13           Ga  tau(  13) = (   0.8333335   0.0962250   0.8144844  )
        14           Ga  tau(  14) = (   0.6666668   0.3849001   0.2711914  )
        15           Ga  tau(  15) = (   0.6666668   0.3849001   0.8144844  )
        16           Ga  tau(  16) = (   0.5000001   0.6735752   0.2711914  )
        17           Ga  tau(  17) = (   0.5000001   0.6735752   0.8144844  )
        18           Ga  tau(  18) = (  -0.0000002   0.1924502   0.5428379  )
        19           Ga  tau(  19) = (  -0.0000002   0.1924502   1.0861309  )
        20           Ga  tau(  20) = (  -0.1666669   0.4811254   0.5428379  )
        21           Ga  tau(  21) = (  -0.1666669   0.4811254   1.0861309  )
        22           Ga  tau(  22) = (  -0.3333335   0.7698005   0.5428379  )
        23           Ga  tau(  23) = (  -0.3333335   0.7698005   1.0861309  )
        24           Ga  tau(  24) = (   0.3333331   0.1924502   0.5428379  )
        25           Ga  tau(  25) = (   0.3333331   0.1924502   1.0861309  )
        26           Ga  tau(  26) = (   0.1666665   0.4811254   0.5428379  )
        27           Ga  tau(  27) = (   0.1666665   0.4811254   1.0861309  )
        28           Ga  tau(  28) = (  -0.0000002   0.7698005   0.5428379  )
        29           Ga  tau(  29) = (  -0.0000002   0.7698005   1.0861309  )
        30           Ga  tau(  30) = (   0.6666665   0.1924502   0.5428379  )
        31           Ga  tau(  31) = (   0.6666665   0.1924502   1.0861309  )
        32           Ga  tau(  32) = (   0.4999998   0.4811254   0.5428379  )
        33           Ga  tau(  33) = (   0.4999998   0.4811254   1.0861309  )
        34           Ga  tau(  34) = (   0.3333331   0.7698005   0.5428379  )
        35           Ga  tau(  35) = (   0.3333331   0.7698005   1.0861309  )
        36           N   tau(  36) = (   0.1666668   0.0962250   0.4758365  )
        37           N   tau(  37) = (   0.1666668   0.0962250   1.0191295  )
        38           N   tau(  38) = (   0.0000001   0.3849001   0.4758365  )
        39           N   tau(  39) = (   0.0000001   0.3849001   1.0191295  )
        40           N   tau(  40) = (  -0.1666665   0.6735752   0.4758365  )
        41           N   tau(  41) = (  -0.1666665   0.6735752   1.0191295  )
        42           N   tau(  42) = (   0.5000001   0.0962250   0.4758365  )
        43           N   tau(  43) = (   0.5000001   0.0962250   1.0191295  )
        44           N   tau(  44) = (   0.3333335   0.3849001   0.4758365  )
        45           N   tau(  45) = (   0.3333335   0.3849001   1.0191295  )
        46           N   tau(  46) = (   0.1666668   0.6735752   0.4758365  )
        47           N   tau(  47) = (   0.1666668   0.6735752   1.0191295  )
        48           N   tau(  48) = (   0.8333335   0.0962250   0.4758365  )
        49           N   tau(  49) = (   0.8333335   0.0962250   1.0191295  )
        50           N   tau(  50) = (   0.6666668   0.3849001   0.4758365  )
        51           N   tau(  51) = (   0.6666668   0.3849001   1.0191295  )
        52           N   tau(  52) = (   0.5000001   0.6735752   0.4758365  )
        53           N   tau(  53) = (   0.5000001   0.6735752   1.0191295  )
        54           N   tau(  54) = (  -0.0000002   0.1924502   0.2041900  )
        55           N   tau(  55) = (  -0.0000002   0.1924502   0.7474830  )
        56           N   tau(  56) = (  -0.1666669   0.4811254   0.2041900  )
        57           N   tau(  57) = (  -0.1666669   0.4811254   0.7474830  )
        58           N   tau(  58) = (  -0.3333335   0.7698005   0.2041900  )
        59           N   tau(  59) = (  -0.3333335   0.7698005   0.7474830  )
        60           N   tau(  60) = (   0.3333331   0.1924502   0.2041900  )
        61           N   tau(  61) = (   0.3333331   0.1924502   0.7474830  )
        62           N   tau(  62) = (   0.1666665   0.4811254   0.2041900  )
        63           N   tau(  63) = (   0.1666665   0.4811254   0.7474830  )
        64           N   tau(  64) = (  -0.0000002   0.7698005   0.2041900  )
        65           N   tau(  65) = (  -0.0000002   0.7698005   0.7474830  )
        66           N   tau(  66) = (   0.6666665   0.1924502   0.2041900  )
        67           N   tau(  67) = (   0.6666665   0.1924502   0.7474830  )
        68           N   tau(  68) = (   0.4999998   0.4811254   0.2041900  )
        69           N   tau(  69) = (   0.4999998   0.4811254   0.7474830  )
        70           N   tau(  70) = (   0.3333331   0.7698005   0.2041900  )
        71           N   tau(  71) = (   0.3333331   0.7698005   0.7474830  )

   Crystallographic axes

     site n.     atom                  positions (cryst. coord.)
         1           Ga  tau(   1) = (  0.2222223  0.1111110  0.7495811  )
         2           Ga  tau(   2) = (  0.2222223  0.4444444  0.2495811  )
         3           Ga  tau(   3) = (  0.2222223  0.4444444  0.7495811  )
         4           Ga  tau(   4) = (  0.2222223  0.7777777  0.2495811  )
         5           Ga  tau(   5) = (  0.2222223  0.7777777  0.7495811  )
         6           Ga  tau(   6) = (  0.5555557  0.1111110  0.2495811  )
         7           Ga  tau(   7) = (  0.5555557  0.1111110  0.7495811  )
         8           Ga  tau(   8) = (  0.5555557  0.4444444  0.2495811  )
         9           Ga  tau(   9) = (  0.5555557  0.4444444  0.7495811  )
        10           Ga  tau(  10) = (  0.5555557  0.7777777  0.2495811  )
        11           Ga  tau(  11) = (  0.5555557  0.7777777  0.7495811  )
        12           Ga  tau(  12) = (  0.8888890  0.1111110  0.2495811  )
        13           Ga  tau(  13) = (  0.8888890  0.1111110  0.7495811  )
        14           Ga  tau(  14) = (  0.8888890  0.4444444  0.2495811  )
        15           Ga  tau(  15) = (  0.8888890  0.4444444  0.7495811  )
        16           Ga  tau(  16) = (  0.8888890  0.7777777  0.2495811  )
        17           Ga  tau(  17) = (  0.8888890  0.7777777  0.7495811  )
        18           Ga  tau(  18) = (  0.1111110  0.2222224  0.4995811  )
        19           Ga  tau(  19) = (  0.1111110  0.2222224  0.9995811  )
        20           Ga  tau(  20) = (  0.1111110  0.5555557  0.4995811  )
        21           Ga  tau(  21) = (  0.1111110  0.5555557  0.9995811  )
        22           Ga  tau(  22) = (  0.1111110  0.8888891  0.4995811  )
        23           Ga  tau(  23) = (  0.1111110  0.8888891  0.9995811  )
        24           Ga  tau(  24) = (  0.4444443  0.2222224  0.4995811  )
        25           Ga  tau(  25) = (  0.4444443  0.2222224  0.9995811  )
        26           Ga  tau(  26) = (  0.4444443  0.5555557  0.4995811  )
        27           Ga  tau(  27) = (  0.4444443  0.5555557  0.9995811  )
        28           Ga  tau(  28) = (  0.4444443  0.8888891  0.4995811  )
        29           Ga  tau(  29) = (  0.4444443  0.8888891  0.9995811  )
        30           Ga  tau(  30) = (  0.7777777  0.2222224  0.4995811  )
        31           Ga  tau(  31) = (  0.7777777  0.2222224  0.9995811  )
        32           Ga  tau(  32) = (  0.7777777  0.5555557  0.4995811  )
        33           Ga  tau(  33) = (  0.7777777  0.5555557  0.9995811  )
        34           Ga  tau(  34) = (  0.7777777  0.8888891  0.4995811  )
        35           Ga  tau(  35) = (  0.7777777  0.8888891  0.9995811  )
        36           N   tau(  36) = (  0.2222223  0.1111110  0.4379189  )
        37           N   tau(  37) = (  0.2222223  0.1111110  0.9379189  )
        38           N   tau(  38) = (  0.2222223  0.4444444  0.4379189  )
        39           N   tau(  39) = (  0.2222223  0.4444444  0.9379189  )
        40           N   tau(  40) = (  0.2222223  0.7777777  0.4379189  )
        41           N   tau(  41) = (  0.2222223  0.7777777  0.9379189  )
        42           N   tau(  42) = (  0.5555557  0.1111110  0.4379189  )
        43           N   tau(  43) = (  0.5555557  0.1111110  0.9379189  )
        44           N   tau(  44) = (  0.5555557  0.4444444  0.4379189  )
        45           N   tau(  45) = (  0.5555557  0.4444444  0.9379189  )
        46           N   tau(  46) = (  0.5555557  0.7777777  0.4379189  )
        47           N   tau(  47) = (  0.5555557  0.7777777  0.9379189  )
        48           N   tau(  48) = (  0.8888890  0.1111110  0.4379189  )
        49           N   tau(  49) = (  0.8888890  0.1111110  0.9379189  )
        50           N   tau(  50) = (  0.8888890  0.4444444  0.4379189  )
        51           N   tau(  51) = (  0.8888890  0.4444444  0.9379189  )
        52           N   tau(  52) = (  0.8888890  0.7777777  0.4379189  )
        53           N   tau(  53) = (  0.8888890  0.7777777  0.9379189  )
        54           N   tau(  54) = (  0.1111110  0.2222224  0.1879189  )
        55           N   tau(  55) = (  0.1111110  0.2222224  0.6879189  )
        56           N   tau(  56) = (  0.1111110  0.5555557  0.1879189  )
        57           N   tau(  57) = (  0.1111110  0.5555557  0.6879189  )
        58           N   tau(  58) = (  0.1111110  0.8888891  0.1879189  )
        59           N   tau(  59) = (  0.1111110  0.8888891  0.6879189  )
        60           N   tau(  60) = (  0.4444443  0.2222224  0.1879189  )
        61           N   tau(  61) = (  0.4444443  0.2222224  0.6879189  )
        62           N   tau(  62) = (  0.4444443  0.5555557  0.1879189  )
        63           N   tau(  63) = (  0.4444443  0.5555557  0.6879189  )
        64           N   tau(  64) = (  0.4444443  0.8888891  0.1879189  )
        65           N   tau(  65) = (  0.4444443  0.8888891  0.6879189  )
        66           N   tau(  66) = (  0.7777777  0.2222224  0.1879189  )
        67           N   tau(  67) = (  0.7777777  0.2222224  0.6879189  )
        68           N   tau(  68) = (  0.7777777  0.5555557  0.1879189  )
        69           N   tau(  69) = (  0.7777777  0.5555557  0.6879189  )
        70           N   tau(  70) = (  0.7777777  0.8888891  0.1879189  )
        71           N   tau(  71) = (  0.7777777  0.8888891  0.6879189  )

     number of k points=     4  Gaussian smearing, width (Ry)=  0.0100
                       cart. coord. in units 2pi/alat
        k(    1) = (   0.0000000   0.0000000   0.0000000), wk =   0.2500000
        k(    2) = (   0.0000000   0.0000000  -0.4601568), wk =   0.2500000
        k(    3) = (   0.0000000  -0.5773503   0.0000000), wk =   0.7500000
        k(    4) = (   0.0000000  -0.5773503  -0.4601568), wk =   0.7500000

                       cryst. coord.
        k(    1) = (   0.0000000   0.0000000   0.0000000), wk =   0.2500000
        k(    2) = (   0.0000000   0.0000000  -0.5000000), wk =   0.2500000
        k(    3) = (   0.0000000  -0.5000000   0.0000000), wk =   0.7500000
        k(    4) = (   0.0000000  -0.5000000  -0.5000000), wk =   0.7500000

     Dense  grid:   647327 G-vectors     FFT dimensions: ( 120, 120, 120)

     Smooth grid:   463355 G-vectors     FFT dimensions: ( 108, 108, 108)

     Dynamical RAM for                 wfc:      10.57 MB

     Dynamical RAM for     wfc (w. buffer):      10.57 MB

     Dynamical RAM for           str. fact:       0.62 MB

     Dynamical RAM for           local pot:       0.00 MB

     Dynamical RAM for          nlocal pot:      25.34 MB

     Dynamical RAM for                qrad:       3.00 MB

     Dynamical RAM for          rho,v,vnew:       2.24 MB

     Dynamical RAM for               rhoin:       0.75 MB

     Dynamical RAM for            rho*nmix:       4.94 MB

     Dynamical RAM for           G-vectors:       1.27 MB

     Dynamical RAM for          h,s,v(r/c):     107.44 MB

     Dynamical RAM for          <psi|beta>:       5.36 MB

     Dynamical RAM for                 psi:      42.29 MB

     Dynamical RAM for                hpsi:      42.29 MB

     Dynamical RAM for                spsi:      42.29 MB

     Dynamical RAM for      wfcinit/wfcrot:      24.50 MB

     Dynamical RAM for           addusdens:      17.37 MB

     Dynamical RAM for          addusforce:      22.83 MB

     Dynamical RAM for         addusstress:      15.63 MB

     Estimated static dynamical RAM per process >      46.92 MB

     Estimated max dynamical RAM per process >     291.52 MB

     Estimated total dynamical RAM >      35.98 GB

     Atomic positions and unit cell read from directory:
     ./GaN.save/
     Message from routine qexsd_readschema :
     xml data file ./GaN.save/data-file-schema.xml not found
     Nothing found: using input atomic positions and unit cell


     Check: negative core charge=   -0.000003
     Cannot read rho : file not found

     Initial potential from superposition of free atoms

     starting charge     634.8964, renormalised to     637.0000


     %%%%%%%%%%%%%%%%%%%%%%%%%%%%%%%%%%%%%%%%%%%%%%%%%%%%%%%%%%%%%%%%%%%%%%%%
     %                                                                      %
     % You are using vdW-DF, which was implemented by the Thonhauser group. %
     % Please cite the following two papers that made this development      %
     % possible and the two reviews that describe the various versions:     %
     %                                                                      %
     %   T. Thonhauser et al., PRL 115, 136402 (2015).                      %
     %   T. Thonhauser et al., PRB 76, 125112 (2007).                       %
     %   K. Berland et al., Rep. Prog. Phys. 78, 066501 (2015).             %
     %   D.C. Langreth et al., J. Phys.: Condens. Matter 21, 084203 (2009). %
     %                                                                      %
     % If you are calculating stress with vdW-DF, please also cite:         %
     %                                                                      %
     %   R. Sabatini et al., J. Phys.: Condens. Matter 24, 424209 (2012).   %
     %                                                                      %
     %%%%%%%%%%%%%%%%%%%%%%%%%%%%%%%%%%%%%%%%%%%%%%%%%%%%%%%%%%%%%%%%%%%%%%%%

     %%%%%%%%%%%%%%%%%%%%%%%%%%%%%%%%%%%%%%%%%%%%%%%%%%%%%%%%%%%%%%%%%%%%%%%%
     %                                                                      %
     %  vdW-DF NEWS:                                                        %
     %                                                                      %
     %  * vdW-DF3 is now available. DOI: 10.1021/acs.jctc.0c00471           %
     %    use with input_dft = 'vdW-DF3-opt1' or 'vdW-DF3-opt2'             %
     %                                                                      %
     %  * Unscreened and range-separated vdW-DF hybrid functionals          %
     %    DOI: 10.1063/1.4986522 and 10.1088/1361-648X/ac2ad2               %
     %    use with input_dft = 'vdW-DF-cx0' (etc) and 'vdW-DF-ahcx'         %
     %                                                                      %
     %%%%%%%%%%%%%%%%%%%%%%%%%%%%%%%%%%%%%%%%%%%%%%%%%%%%%%%%%%%%%%%%%%%%%%%%


     Carrying out vdW-DF run using the following parameters:
     Nqs    =  20  Npoints =  1024  r_max =  100.000
     q_mesh =  0.00001000  0.04494208  0.09755937  0.15916263
               0.23128650  0.31572767  0.41458969  0.53033537
               0.66584808  0.82450364  1.01025438  1.22772762
               1.48234092  1.78043706  2.12944203  2.53805004
               3.01644009  3.57652955  4.23227104  5.00000000


     -----------------------------------------------
     Non-local corr. energy    =      18.25426286 Ry
     -----------------------------------------------

     Message from routine qexsd_readschema :
     xml data file ./GaN.save/data-file-schema.xml not found
     Cannot read wfcs: file not found
     Starting wfcs are  459 randomized atomic wfcs
     Checking if some PAW data can be deallocated... 
       PAW data deallocated on   58 nodes for type:  1
       PAW data deallocated on   70 nodes for type:  2

     total cpu time spent up to now is        5.4 secs

     Self-consistent Calculation

     iteration #  1     ecut=    70.00 Ry     beta= 0.70
     Davidson diagonalization with overlap

---- Real-time Memory Report at c_bands before calling an iterative solver
           248 MiB given to the printing process from OS
             0 MiB allocation reported by mallinfo(arena+hblkhd)
       2027764 MiB available memory on the node where the printing process lives
------------------
     ethr =  1.00E-05,  avg # of iterations = 18.0


     -----------------------------------------------
     Non-local corr. energy    =      19.03037146 Ry
     -----------------------------------------------


     total cpu time spent up to now is       59.7 secs

     total energy              =  -10946.44443707 Ry
     estimated scf accuracy    <      22.26362012 Ry

     iteration #  2     ecut=    70.00 Ry     beta= 0.70
     Davidson diagonalization with overlap

---- Real-time Memory Report at c_bands before calling an iterative solver
           431 MiB given to the printing process from OS
             0 MiB allocation reported by mallinfo(arena+hblkhd)
       2024582 MiB available memory on the node where the printing process lives
------------------
     ethr =  3.50E-03,  avg # of iterations =  6.8


     -----------------------------------------------
     Non-local corr. energy    =      18.79941225 Ry
     -----------------------------------------------


     total cpu time spent up to now is       76.4 secs

     total energy              =  -10948.85700511 Ry
     estimated scf accuracy    <      36.46826882 Ry

     iteration #  3     ecut=    70.00 Ry     beta= 0.70
     Davidson diagonalization with overlap

---- Real-time Memory Report at c_bands before calling an iterative solver
           431 MiB given to the printing process from OS
             0 MiB allocation reported by mallinfo(arena+hblkhd)
       2024544 MiB available memory on the node where the printing process lives
------------------
     ethr =  3.50E-03,  avg # of iterations =  6.3


     -----------------------------------------------
     Non-local corr. energy    =      18.82492505 Ry
     -----------------------------------------------


     total cpu time spent up to now is       90.5 secs

     total energy              =  -10955.92781693 Ry
     estimated scf accuracy    <      11.90450199 Ry

     iteration #  4     ecut=    70.00 Ry     beta= 0.70
     Davidson diagonalization with overlap

---- Real-time Memory Report at c_bands before calling an iterative solver
           431 MiB given to the printing process from OS
             0 MiB allocation reported by mallinfo(arena+hblkhd)
       2024376 MiB available memory on the node where the printing process lives
------------------
     ethr =  1.87E-03,  avg # of iterations =  7.5


     -----------------------------------------------
     Non-local corr. energy    =      18.90619746 Ry
     -----------------------------------------------


     total cpu time spent up to now is      103.6 secs

     total energy              =  -10957.12755395 Ry
     estimated scf accuracy    <       0.50889017 Ry

     iteration #  5     ecut=    70.00 Ry     beta= 0.70
     Davidson diagonalization with overlap

---- Real-time Memory Report at c_bands before calling an iterative solver
           431 MiB given to the printing process from OS
             0 MiB allocation reported by mallinfo(arena+hblkhd)
       2024437 MiB available memory on the node where the printing process lives
------------------
     ethr =  7.99E-05,  avg # of iterations = 10.5


     -----------------------------------------------
     Non-local corr. energy    =      18.99972593 Ry
     -----------------------------------------------


     total cpu time spent up to now is      126.3 secs

     total energy              =  -10957.14742660 Ry
     estimated scf accuracy    <       0.59178927 Ry

     iteration #  6     ecut=    70.00 Ry     beta= 0.70
     Davidson diagonalization with overlap

---- Real-time Memory Report at c_bands before calling an iterative solver
           431 MiB given to the printing process from OS
             0 MiB allocation reported by mallinfo(arena+hblkhd)
       2024404 MiB available memory on the node where the printing process lives
------------------
     ethr =  7.99E-05,  avg # of iterations =  9.0


     -----------------------------------------------
     Non-local corr. energy    =      19.12643424 Ry
     -----------------------------------------------


     total cpu time spent up to now is      141.7 secs

     total energy              =  -10957.19843518 Ry
     estimated scf accuracy    <       0.20884684 Ry

     iteration #  7     ecut=    70.00 Ry     beta= 0.70
     Davidson diagonalization with overlap

---- Real-time Memory Report at c_bands before calling an iterative solver
           431 MiB given to the printing process from OS
             0 MiB allocation reported by mallinfo(arena+hblkhd)
       2024290 MiB available memory on the node where the printing process lives
------------------
     ethr =  3.28E-05,  avg # of iterations = 10.3


     -----------------------------------------------
     Non-local corr. energy    =      19.17802688 Ry
     -----------------------------------------------


     total cpu time spent up to now is      160.2 secs

     total energy              =  -10957.22217460 Ry
     estimated scf accuracy    <       0.06138776 Ry

     iteration #  8     ecut=    70.00 Ry     beta= 0.70
     Davidson diagonalization with overlap

---- Real-time Memory Report at c_bands before calling an iterative solver
           431 MiB given to the printing process from OS
             0 MiB allocation reported by mallinfo(arena+hblkhd)
       2024262 MiB available memory on the node where the printing process lives
------------------
     ethr =  9.64E-06,  avg # of iterations = 10.0


     -----------------------------------------------
     Non-local corr. energy    =      19.16504225 Ry
     -----------------------------------------------


     total cpu time spent up to now is      178.7 secs

     total energy              =  -10957.23373282 Ry
     estimated scf accuracy    <       0.01835394 Ry

     iteration #  9     ecut=    70.00 Ry     beta= 0.70
     Davidson diagonalization with overlap

---- Real-time Memory Report at c_bands before calling an iterative solver
           431 MiB given to the printing process from OS
             0 MiB allocation reported by mallinfo(arena+hblkhd)
       2024213 MiB available memory on the node where the printing process lives
------------------
     ethr =  2.88E-06,  avg # of iterations =  9.8


     -----------------------------------------------
     Non-local corr. energy    =      19.16259286 Ry
     -----------------------------------------------


     total cpu time spent up to now is      202.3 secs

     total energy              =  -10957.23869139 Ry
     estimated scf accuracy    <       0.00332372 Ry

     iteration # 10     ecut=    70.00 Ry     beta= 0.70
     Davidson diagonalization with overlap

---- Real-time Memory Report at c_bands before calling an iterative solver
           431 MiB given to the printing process from OS
             0 MiB allocation reported by mallinfo(arena+hblkhd)
       2024168 MiB available memory on the node where the printing process lives
------------------
     ethr =  5.22E-07,  avg # of iterations =  9.5


     -----------------------------------------------
     Non-local corr. energy    =      19.16359085 Ry
     -----------------------------------------------


     total cpu time spent up to now is      224.6 secs

     total energy              =  -10957.23964739 Ry
     estimated scf accuracy    <       0.00033362 Ry

     iteration # 11     ecut=    70.00 Ry     beta= 0.70
     Davidson diagonalization with overlap

---- Real-time Memory Report at c_bands before calling an iterative solver
           431 MiB given to the printing process from OS
             0 MiB allocation reported by mallinfo(arena+hblkhd)
       2024170 MiB available memory on the node where the printing process lives
------------------
     ethr =  5.24E-08,  avg # of iterations =  7.8


     -----------------------------------------------
     Non-local corr. energy    =      19.16553222 Ry
     -----------------------------------------------


     total cpu time spent up to now is      248.8 secs

     total energy              =  -10957.23972017 Ry
     estimated scf accuracy    <       0.00007714 Ry

     iteration # 12     ecut=    70.00 Ry     beta= 0.70
     Davidson diagonalization with overlap

---- Real-time Memory Report at c_bands before calling an iterative solver
           441 MiB given to the printing process from OS
             0 MiB allocation reported by mallinfo(arena+hblkhd)
       2024011 MiB available memory on the node where the printing process lives
------------------
     ethr =  1.21E-08,  avg # of iterations = 11.0


     -----------------------------------------------
     Non-local corr. energy    =      19.16545248 Ry
     -----------------------------------------------


     total cpu time spent up to now is      271.1 secs

     total energy              =  -10957.23973291 Ry
     estimated scf accuracy    <       0.00004296 Ry

     iteration # 13     ecut=    70.00 Ry     beta= 0.70
     Davidson diagonalization with overlap

---- Real-time Memory Report at c_bands before calling an iterative solver
           441 MiB given to the printing process from OS
             0 MiB allocation reported by mallinfo(arena+hblkhd)
       2024153 MiB available memory on the node where the printing process lives
------------------
     ethr =  6.74E-09,  avg # of iterations =  9.8


     -----------------------------------------------
     Non-local corr. energy    =      19.16530717 Ry
     -----------------------------------------------


     total cpu time spent up to now is      289.4 secs

     total energy              =  -10957.23974008 Ry
     estimated scf accuracy    <       0.00001457 Ry

     iteration # 14     ecut=    70.00 Ry     beta= 0.70
     Davidson diagonalization with overlap

---- Real-time Memory Report at c_bands before calling an iterative solver
           441 MiB given to the printing process from OS
             0 MiB allocation reported by mallinfo(arena+hblkhd)
       2023812 MiB available memory on the node where the printing process lives
------------------
     ethr =  2.29E-09,  avg # of iterations = 10.8


     -----------------------------------------------
     Non-local corr. energy    =      19.16532135 Ry
     -----------------------------------------------


     total cpu time spent up to now is      308.0 secs

     total energy              =  -10957.23974306 Ry
     estimated scf accuracy    <       0.00000135 Ry

     iteration # 15     ecut=    70.00 Ry     beta= 0.70
     Davidson diagonalization with overlap

---- Real-time Memory Report at c_bands before calling an iterative solver
           441 MiB given to the printing process from OS
             0 MiB allocation reported by mallinfo(arena+hblkhd)
       2024148 MiB available memory on the node where the printing process lives
------------------
     ethr =  2.12E-10,  avg # of iterations =  7.3


     -----------------------------------------------
     Non-local corr. energy    =      19.16537070 Ry
     -----------------------------------------------


     total cpu time spent up to now is      333.1 secs

     total energy              =  -10957.23974380 Ry
     estimated scf accuracy    <       0.00000093 Ry

     iteration # 16     ecut=    70.00 Ry     beta= 0.70
     Davidson diagonalization with overlap

---- Real-time Memory Report at c_bands before calling an iterative solver
           441 MiB given to the printing process from OS
             0 MiB allocation reported by mallinfo(arena+hblkhd)
       2024122 MiB available memory on the node where the printing process lives
------------------
     ethr =  1.45E-10,  avg # of iterations =  8.8


     -----------------------------------------------
     Non-local corr. energy    =      19.16539069 Ry
     -----------------------------------------------


     total cpu time spent up to now is      348.0 secs

     total energy              =  -10957.23974384 Ry
     estimated scf accuracy    <       0.00000032 Ry

     iteration # 17     ecut=    70.00 Ry     beta= 0.70
     Davidson diagonalization with overlap

---- Real-time Memory Report at c_bands before calling an iterative solver
           441 MiB given to the printing process from OS
             0 MiB allocation reported by mallinfo(arena+hblkhd)
       2024119 MiB available memory on the node where the printing process lives
------------------
     ethr =  5.02E-11,  avg # of iterations =  6.5


     -----------------------------------------------
     Non-local corr. energy    =      19.16538184 Ry
     -----------------------------------------------


     total cpu time spent up to now is      360.0 secs

     total energy              =  -10957.23974385 Ry
     estimated scf accuracy    <       0.00000006 Ry

     iteration # 18     ecut=    70.00 Ry     beta= 0.70
     Davidson diagonalization with overlap

---- Real-time Memory Report at c_bands before calling an iterative solver
           441 MiB given to the printing process from OS
             0 MiB allocation reported by mallinfo(arena+hblkhd)
       2024115 MiB available memory on the node where the printing process lives
------------------
     ethr =  9.94E-12,  avg # of iterations =  7.3


     -----------------------------------------------
     Non-local corr. energy    =      19.16538304 Ry
     -----------------------------------------------


     total cpu time spent up to now is      378.0 secs

     total energy              =  -10957.23974387 Ry
     estimated scf accuracy    <       0.00000004 Ry

     iteration # 19     ecut=    70.00 Ry     beta= 0.70
     Davidson diagonalization with overlap

---- Real-time Memory Report at c_bands before calling an iterative solver
           441 MiB given to the printing process from OS
             0 MiB allocation reported by mallinfo(arena+hblkhd)
       2024077 MiB available memory on the node where the printing process lives
------------------
     c_bands:  1 eigenvalues not converged
     ethr =  6.37E-12,  avg # of iterations = 13.8


     -----------------------------------------------
     Non-local corr. energy    =      19.16538344 Ry
     -----------------------------------------------


     total cpu time spent up to now is      399.9 secs

     total energy              =  -10957.23974387 Ry
     estimated scf accuracy    <       0.00000001 Ry

     iteration # 20     ecut=    70.00 Ry     beta= 0.70
     Davidson diagonalization with overlap

---- Real-time Memory Report at c_bands before calling an iterative solver
           441 MiB given to the printing process from OS
             0 MiB allocation reported by mallinfo(arena+hblkhd)
       2024064 MiB available memory on the node where the printing process lives
------------------
     c_bands:  1 eigenvalues not converged
     ethr =  2.12E-12,  avg # of iterations = 13.5


     -----------------------------------------------
     Non-local corr. energy    =      19.16538410 Ry
     -----------------------------------------------


     total cpu time spent up to now is      423.5 secs

     total energy              =  -10957.23974387 Ry
     estimated scf accuracy    <          6.2E-09 Ry

     iteration # 21     ecut=    70.00 Ry     beta= 0.70
     Davidson diagonalization with overlap

---- Real-time Memory Report at c_bands before calling an iterative solver
           441 MiB given to the printing process from OS
             0 MiB allocation reported by mallinfo(arena+hblkhd)
       2024051 MiB available memory on the node where the printing process lives
------------------
     c_bands:  1 eigenvalues not converged
     ethr =  9.70E-13,  avg # of iterations = 13.5


     -----------------------------------------------
     Non-local corr. energy    =      19.16538369 Ry
     -----------------------------------------------


     total cpu time spent up to now is      448.9 secs

     total energy              =  -10957.23974387 Ry
     estimated scf accuracy    <          1.1E-09 Ry

     iteration # 22     ecut=    70.00 Ry     beta= 0.70
     Davidson diagonalization with overlap

---- Real-time Memory Report at c_bands before calling an iterative solver
           441 MiB given to the printing process from OS
             0 MiB allocation reported by mallinfo(arena+hblkhd)
       2024035 MiB available memory on the node where the printing process lives
------------------
     c_bands:  1 eigenvalues not converged
     ethr =  1.66E-13,  avg # of iterations = 12.8


     -----------------------------------------------
     Non-local corr. energy    =      19.16538334 Ry
     -----------------------------------------------


     total cpu time spent up to now is      492.3 secs

     End of self-consistent calculation

          k = 0.0000 0.0000 0.0000 ( 57971 PWs)   bands (ev):

    -7.3108  -7.0225  -7.0205  -7.0071  -7.0070  -6.9721  -6.9721  -6.9540
    -6.9368  -6.9036  -6.8736  -6.8624  -6.8623  -6.8475  -6.8339  -6.8339
    -6.7964  -6.7956  -6.7956  -6.7850  -6.7013  -6.7013  -6.6892  -6.6864
    -6.6864  -6.6332  -6.6329  -6.6321  -6.6321  -6.6181  -6.6181  -6.5393
    -5.8697  -5.8697  -5.8320  -5.8300  -5.8300  -5.8251  -5.8251  -5.8073
    -5.8060  -5.8060  -5.8011  -5.7806  -5.7806  -5.7699  -5.7652  -5.7652
    -5.7523  -5.7523  -5.7504  -5.7480  -5.7417  -5.7417  -5.7416  -5.7372
    -5.7372  -5.7239  -5.7037  -5.7037  -5.7032  -5.7024  -5.7007  -5.7007
    -5.6941  -5.6940  -5.6898  -5.6850  -5.6850  -5.6793  -5.6700  -5.6700
    -5.6671  -5.6671  -5.6592  -5.6592  -5.6550  -5.6535  -5.6535  -5.6466
    -5.6466  -5.6457  -5.6419  -5.6343  -5.6343  -5.6303  -5.6303  -5.6284
    -5.6233  -5.6201  -5.6201  -5.6162  -5.6162  -5.6111  -5.6103  -5.6103
    -5.6078  -5.5989  -5.5989  -5.5961  -5.5927  -5.5879  -5.5879  -5.5809
    -5.5809  -5.5779  -5.5779  -5.5730  -5.5652  -5.5622  -5.5622  -5.5303
    -5.5303  -5.5198  -5.5120  -5.5072  -5.5072  -5.4926  -5.4879  -5.4879
    -5.4707  -5.4707  -5.4672  -5.4450  -5.4450  -5.4206  -5.4185  -5.4185
    -5.3936  -5.3936  -5.3483  -5.3380  -5.3318  -5.3318  -5.3158  -5.3158
    -5.2982  -5.2968  -5.2968  -5.2499  -5.2499  -5.1988  -5.1988  -5.1911
    -5.1911  -5.1767  -5.1749  -5.1604  -5.1490  -5.1490  -5.1417  -5.1417
    -5.1370  -5.1346  -5.1337  -5.1337  -5.1208  -5.1208  -5.1114  -5.0946
    -5.0941  -5.0903  -5.0903  -5.0748  -5.0748  -5.0723  -5.0709  -5.0709
    -5.0686  -5.0686  -5.0490  -5.0490  -5.0447  -5.0257  -5.0257  -5.0243
    -5.0163  -5.0157  -4.8884  -4.7935  -4.7935  -4.7453  -4.7452  -4.6476
    -4.4021  -4.2768  -4.2768  -4.2606  -4.2280  -4.2280  -4.1956  -4.1955
    -4.0724  -4.0485  -4.0485  -3.8603  -3.7143  -3.6077  -3.6077  -3.5052
    -3.4567  -3.4257  -3.3386  -3.3386  -3.3342  -3.3035  -3.3035  -2.8058
    -2.7171  -2.7171  -2.5900   1.7239   2.4076   2.4168   2.4174   2.4174
     2.4770   2.5469   2.5470   2.6540   2.6541   2.7926   2.9495   2.9637
     2.9638   2.9894   3.1273   3.1273   3.1429   3.1635   3.1635   3.1870
     3.2145   3.2145   3.2661   3.2661   3.3304   3.4985   3.4985   3.7442
     3.8256   3.8257   4.0006   4.0432   4.0432   4.2936   4.4955   4.4955
     4.5597   4.6366   4.6366   4.6802   4.7055   4.7055   4.8087   4.8388
     4.8388   5.6065   5.7122   5.7122   5.7343   5.9889   5.9889   6.0642
     6.0721   6.0721   6.2112   6.2545   6.2782   6.2782   6.3107   6.3159
     6.3159   6.4467   6.4467   6.4899   6.4899   6.5140   6.5509   6.5509
     6.6922   6.7611   6.7612   6.7821   6.8243   6.8793   6.8919   6.8919
     6.9591   6.9668   6.9669   7.0725   7.1367   7.1367   7.1839   7.1839
     7.2083   7.2861   7.2862   7.3963   7.5214   7.5215   7.6429   7.6664
     7.6664   7.7681   7.7681   7.9194   7.9195   7.9784   8.1671   8.2128
     8.2129   8.3403   8.4510   8.4511   9.3572   9.5279   9.5279  10.0384
    12.1396  12.2945  12.5986  12.8389  12.8912  12.8913  12.9583  12.9583
    13.0282  13.0390  13.0998  13.0998  13.1553  13.1553  13.2587  13.2587
    13.2793  13.3609  13.4652  13.4652  13.7619  13.8772  13.8773  13.9190
    13.9190  13.9448  14.2073  14.2074  14.4588  14.5219  14.6575  14.6576
    14.8171  15.0522  15.0522  15.1123  15.2851  15.3744  15.3744  15.6690
    15.6690  15.7088  15.7178  15.8056  15.8056  15.8189  15.8189  15.8256
    15.8382  15.8382  15.8661  15.9147  15.9147  16.0771  16.1085  16.1085
    16.1505  16.1505  16.3355  16.5765  16.6089  16.6089  16.6538

     occupation numbers 
     1.0000   1.0000   1.0000   1.0000   1.0000   1.0000   1.0000   1.0000
     1.0000   1.0000   1.0000   1.0000   1.0000   1.0000   1.0000   1.0000
     1.0000   1.0000   1.0000   1.0000   1.0000   1.0000   1.0000   1.0000
     1.0000   1.0000   1.0000   1.0000   1.0000   1.0000   1.0000   1.0000
     1.0000   1.0000   1.0000   1.0000   1.0000   1.0000   1.0000   1.0000
     1.0000   1.0000   1.0000   1.0000   1.0000   1.0000   1.0000   1.0000
     1.0000   1.0000   1.0000   1.0000   1.0000   1.0000   1.0000   1.0000
     1.0000   1.0000   1.0000   1.0000   1.0000   1.0000   1.0000   1.0000
     1.0000   1.0000   1.0000   1.0000   1.0000   1.0000   1.0000   1.0000
     1.0000   1.0000   1.0000   1.0000   1.0000   1.0000   1.0000   1.0000
     1.0000   1.0000   1.0000   1.0000   1.0000   1.0000   1.0000   1.0000
     1.0000   1.0000   1.0000   1.0000   1.0000   1.0000   1.0000   1.0000
     1.0000   1.0000   1.0000   1.0000   1.0000   1.0000   1.0000   1.0000
     1.0000   1.0000   1.0000   1.0000   1.0000   1.0000   1.0000   1.0000
     1.0000   1.0000   1.0000   1.0000   1.0000   1.0000   1.0000   1.0000
     1.0000   1.0000   1.0000   1.0000   1.0000   1.0000   1.0000   1.0000
     1.0000   1.0000   1.0000   1.0000   1.0000   1.0000   1.0000   1.0000
     1.0000   1.0000   1.0000   1.0000   1.0000   1.0000   1.0000   1.0000
     1.0000   1.0000   1.0000   1.0000   1.0000   1.0000   1.0000   1.0000
     1.0000   1.0000   1.0000   1.0000   1.0000   1.0000   1.0000   1.0000
     1.0000   1.0000   1.0000   1.0000   1.0000   1.0000   1.0000   1.0000
     1.0000   1.0000   1.0000   1.0000   1.0000   1.0000   1.0000   1.0000
     1.0000   1.0000   1.0000   1.0000   1.0000   1.0000   1.0000   1.0000
     1.0000   1.0000   1.0000   1.0000   1.0000   1.0000   1.0000   1.0000
     1.0000   1.0000   1.0000   1.0000   1.0000   1.0000   1.0000   1.0000
     1.0000   1.0000   1.0000   1.0000   1.0000   1.0000   1.0000   1.0000
     1.0000   1.0000   1.0000   1.0000   1.0000   1.0000   1.0000   1.0000
     1.0000   1.0000   1.0000   1.0000   1.0000   1.0000   1.0000   1.0000
     1.0000   1.0000   1.0000   1.0000   1.0000   1.0000   1.0000   1.0000
     1.0000   1.0000   1.0000   1.0000   1.0000   1.0000   1.0000   1.0000
     1.0000   1.0000   1.0000   1.0000   1.0000   1.0000   1.0000   1.0000
     1.0000   1.0000   1.0000   1.0000   1.0000   1.0000   1.0000   1.0000
     1.0000   1.0000   1.0000   1.0000   1.0000   1.0000   1.0000   1.0000
     1.0000   1.0000   1.0000   1.0000   1.0000   1.0000   1.0000   1.0000
     1.0000   1.0000   1.0000   1.0000   1.0000   1.0000   1.0000   1.0000
     1.0000   1.0000   1.0000   1.0000   1.0000   1.0000   1.0000   1.0000
     1.0000   1.0000   1.0000   1.0000   1.0000   1.0000   1.0000   1.0000
     1.0000   1.0000   1.0000   1.0000   1.0000   1.0000   1.0000   1.0000
     1.0000   1.0000   1.0000   1.0000   1.0000   1.0000   1.0000   1.0000
     1.0000   1.0000   1.0000   1.0000   0.9688   0.5355   0.5354   0.0000
     0.0000   0.0000   0.0000   0.0000   0.0000   0.0000   0.0000   0.0000
     0.0000   0.0000   0.0000   0.0000   0.0000   0.0000   0.0000   0.0000
     0.0000   0.0000   0.0000   0.0000   0.0000   0.0000   0.0000   0.0000
     0.0000   0.0000   0.0000   0.0000   0.0000   0.0000   0.0000   0.0000
     0.0000   0.0000   0.0000   0.0000   0.0000   0.0000   0.0000   0.0000
     0.0000   0.0000   0.0000   0.0000   0.0000   0.0000   0.0000   0.0000
     0.0000   0.0000   0.0000   0.0000   0.0000   0.0000   0.0000   0.0000
     0.0000   0.0000   0.0000   0.0000   0.0000   0.0000   0.0000

          k = 0.0000 0.0000-0.4602 ( 58014 PWs)   bands (ev):

    -7.2633  -7.0837  -7.0078  -7.0030  -7.0029  -6.9697  -6.9697  -6.9589
    -6.9387  -6.8980  -6.8799  -6.8583  -6.8582  -6.8494  -6.8313  -6.8313
    -6.7981  -6.7981  -6.7950  -6.7863  -6.7075  -6.7075  -6.6901  -6.6901
    -6.6867  -6.6350  -6.6349  -6.6331  -6.6331  -6.6195  -6.6194  -6.5392
    -5.8696  -5.8696  -5.8336  -5.8292  -5.8292  -5.8244  -5.8244  -5.8085
    -5.8052  -5.8052  -5.7996  -5.7799  -5.7799  -5.7695  -5.7661  -5.7661
    -5.7522  -5.7522  -5.7501  -5.7479  -5.7424  -5.7424  -5.7340  -5.7340
    -5.7295  -5.7080  -5.7072  -5.7072  -5.7014  -5.7005  -5.7005  -5.6976
    -5.6934  -5.6934  -5.6907  -5.6800  -5.6800  -5.6771  -5.6771  -5.6724
    -5.6670  -5.6670  -5.6663  -5.6663  -5.6604  -5.6540  -5.6540  -5.6485
    -5.6482  -5.6482  -5.6421  -5.6411  -5.6345  -5.6345  -5.6295  -5.6270
    -5.6269  -5.6193  -5.6193  -5.6176  -5.6176  -5.6172  -5.6088  -5.6088
    -5.6077  -5.6065  -5.5992  -5.5992  -5.5970  -5.5858  -5.5858  -5.5841
    -5.5801  -5.5800  -5.5764  -5.5764  -5.5728  -5.5649  -5.5603  -5.5603
    -5.5289  -5.5289  -5.5195  -5.5085  -5.5084  -5.4884  -5.4880  -5.4880
    -5.4779  -5.4733  -5.4733  -5.4387  -5.4387  -5.4223  -5.4223  -5.4109
    -5.3929  -5.3929  -5.3502  -5.3358  -5.3329  -5.3329  -5.3165  -5.3165
    -5.3133  -5.2957  -5.2957  -5.2478  -5.2478  -5.2213  -5.1986  -5.1986
    -5.1907  -5.1907  -5.1753  -5.1728  -5.1604  -5.1504  -5.1504  -5.1402
    -5.1402  -5.1381  -5.1367  -5.1367  -5.1263  -5.1187  -5.1187  -5.1108
    -5.0944  -5.0899  -5.0899  -5.0740  -5.0740  -5.0715  -5.0694  -5.0694
    -5.0677  -5.0677  -5.0494  -5.0494  -5.0446  -5.0266  -5.0266  -5.0243
    -5.0165  -4.8485  -4.7449  -4.7449  -4.7013  -4.7013  -4.6428  -4.6329
    -4.5613  -4.5613  -4.4709  -4.4623  -4.4622  -4.2677  -4.1216  -3.8485
    -3.7525  -3.7525  -3.7110  -3.7110  -3.6504  -3.6145  -3.5694  -3.5694
    -3.5628  -3.5628  -3.5054  -3.4569  -3.4569  -3.4381  -3.3340  -2.8039
    -2.7541  -2.7541  -2.6413   2.4662   2.4715   2.5058   2.5059   2.5396
     2.5459   2.5631   2.5631   2.5644   2.6065   2.6432   2.6432   2.6982
     2.6982   2.7583   2.8429   2.8429   2.9178   2.9178   2.9626   3.0837
     3.5185   3.6232   3.6232   3.6680   3.6887   3.6888   3.8169   3.8216
     3.8217   3.8791   3.8791   3.8896   4.0652   4.0652   4.2393   4.2393
     4.7495   4.7930   4.8293   4.8293   4.9567   4.9567   4.9831   5.0029
     5.0030   5.1687   5.1687   5.3599   5.3599   5.5522   5.7739   5.7739
     6.1433   6.1690   6.1691   6.1745   6.2132   6.2250   6.2250   6.2825
     6.3154   6.3155   6.3878   6.4215   6.4216   6.4272   6.5854   6.5854
     6.6840   6.6973   6.7221   6.8903   6.9193   6.9194   7.1150   7.1909
     7.2022   7.2022   7.2520   7.2520   7.2786   7.2840   7.2840   7.3061
     7.3061   7.3732   7.4048   7.4049   7.4632   7.4632   7.4695   7.5894
     7.5894   7.7164   7.8477   7.8477   7.9079   7.9080   8.0577   8.1029
     8.2534   8.2534   8.4259   8.4260   9.2823   9.5247   9.5247  11.1661
    11.3248  12.2923  12.4933  12.5602  12.5603  12.5798  12.6255  12.6255
    12.6865  12.6866  12.7503  12.7733  12.8972  12.8973  13.2452  13.8086
    13.8499  13.8500  13.9132  13.9133  14.0266  14.0267  14.0376  14.1003
    14.3810  14.3810  14.4608  14.4608  14.7224  14.7707  14.7707  15.0346
    15.0456  15.1069  15.1069  15.2324  15.2530  15.2530  15.3680  15.3730
    15.3730  15.3746  15.4037  15.4038  15.4310  15.5081  15.5082  15.5625
    15.6859  15.6859  15.9252  16.2177  16.2177  16.2212  16.2538  16.3064
    16.3064  16.4045  16.4045  16.4834  16.4834  16.5327  16.6086

     occupation numbers 
     1.0000   1.0000   1.0000   1.0000   1.0000   1.0000   1.0000   1.0000
     1.0000   1.0000   1.0000   1.0000   1.0000   1.0000   1.0000   1.0000
     1.0000   1.0000   1.0000   1.0000   1.0000   1.0000   1.0000   1.0000
     1.0000   1.0000   1.0000   1.0000   1.0000   1.0000   1.0000   1.0000
     1.0000   1.0000   1.0000   1.0000   1.0000   1.0000   1.0000   1.0000
     1.0000   1.0000   1.0000   1.0000   1.0000   1.0000   1.0000   1.0000
     1.0000   1.0000   1.0000   1.0000   1.0000   1.0000   1.0000   1.0000
     1.0000   1.0000   1.0000   1.0000   1.0000   1.0000   1.0000   1.0000
     1.0000   1.0000   1.0000   1.0000   1.0000   1.0000   1.0000   1.0000
     1.0000   1.0000   1.0000   1.0000   1.0000   1.0000   1.0000   1.0000
     1.0000   1.0000   1.0000   1.0000   1.0000   1.0000   1.0000   1.0000
     1.0000   1.0000   1.0000   1.0000   1.0000   1.0000   1.0000   1.0000
     1.0000   1.0000   1.0000   1.0000   1.0000   1.0000   1.0000   1.0000
     1.0000   1.0000   1.0000   1.0000   1.0000   1.0000   1.0000   1.0000
     1.0000   1.0000   1.0000   1.0000   1.0000   1.0000   1.0000   1.0000
     1.0000   1.0000   1.0000   1.0000   1.0000   1.0000   1.0000   1.0000
     1.0000   1.0000   1.0000   1.0000   1.0000   1.0000   1.0000   1.0000
     1.0000   1.0000   1.0000   1.0000   1.0000   1.0000   1.0000   1.0000
     1.0000   1.0000   1.0000   1.0000   1.0000   1.0000   1.0000   1.0000
     1.0000   1.0000   1.0000   1.0000   1.0000   1.0000   1.0000   1.0000
     1.0000   1.0000   1.0000   1.0000   1.0000   1.0000   1.0000   1.0000
     1.0000   1.0000   1.0000   1.0000   1.0000   1.0000   1.0000   1.0000
     1.0000   1.0000   1.0000   1.0000   1.0000   1.0000   1.0000   1.0000
     1.0000   1.0000   1.0000   1.0000   1.0000   1.0000   1.0000   1.0000
     1.0000   1.0000   1.0000   1.0000   1.0000   1.0000   1.0000   1.0000
     1.0000   1.0000   1.0000   1.0000   1.0000   1.0000   1.0000   1.0000
     1.0000   1.0000   1.0000   1.0000   1.0000   1.0000   1.0000   1.0000
     1.0000   1.0000   1.0000   1.0000   1.0000   1.0000   1.0000   1.0000
     1.0000   1.0000   1.0000   1.0000   1.0000   1.0000   1.0000   1.0000
     1.0000   1.0000   1.0000   1.0000   1.0000   1.0000   1.0000   1.0000
     1.0000   1.0000   1.0000   1.0000   1.0000   1.0000   1.0000   1.0000
     1.0000   1.0000   1.0000   1.0000   1.0000   1.0000   1.0000   1.0000
     1.0000   1.0000   1.0000   1.0000   1.0000   1.0000   1.0000   1.0000
     1.0000   1.0000   1.0000   1.0000   1.0000   1.0000   1.0000   1.0000
     1.0000   1.0000   1.0000   1.0000   1.0000   1.0000   1.0000   1.0000
     1.0000   1.0000   1.0000   1.0000   1.0000   1.0000   1.0000   1.0000
     1.0000   1.0000   1.0000   1.0000   1.0000   1.0000   1.0000   1.0000
     1.0000   1.0000   1.0000   1.0000   1.0000   1.0000   1.0000   1.0000
     1.0000   1.0000   1.0000   1.0000   1.0000   1.0000   1.0000   1.0000
     1.0000   1.0000   1.0000   1.0000   0.9959   0.5489   0.5488   0.0000
     0.0000   0.0000   0.0000   0.0000   0.0000   0.0000   0.0000   0.0000
     0.0000   0.0000   0.0000   0.0000   0.0000   0.0000   0.0000   0.0000
     0.0000   0.0000   0.0000   0.0000   0.0000   0.0000   0.0000   0.0000
     0.0000   0.0000   0.0000   0.0000   0.0000   0.0000   0.0000   0.0000
     0.0000   0.0000   0.0000   0.0000   0.0000   0.0000   0.0000   0.0000
     0.0000   0.0000   0.0000   0.0000   0.0000   0.0000   0.0000   0.0000
     0.0000   0.0000   0.0000   0.0000   0.0000   0.0000   0.0000   0.0000
     0.0000   0.0000   0.0000   0.0000   0.0000   0.0000   0.0000

          k = 0.0000-0.5774 0.0000 ( 57942 PWs)   bands (ev):

    -7.1885  -7.1345  -7.0137  -7.0000  -6.9897  -6.9749  -6.9663  -6.9635
    -6.9114  -6.9041  -6.8863  -6.8779  -6.8698  -6.8470  -6.8310  -6.8145
    -6.8090  -6.8017  -6.7956  -6.7583  -6.7430  -6.7087  -6.6878  -6.6695
    -6.6646  -6.6530  -6.6467  -6.6302  -6.6273  -6.6208  -6.6141  -6.5413
    -5.8549  -5.8432  -5.8361  -5.8284  -5.8256  -5.8234  -5.8225  -5.8119
    -5.8111  -5.8096  -5.7967  -5.7838  -5.7783  -5.7738  -5.7691  -5.7676
    -5.7648  -5.7562  -5.7505  -5.7453  -5.7424  -5.7423  -5.7376  -5.7275
    -5.7262  -5.7251  -5.7204  -5.7178  -5.7121  -5.7045  -5.7018  -5.6966
    -5.6933  -5.6910  -5.6883  -5.6825  -5.6787  -5.6773  -5.6763  -5.6734
    -5.6666  -5.6634  -5.6610  -5.6601  -5.6557  -5.6539  -5.6518  -5.6517
    -5.6491  -5.6448  -5.6448  -5.6424  -5.6362  -5.6342  -5.6303  -5.6288
    -5.6249  -5.6241  -5.6168  -5.6164  -5.6142  -5.6111  -5.6085  -5.6069
    -5.6062  -5.6041  -5.6027  -5.5976  -5.5961  -5.5895  -5.5886  -5.5859
    -5.5802  -5.5785  -5.5759  -5.5746  -5.5696  -5.5604  -5.5543  -5.5529
    -5.5408  -5.5380  -5.5171  -5.5090  -5.5028  -5.4954  -5.4877  -5.4875
    -5.4795  -5.4695  -5.4610  -5.4531  -5.4438  -5.4270  -5.4200  -5.4191
    -5.3935  -5.3791  -5.3785  -5.3538  -5.3532  -5.3447  -5.3330  -5.3247
    -5.2975  -5.2871  -5.2725  -5.2692  -5.2520  -5.2142  -5.2025  -5.1950
    -5.1929  -5.1885  -5.1764  -5.1745  -5.1674  -5.1587  -5.1494  -5.1417
    -5.1356  -5.1347  -5.1304  -5.1244  -5.1198  -5.1176  -5.1151  -5.1105
    -5.1071  -5.1055  -5.0931  -5.0927  -5.0831  -5.0710  -5.0659  -5.0623
    -5.0607  -5.0524  -5.0484  -5.0458  -5.0396  -5.0389  -5.0366  -5.0334
    -5.0229  -4.9678  -4.9464  -4.8969  -4.8679  -4.8443  -4.7585  -4.4209
    -4.4194  -4.3707  -4.2441  -4.1837  -4.1762  -4.1039  -4.1009  -3.9957
    -3.8399  -3.8029  -3.7775  -3.7632  -3.7261  -3.7174  -3.6992  -3.6629
    -3.5554  -3.5447  -3.5347  -3.3679  -3.3626  -3.3322  -3.2263  -2.8289
    -2.7240  -2.7131  -2.5999   1.9468   1.9786   2.0418   2.1352   2.2809
     2.3295   2.3512   2.3570   2.3913   2.3992   2.4481   2.5576   2.6009
     2.6337   2.6444   2.6718   2.6723   2.9093   3.0883   3.3866   3.4853
     3.5301   3.6325   3.6580   3.6621   3.7006   3.7429   4.1913   4.3675
     4.3870   4.3930   4.4119   4.4687   4.5196   4.5757   4.6011   4.7177
     4.7528   4.8437   4.9092   4.9829   5.0514   5.0605   5.1069   5.4383
     5.4986   5.5060   5.5835   5.6057   5.6224   5.7150   5.7272   5.8004
     5.8691   5.9388   6.0723   6.1295   6.3097   6.3752   6.4035   6.4224
     6.4704   6.4908   6.4949   6.5192   6.5401   6.5521   6.5752   6.5819
     6.5875   6.6208   6.6469   6.6552   6.6587   6.6740   6.6973   6.7139
     6.7315   6.7528   6.7652   6.7865   6.7984   6.8362   6.8595   6.9143
     7.0128   7.0564   7.0585   7.1242   7.2986   7.2995   7.4091   7.4378
     7.4667   7.5627   7.6615   7.6655   7.6821   7.8305   7.9129   8.0958
     8.1624   8.2694   8.3499   8.4540   8.9501   9.4236   9.4692  11.5016
    11.6288  12.7431  12.7549  12.9682  13.0031  13.1327  13.1473  13.2423
    13.3142  13.4667  13.6034  13.6202  13.6353  13.6468  13.6649  13.6679
    13.6789  13.7123  13.7660  13.8066  13.8828  13.9902  14.0579  14.1236
    14.1615  14.3181  14.3506  14.3591  14.4101  14.5003  14.5127  14.7052
    14.7603  14.8308  14.8904  14.9652  14.9996  15.0038  15.1926  15.3898
    15.6922  15.7041  15.7612  15.7744  15.8402  15.8662  15.8906  15.9324
    15.9484  15.9905  16.0457  16.0551  16.0832  16.1328  16.1358  16.1813
    16.2148  16.2293  16.2466  16.2878  16.3736  16.3912  16.4394

     occupation numbers 
     1.0000   1.0000   1.0000   1.0000   1.0000   1.0000   1.0000   1.0000
     1.0000   1.0000   1.0000   1.0000   1.0000   1.0000   1.0000   1.0000
     1.0000   1.0000   1.0000   1.0000   1.0000   1.0000   1.0000   1.0000
     1.0000   1.0000   1.0000   1.0000   1.0000   1.0000   1.0000   1.0000
     1.0000   1.0000   1.0000   1.0000   1.0000   1.0000   1.0000   1.0000
     1.0000   1.0000   1.0000   1.0000   1.0000   1.0000   1.0000   1.0000
     1.0000   1.0000   1.0000   1.0000   1.0000   1.0000   1.0000   1.0000
     1.0000   1.0000   1.0000   1.0000   1.0000   1.0000   1.0000   1.0000
     1.0000   1.0000   1.0000   1.0000   1.0000   1.0000   1.0000   1.0000
     1.0000   1.0000   1.0000   1.0000   1.0000   1.0000   1.0000   1.0000
     1.0000   1.0000   1.0000   1.0000   1.0000   1.0000   1.0000   1.0000
     1.0000   1.0000   1.0000   1.0000   1.0000   1.0000   1.0000   1.0000
     1.0000   1.0000   1.0000   1.0000   1.0000   1.0000   1.0000   1.0000
     1.0000   1.0000   1.0000   1.0000   1.0000   1.0000   1.0000   1.0000
     1.0000   1.0000   1.0000   1.0000   1.0000   1.0000   1.0000   1.0000
     1.0000   1.0000   1.0000   1.0000   1.0000   1.0000   1.0000   1.0000
     1.0000   1.0000   1.0000   1.0000   1.0000   1.0000   1.0000   1.0000
     1.0000   1.0000   1.0000   1.0000   1.0000   1.0000   1.0000   1.0000
     1.0000   1.0000   1.0000   1.0000   1.0000   1.0000   1.0000   1.0000
     1.0000   1.0000   1.0000   1.0000   1.0000   1.0000   1.0000   1.0000
     1.0000   1.0000   1.0000   1.0000   1.0000   1.0000   1.0000   1.0000
     1.0000   1.0000   1.0000   1.0000   1.0000   1.0000   1.0000   1.0000
     1.0000   1.0000   1.0000   1.0000   1.0000   1.0000   1.0000   1.0000
     1.0000   1.0000   1.0000   1.0000   1.0000   1.0000   1.0000   1.0000
     1.0000   1.0000   1.0000   1.0000   1.0000   1.0000   1.0000   1.0000
     1.0000   1.0000   1.0000   1.0000   1.0000   1.0000   1.0000   1.0000
     1.0000   1.0000   1.0000   1.0000   1.0000   1.0000   1.0000   1.0000
     1.0000   1.0000   1.0000   1.0000   1.0000   1.0000   1.0000   1.0000
     1.0000   1.0000   1.0000   1.0000   1.0000   1.0000   1.0000   1.0000
     1.0000   1.0000   1.0000   1.0000   1.0000   1.0000   1.0000   1.0000
     1.0000   1.0000   1.0000   1.0000   1.0000   1.0000   1.0000   1.0000
     1.0000   1.0000   1.0000   1.0000   1.0000   1.0000   1.0000   1.0000
     1.0000   1.0000   1.0000   1.0000   1.0000   1.0000   1.0000   1.0000
     1.0000   1.0000   1.0000   1.0000   1.0000   1.0000   1.0000   1.0000
     1.0000   1.0000   1.0000   1.0000   1.0000   1.0000   1.0000   1.0000
     1.0000   1.0000   1.0000   1.0000   1.0000   1.0000   1.0000   1.0000
     1.0000   1.0000   1.0000   1.0000   1.0000   1.0000   1.0000   1.0000
     1.0000   1.0000   1.0000   1.0000   1.0000   1.0000   1.0000   1.0000
     1.0000   1.0000   1.0000   1.0000   1.0000   1.0000   1.0000   1.0000
     1.0000   1.0000   1.0000   1.0000   1.0000   0.8797   0.7577   0.0000
     0.0000   0.0000   0.0000   0.0000   0.0000   0.0000   0.0000   0.0000
     0.0000   0.0000   0.0000   0.0000   0.0000   0.0000   0.0000   0.0000
     0.0000   0.0000   0.0000   0.0000   0.0000   0.0000   0.0000   0.0000
     0.0000   0.0000   0.0000   0.0000   0.0000   0.0000   0.0000   0.0000
     0.0000   0.0000   0.0000   0.0000   0.0000   0.0000   0.0000   0.0000
     0.0000   0.0000   0.0000   0.0000   0.0000   0.0000   0.0000   0.0000
     0.0000   0.0000   0.0000   0.0000   0.0000   0.0000   0.0000   0.0000
     0.0000   0.0000   0.0000   0.0000   0.0000   0.0000   0.0000

          k = 0.0000-0.5774-0.4602 ( 57848 PWs)   bands (ev):

    -7.1530  -7.1093  -7.0179  -7.0080  -6.9924  -6.9852  -6.9685  -6.9649
    -6.9149  -6.9089  -6.8946  -6.8717  -6.8655  -6.8529  -6.8290  -6.8134
    -6.8073  -6.8057  -6.7979  -6.7648  -6.7491  -6.7157  -6.6907  -6.6684
    -6.6667  -6.6555  -6.6470  -6.6316  -6.6288  -6.6217  -6.6153  -6.5413
    -5.8547  -5.8440  -5.8362  -5.8275  -5.8252  -5.8227  -5.8216  -5.8113
    -5.8110  -5.8103  -5.7958  -5.7830  -5.7775  -5.7743  -5.7713  -5.7684
    -5.7636  -5.7567  -5.7523  -5.7461  -5.7423  -5.7392  -5.7350  -5.7268
    -5.7239  -5.7210  -5.7193  -5.7158  -5.7120  -5.7034  -5.6983  -5.6954
    -5.6947  -5.6930  -5.6886  -5.6858  -5.6853  -5.6839  -5.6777  -5.6745
    -5.6676  -5.6667  -5.6626  -5.6624  -5.6563  -5.6540  -5.6506  -5.6504
    -5.6484  -5.6474  -5.6414  -5.6414  -5.6403  -5.6365  -5.6278  -5.6274
    -5.6242  -5.6219  -5.6207  -5.6156  -5.6124  -5.6120  -5.6092  -5.6065
    -5.6034  -5.6029  -5.6003  -5.5940  -5.5900  -5.5858  -5.5811  -5.5800
    -5.5781  -5.5752  -5.5738  -5.5709  -5.5623  -5.5587  -5.5510  -5.5456
    -5.5401  -5.5395  -5.5311  -5.5188  -5.5173  -5.5050  -5.5036  -5.4875
    -5.4848  -5.4817  -5.4717  -5.4494  -5.4370  -5.4210  -5.4193  -5.4146
    -5.3924  -5.3823  -5.3796  -5.3649  -5.3524  -5.3433  -5.3313  -5.3293
    -5.3015  -5.2873  -5.2816  -5.2737  -5.2471  -5.2196  -5.2012  -5.1945
    -5.1940  -5.1903  -5.1767  -5.1751  -5.1718  -5.1656  -5.1521  -5.1483
    -5.1424  -5.1342  -5.1301  -5.1243  -5.1199  -5.1181  -5.1145  -5.1145
    -5.1074  -5.1062  -5.1058  -5.0945  -5.0895  -5.0891  -5.0807  -5.0675
    -5.0604  -5.0583  -5.0545  -5.0501  -5.0462  -5.0428  -5.0398  -5.0372
    -5.0320  -5.0233  -5.0226  -4.9313  -4.9107  -4.7339  -4.6640  -4.2894
    -4.1957  -4.1603  -4.1528  -4.1069  -4.0981  -4.0877  -4.0135  -3.9940
    -3.9502  -3.9294  -3.8724  -3.8570  -3.8219  -3.8190  -3.6438  -3.6081
    -3.5876  -3.4885  -3.4836  -3.4569  -3.4128  -3.3954  -3.3077  -2.8257
    -2.7621  -2.7322  -2.6368   1.8484   2.0802   2.1970   2.2275   2.2689
     2.3135   2.3733   2.3756   2.5071   2.5678   2.6443   2.7046   2.7420
     2.8202   2.8461   2.8802   2.9227   2.9474   2.9974   3.0391   3.0465
     3.0980   3.1661   3.2259   3.2285   3.3543   3.4204   4.2462   4.3876
     4.3962   4.6385   4.7325   4.7560   4.7877   4.7922   4.8358   4.9311
     5.0569   5.0797   5.0988   5.1494   5.1947   5.2595   5.3685   5.4121
     5.4960   5.5370   5.5795   5.5952   5.6768   5.7203   5.7625   5.7789
     5.8078   5.8432   5.8943   5.8992   5.9710   5.9972   6.0155   6.0942
     6.1267   6.1692   6.1966   6.2024   6.2200   6.2408   6.3085   6.3678
     6.3910   6.4642   6.5026   6.6648   6.6995   6.7733   6.8678   6.8981
     6.9290   6.9391   6.9470   6.9861   6.9984   7.0229   7.0425   7.0618
     7.0951   7.2067   7.2496   7.2587   7.2961   7.4427   7.4545   7.4972
     7.5422   7.6368   7.6993   7.7583   7.8185   7.8360   7.9204   8.0016
     8.1066   8.2555   8.2960   8.4048   8.9703   9.4142   9.4706  11.9847
    12.0872  12.1593  12.3166  12.6342  12.7469  12.9700  12.9878  13.1618
    13.2278  13.3394  13.4479  13.4548  13.4765  13.5306  13.5736  13.5838
    13.5934  13.6262  13.6560  13.7619  13.8222  13.9834  14.2623  14.6244
    14.6305  14.6655  14.6873  14.7730  14.7812  14.8076  14.8361  14.8423
    15.0092  15.0833  15.2112  15.3199  15.3383  15.4142  15.4275  15.4332
    15.4919  15.4986  15.5385  15.6175  15.6895  15.7164  15.7374  15.7390
    15.8163  15.9347  15.9677  15.9719  16.0428  16.0888  16.1471  16.1723
    16.1823  16.1941  16.2066  16.2451  16.2986  16.3132  16.4217

     occupation numbers 
     1.0000   1.0000   1.0000   1.0000   1.0000   1.0000   1.0000   1.0000
     1.0000   1.0000   1.0000   1.0000   1.0000   1.0000   1.0000   1.0000
     1.0000   1.0000   1.0000   1.0000   1.0000   1.0000   1.0000   1.0000
     1.0000   1.0000   1.0000   1.0000   1.0000   1.0000   1.0000   1.0000
     1.0000   1.0000   1.0000   1.0000   1.0000   1.0000   1.0000   1.0000
     1.0000   1.0000   1.0000   1.0000   1.0000   1.0000   1.0000   1.0000
     1.0000   1.0000   1.0000   1.0000   1.0000   1.0000   1.0000   1.0000
     1.0000   1.0000   1.0000   1.0000   1.0000   1.0000   1.0000   1.0000
     1.0000   1.0000   1.0000   1.0000   1.0000   1.0000   1.0000   1.0000
     1.0000   1.0000   1.0000   1.0000   1.0000   1.0000   1.0000   1.0000
     1.0000   1.0000   1.0000   1.0000   1.0000   1.0000   1.0000   1.0000
     1.0000   1.0000   1.0000   1.0000   1.0000   1.0000   1.0000   1.0000
     1.0000   1.0000   1.0000   1.0000   1.0000   1.0000   1.0000   1.0000
     1.0000   1.0000   1.0000   1.0000   1.0000   1.0000   1.0000   1.0000
     1.0000   1.0000   1.0000   1.0000   1.0000   1.0000   1.0000   1.0000
     1.0000   1.0000   1.0000   1.0000   1.0000   1.0000   1.0000   1.0000
     1.0000   1.0000   1.0000   1.0000   1.0000   1.0000   1.0000   1.0000
     1.0000   1.0000   1.0000   1.0000   1.0000   1.0000   1.0000   1.0000
     1.0000   1.0000   1.0000   1.0000   1.0000   1.0000   1.0000   1.0000
     1.0000   1.0000   1.0000   1.0000   1.0000   1.0000   1.0000   1.0000
     1.0000   1.0000   1.0000   1.0000   1.0000   1.0000   1.0000   1.0000
     1.0000   1.0000   1.0000   1.0000   1.0000   1.0000   1.0000   1.0000
     1.0000   1.0000   1.0000   1.0000   1.0000   1.0000   1.0000   1.0000
     1.0000   1.0000   1.0000   1.0000   1.0000   1.0000   1.0000   1.0000
     1.0000   1.0000   1.0000   1.0000   1.0000   1.0000   1.0000   1.0000
     1.0000   1.0000   1.0000   1.0000   1.0000   1.0000   1.0000   1.0000
     1.0000   1.0000   1.0000   1.0000   1.0000   1.0000   1.0000   1.0000
     1.0000   1.0000   1.0000   1.0000   1.0000   1.0000   1.0000   1.0000
     1.0000   1.0000   1.0000   1.0000   1.0000   1.0000   1.0000   1.0000
     1.0000   1.0000   1.0000   1.0000   1.0000   1.0000   1.0000   1.0000
     1.0000   1.0000   1.0000   1.0000   1.0000   1.0000   1.0000   1.0000
     1.0000   1.0000   1.0000   1.0000   1.0000   1.0000   1.0000   1.0000
     1.0000   1.0000   1.0000   1.0000   1.0000   1.0000   1.0000   1.0000
     1.0000   1.0000   1.0000   1.0000   1.0000   1.0000   1.0000   1.0000
     1.0000   1.0000   1.0000   1.0000   1.0000   1.0000   1.0000   1.0000
     1.0000   1.0000   1.0000   1.0000   1.0000   1.0000   1.0000   1.0000
     1.0000   1.0000   1.0000   1.0000   1.0000   1.0000   1.0000   1.0000
     1.0000   1.0000   1.0000   1.0000   1.0000   1.0000   1.0000   1.0000
     1.0000   1.0000   1.0000   1.0000   1.0000   1.0000   1.0000   1.0000
     1.0000   1.0000   1.0000   1.0000   1.0000   0.8981   0.7534   0.0000
     0.0000   0.0000   0.0000   0.0000   0.0000   0.0000   0.0000   0.0000
     0.0000   0.0000   0.0000   0.0000   0.0000   0.0000   0.0000   0.0000
     0.0000   0.0000   0.0000   0.0000   0.0000   0.0000   0.0000   0.0000
     0.0000   0.0000   0.0000   0.0000   0.0000   0.0000   0.0000   0.0000
     0.0000   0.0000   0.0000   0.0000   0.0000   0.0000   0.0000   0.0000
     0.0000   0.0000   0.0000   0.0000   0.0000   0.0000   0.0000   0.0000
     0.0000   0.0000   0.0000   0.0000   0.0000   0.0000   0.0000   0.0000
     0.0000   0.0000   0.0000   0.0000   0.0000   0.0000   0.0000

     the Fermi energy is     9.5365 ev

!    total energy              =  -10957.23974387 Ry
     total all-electron energy =   -140239.759617 Ry
     estimated scf accuracy    <          1.8E-10 Ry
     smearing contrib. (-TS)   =      -0.00828710 Ry
     internal energy E=F+TS    =  -10957.23145677 Ry

     The total energy is F=E-TS. E is the sum of the following terms:
     one-electron contribution =   -3400.07553762 Ry
     hartree contribution      =    2360.60371422 Ry
     xc contribution           =   -1600.19278146 Ry
     ewald contribution        =   -3959.71243187 Ry
     one-center paw contrib.   =   -4357.85442005 Ry
      -> PAW hartree energy AE =     144.94114294 Ry
      -> PAW hartree energy PS =    -143.54531846 Ry
      -> PAW xc energy AE      =    -156.97334175 Ry
      -> PAW xc energy PS      =      39.76263937 Ry
      -> total E_H with PAW    =    2361.99953871 Ry
      -> total E_XC with PAW   =   -1717.40348384 Ry

     convergence has been achieved in  22 iterations


     -----------------------------------------------
     Non-local corr. energy    =      19.16538334 Ry
     -----------------------------------------------


     Forces acting on atoms (cartesian axes, Ry/au):

     atom    1 type  1   force =     0.00000000    0.00000000   -0.00320325
     atom    2 type  1   force =     0.01129028   -0.05398925   -0.01214229
     atom    3 type  1   force =    -0.00039167   -0.00625211    0.00391240
     atom    4 type  1   force =    -0.04111092    0.03677229   -0.01214229
     atom    5 type  1   force =    -0.00561032    0.00278686    0.00391240
     atom    6 type  1   force =    -0.05240120    0.01721696   -0.01214229
     atom    7 type  1   force =    -0.00521865    0.00346525    0.00391240
     atom    8 type  1   force =    -0.01129028   -0.05398925   -0.01214229
     atom    9 type  1   force =     0.00039167   -0.00625211    0.00391240
     atom   10 type  1   force =     0.00000000    0.00000000   -0.00989090
     atom   11 type  1   force =     0.00000000    0.00000000    0.00200763
     atom   12 type  1   force =     0.05240120    0.01721696   -0.01214229
     atom   13 type  1   force =     0.00521865    0.00346525    0.00391240
     atom   14 type  1   force =     0.00000000    0.00000000   -0.00780624
     atom   15 type  1   force =     0.00000000    0.00000000    0.00185592
     atom   16 type  1   force =     0.04111092    0.03677229   -0.01214229
     atom   17 type  1   force =     0.00561032    0.00278686    0.00391240
     atom   18 type  1   force =     0.04873434   -0.02813678   -0.03670852
     atom   19 type  1   force =     0.01429970   -0.00825594    0.05801754
     atom   20 type  1   force =     0.00788392    0.00455178   -0.00919854
     atom   21 type  1   force =     0.00303380    0.00175157    0.01056799
     atom   22 type  1   force =     0.00000000    0.05627357   -0.03670852
     atom   23 type  1   force =     0.00000000    0.01651187    0.05801754
     atom   24 type  1   force =    -0.04873434   -0.02813678   -0.03670852
     atom   25 type  1   force =    -0.01429970   -0.00825594    0.05801754
     atom   26 type  1   force =     0.00000000   -0.00971262   -0.00882842
     atom   27 type  1   force =     0.00000000   -0.00665100    0.01041631
     atom   28 type  1   force =    -0.00841138    0.00485631   -0.00882842
     atom   29 type  1   force =    -0.00575994    0.00332550    0.01041631
     atom   30 type  1   force =     0.00000000   -0.00910357   -0.00919854
     atom   31 type  1   force =     0.00000000   -0.00350313    0.01056799
     atom   32 type  1   force =    -0.00788392    0.00455178   -0.00919854
     atom   33 type  1   force =    -0.00303380    0.00175157    0.01056799
     atom   34 type  1   force =     0.00841138    0.00485631   -0.00882842
     atom   35 type  1   force =     0.00575994    0.00332550    0.01041631
     atom   36 type  2   force =     0.00000000    0.00000000    0.05713282
     atom   37 type  2   force =     0.00000000    0.00000000   -0.02850632
     atom   38 type  2   force =    -0.00672709    0.01606817    0.01163538
     atom   39 type  2   force =     0.00014090    0.01117285   -0.01430162
     atom   40 type  2   force =     0.01055190   -0.01385992    0.01163538
     atom   41 type  2   force =     0.00974642   -0.00546441   -0.01430162
     atom   42 type  2   force =     0.01727899   -0.00220825    0.01163538
     atom   43 type  2   force =     0.00960553   -0.00570845   -0.01430162
     atom   44 type  2   force =     0.00672709    0.01606817    0.01163538
     atom   45 type  2   force =    -0.00014090    0.01117285   -0.01430162
     atom   46 type  2   force =     0.00000000    0.00000000    0.00526537
     atom   47 type  2   force =     0.00000000    0.00000000   -0.00636349
     atom   48 type  2   force =    -0.01727899   -0.00220825    0.01163538
     atom   49 type  2   force =    -0.00960553   -0.00570845   -0.01430162
     atom   50 type  2   force =     0.00000000    0.00000000    0.00467461
     atom   51 type  2   force =     0.00000000    0.00000000   -0.00573800
     atom   52 type  2   force =    -0.01055190   -0.01385992    0.01163538
     atom   53 type  2   force =    -0.00974642   -0.00546441   -0.01430162
     atom   54 type  2   force =    -0.04513139    0.02605662   -0.01995488
     atom   55 type  2   force =    -0.01272273    0.00734547    0.01579901
     atom   56 type  2   force =    -0.00155429   -0.00089737   -0.00258194
     atom   57 type  2   force =    -0.00206986   -0.00119504    0.00145202
     atom   58 type  2   force =     0.00000000   -0.05211324   -0.01995488
     atom   59 type  2   force =     0.00000000   -0.01469094    0.01579901
     atom   60 type  2   force =     0.04513139    0.02605662   -0.01995488
     atom   61 type  2   force =     0.01272273    0.00734547    0.01579901
     atom   62 type  2   force =    -0.00000000    0.01690780   -0.00136981
     atom   63 type  2   force =     0.00000000    0.00401875    0.00103880
     atom   64 type  2   force =     0.01464259   -0.00845390   -0.00136981
     atom   65 type  2   force =     0.00348034   -0.00200937    0.00103880
     atom   66 type  2   force =     0.00000000    0.00179473   -0.00258194
     atom   67 type  2   force =     0.00000000    0.00239007    0.00145202
     atom   68 type  2   force =     0.00155429   -0.00089737   -0.00258194
     atom   69 type  2   force =     0.00206986   -0.00119504    0.00145202
     atom   70 type  2   force =    -0.01464259   -0.00845390   -0.00136981
     atom   71 type  2   force =    -0.00348034   -0.00200937    0.00103880
     The non-local contrib.  to forces
     atom    1 type  1   force =     0.00000000    0.00000000   -0.06325226
     atom    2 type  1   force =     0.00674991    0.30648041    0.11820319
     atom    3 type  1   force =     0.00566851    0.04433235   -0.03893232
     atom    4 type  1   force =     0.26879478   -0.14739461    0.11820319
     atom    5 type  1   force =     0.04122719   -0.01725710   -0.03893232
     atom    6 type  1   force =     0.26204486   -0.15908580    0.11820319
     atom    7 type  1   force =     0.03555868   -0.02707525   -0.03893232
     atom    8 type  1   force =    -0.00674991    0.30648041    0.11820319
     atom    9 type  1   force =    -0.00566851    0.04433235   -0.03893232
     atom   10 type  1   force =     0.00000000   -0.00000000    0.08431926
     atom   11 type  1   force =     0.00000000   -0.00000000   -0.01245855
     atom   12 type  1   force =    -0.26204486   -0.15908580    0.11820319
     atom   13 type  1   force =    -0.03555868   -0.02707525   -0.03893232
     atom   14 type  1   force =     0.00000000   -0.00000000    0.05019199
     atom   15 type  1   force =     0.00000000    0.00000000   -0.01463621
[...]
     atom   40 type  2   force =     0.00000000    0.00000000    0.00000000
     atom   41 type  2   force =     0.00000000    0.00000000    0.00000000
     atom   42 type  2   force =     0.00000000    0.00000000    0.00000000
     atom   43 type  2   force =     0.00000000    0.00000000    0.00000000
     atom   44 type  2   force =     0.00000000    0.00000000    0.00000000
     atom   45 type  2   force =     0.00000000    0.00000000    0.00000000
     atom   46 type  2   force =     0.00000000    0.00000000    0.00000000
     atom   47 type  2   force =     0.00000000    0.00000000    0.00000000
     atom   48 type  2   force =     0.00000000    0.00000000    0.00000000
     atom   49 type  2   force =     0.00000000    0.00000000    0.00000000
     atom   50 type  2   force =     0.00000000    0.00000000    0.00000000
     atom   51 type  2   force =     0.00000000    0.00000000    0.00000000
     atom   52 type  2   force =     0.00000000    0.00000000    0.00000000
     atom   53 type  2   force =     0.00000000    0.00000000    0.00000000
     atom   54 type  2   force =     0.00000000    0.00000000    0.00000000
     atom   55 type  2   force =     0.00000000    0.00000000    0.00000000
     atom   56 type  2   force =     0.00000000    0.00000000    0.00000000
     atom   57 type  2   force =     0.00000000    0.00000000    0.00000000
     atom   58 type  2   force =     0.00000000    0.00000000    0.00000000
     atom   59 type  2   force =     0.00000000    0.00000000    0.00000000
     atom   60 type  2   force =     0.00000000    0.00000000    0.00000000
     atom   61 type  2   force =     0.00000000    0.00000000    0.00000000
     atom   62 type  2   force =     0.00000000    0.00000000    0.00000000
     atom   63 type  2   force =     0.00000000    0.00000000    0.00000000
     atom   64 type  2   force =     0.00000000    0.00000000    0.00000000
     atom   65 type  2   force =     0.00000000    0.00000000    0.00000000
     atom   66 type  2   force =     0.00000000    0.00000000    0.00000000
     atom   67 type  2   force =     0.00000000    0.00000000    0.00000000
     atom   68 type  2   force =     0.00000000    0.00000000    0.00000000
     atom   69 type  2   force =     0.00000000    0.00000000    0.00000000
     atom   70 type  2   force =     0.00000000    0.00000000    0.00000000
     atom   71 type  2   force =     0.00000000    0.00000000    0.00000000
     The SCF correction term to forces
     atom    1 type  1   force =    -0.00000000    0.00000000   -0.00000207
     atom    2 type  1   force =     0.00000002    0.00000102    0.00000117
     atom    3 type  1   force =     0.00000065    0.00000053   -0.00000057
     atom    4 type  1   force =     0.00000089   -0.00000049    0.00000117
     atom    5 type  1   force =     0.00000079    0.00000030   -0.00000057
     atom    6 type  1   force =     0.00000087   -0.00000053    0.00000117
     atom    7 type  1   force =     0.00000013   -0.00000083   -0.00000057
     atom    8 type  1   force =    -0.00000002    0.00000102    0.00000117
     atom    9 type  1   force =    -0.00000065    0.00000053   -0.00000057
     atom   10 type  1   force =    -0.00000000    0.00000000    0.00000020
     atom   11 type  1   force =     0.00000000   -0.00000000   -0.00000048
     atom   12 type  1   force =    -0.00000087   -0.00000053    0.00000117
     atom   13 type  1   force =    -0.00000013   -0.00000083   -0.00000057
     atom   14 type  1   force =     0.00000000   -0.00000000    0.00000042
     atom   15 type  1   force =    -0.00000000   -0.00000000   -0.00000008
     atom   16 type  1   force =    -0.00000089   -0.00000049    0.00000117
     atom   17 type  1   force =    -0.00000079    0.00000030   -0.00000057
     atom   18 type  1   force =     0.00000240   -0.00000138   -0.00000287
     atom   19 type  1   force =    -0.00000024    0.00000014    0.00000157
     atom   20 type  1   force =     0.00000068    0.00000039   -0.00000282
     atom   21 type  1   force =     0.00000068    0.00000039    0.00000250
     atom   22 type  1   force =    -0.00000000    0.00000277   -0.00000287
     atom   23 type  1   force =    -0.00000000   -0.00000027    0.00000157
     atom   24 type  1   force =    -0.00000240   -0.00000138   -0.00000287
     atom   25 type  1   force =     0.00000024    0.00000014    0.00000157
     atom   26 type  1   force =     0.00000000   -0.00000039   -0.00000236
     atom   27 type  1   force =     0.00000000    0.00000098    0.00000215
     atom   28 type  1   force =    -0.00000034    0.00000020   -0.00000236
     atom   29 type  1   force =     0.00000085   -0.00000049    0.00000215
     atom   30 type  1   force =    -0.00000000   -0.00000079   -0.00000282
     atom   31 type  1   force =    -0.00000000   -0.00000078    0.00000250
     atom   32 type  1   force =    -0.00000068    0.00000039   -0.00000282
     atom   33 type  1   force =    -0.00000068    0.00000039    0.00000250
     atom   34 type  1   force =     0.00000034    0.00000020   -0.00000236
     atom   35 type  1   force =    -0.00000085   -0.00000049    0.00000215
     atom   36 type  2   force =    -0.00000000    0.00000000   -0.00000048
     atom   37 type  2   force =    -0.00000000   -0.00000000    0.00000047
     atom   38 type  2   force =     0.00000033   -0.00000033   -0.00000072
     atom   39 type  2   force =     0.00000004    0.00000035    0.00000091
     atom   40 type  2   force =    -0.00000012    0.00000045   -0.00000072
     atom   41 type  2   force =     0.00000032   -0.00000014    0.00000091
     atom   42 type  2   force =    -0.00000045   -0.00000012   -0.00000072
     atom   43 type  2   force =     0.00000028   -0.00000021    0.00000091
     atom   44 type  2   force =    -0.00000033   -0.00000033   -0.00000072
     atom   45 type  2   force =    -0.00000004    0.00000035    0.00000091
     atom   46 type  2   force =    -0.00000000    0.00000000   -0.00000062
     atom   47 type  2   force =    -0.00000000    0.00000000    0.00000083
     atom   48 type  2   force =     0.00000045   -0.00000012   -0.00000072
     atom   49 type  2   force =    -0.00000028   -0.00000021    0.00000091
     atom   50 type  2   force =    -0.00000000   -0.00000000   -0.00000097
     atom   51 type  2   force =    -0.00000000    0.00000000    0.00000095
     atom   52 type  2   force =     0.00000012    0.00000045   -0.00000072
     atom   53 type  2   force =    -0.00000032   -0.00000014    0.00000091
     atom   54 type  2   force =    -0.00000030    0.00000017    0.00000073
     atom   55 type  2   force =     0.00000050   -0.00000029   -0.00000111
     atom   56 type  2   force =     0.00000030    0.00000017    0.00000040
     atom   57 type  2   force =     0.00000036    0.00000021   -0.00000043
     atom   58 type  2   force =    -0.00000000   -0.00000035    0.00000073
     atom   59 type  2   force =    -0.00000000    0.00000057   -0.00000111
     atom   60 type  2   force =     0.00000030    0.00000017    0.00000073
     atom   61 type  2   force =    -0.00000050   -0.00000029   -0.00000111
     atom   62 type  2   force =     0.00000000    0.00000030    0.00000037
     atom   63 type  2   force =    -0.00000000    0.00000030   -0.00000055
     atom   64 type  2   force =     0.00000026   -0.00000015    0.00000037
     atom   65 type  2   force =     0.00000026   -0.00000015   -0.00000055
     atom   66 type  2   force =     0.00000000   -0.00000035    0.00000040
     atom   67 type  2   force =    -0.00000000   -0.00000041   -0.00000043
     atom   68 type  2   force =    -0.00000030    0.00000017    0.00000040
     atom   69 type  2   force =    -0.00000036    0.00000021   -0.00000043
     atom   70 type  2   force =    -0.00000026   -0.00000015    0.00000037
     atom   71 type  2   force =    -0.00000026   -0.00000015   -0.00000055

     Total force =     0.003751     Total SCF correction =     0.000014


     Computing stress (Cartesian axis) and pressure



     -----------------------------------------------
     Non-local corr. energy    =      19.17570889 Ry
     -----------------------------------------------

          total   stress  (Ry/bohr**3)                   (kbar)     P=       54.60
   0.00036502   0.00000000   0.00000000           53.70        0.00        0.00
   0.00000000   0.00036502   0.00000000            0.00       53.70        0.00
   0.00000000  -0.00000000   0.00038345            0.00       -0.00       56.41

     kinetic stress (kbar)  18228.00     -0.00      0.00
                               -0.00  18228.00     -0.00
                                0.00     -0.00  18236.66

     local   stress (kbar)   4178.42     -0.07     -0.00
                               -0.07   4178.33      0.00
                               -0.00      0.00   2698.56

     nonloc. stress (kbar)      2.97      0.00      0.00
                                0.00      2.97      0.00
                                0.00      0.00     10.01

     hartree stress (kbar)  19579.34     -0.00     -0.00
                               -0.00  19579.34      0.00
                               -0.00      0.00  20251.42

     exc-cor stress (kbar)   5033.31      0.00      0.00
                                0.00   5033.31      0.00
                                0.00      0.00   5033.80

     corecor stress (kbar) -13736.36     -0.00      0.00
                               -0.00 -13736.36      0.00
                                0.00      0.00 -13736.10

     ewald   stress (kbar) -33390.33      0.09      0.00
                                0.09 -33390.21     -0.00
                                0.00     -0.00 -32595.45

     hubbard stress (kbar)      0.00      0.00      0.00
                                0.00      0.00      0.00
                                0.00      0.00      0.00

     DFT-D   stress (kbar)      0.00      0.00      0.00
                                0.00      0.00      0.00
                                0.00      0.00      0.00

     XDM     stress (kbar)      0.00      0.00      0.00
                                0.00      0.00      0.00
                                0.00      0.00      0.00

     dft-nl  stress (kbar)    158.33     -0.00     -0.00
                               -0.00    158.33     -0.00
                               -0.00     -0.00    157.49

     TS-vdW  stress (kbar)      0.00      0.00      0.00
                                0.00      0.00      0.00
                                0.00      0.00      0.00

     MDB     stress (kbar)      0.00      0.00      0.00
                                0.00      0.00      0.00
                                0.00      0.00      0.00

     3D-RISM stress (kbar)      0.00      0.00      0.00
                                0.00      0.00      0.00
                                0.00      0.00      0.00

     Energy error            =      3.2E-05 Ry
     Gradient error          =      8.5E-04 Ry/Bohr

     bfgs converged in  11 scf cycles and  10 bfgs steps
     (criteria: energy <  1.0E-04 Ry, force <  1.0E-03 Ry/Bohr)

     End of BFGS Geometry Optimization

     Final energy             =  -10957.3088995283 Ry

     File ./GaN.bfgs deleted, as requested
Begin final coordinates

ATOMIC_POSITIONS (angstrom)
Ga            1.6222756606        0.9366198184        7.8973408013
Ga            0.0155995631        3.7087911626        2.6356364474
Ga           -0.0030552637        3.7421257673        7.9325796865
Ga           -1.6471142062        6.5886958894        2.6356364474
Ga           -1.6275730051        6.5558730332        7.9325796865
Ga            4.8263845170        0.9419564625        2.6356364474
Ga            4.8645805449        0.9414447140        7.9325796865
Ga            3.2289517581        3.7087911626        2.6356364474
Ga            3.2476065849        3.7421257673        7.9325796865
Ga            1.6222756606        6.5563425246        2.6365636216
Ga            1.6222756606        6.5563425246        7.9276781995
Ga            8.1518120554        0.9419564625        2.6356364474
Ga            8.1136160275        0.9414447140        7.9325796865
Ga            6.4890982862        3.7464811715        2.6196501054
Ga            6.4890982862        3.7464811715        7.9319930493
Ga            4.8916655274        6.5886958894        2.6356364474
Ga            4.8721243263        6.5558730332        7.9325796865
Ga            0.0348520135        1.8531194927        5.2523671016
Ga            0.0126416136        1.8659426731       10.6108750897
Ga           -1.6192533545        4.6848490249        5.2703188424
Ga           -1.6154453703        4.6870475656       10.5977361432
Ga           -3.2445503819        7.5332110603        5.2523671016
Ga           -3.2445503819        7.5075646995       10.6108750897
Ga            3.2096924740        1.8531194927        5.2523671016
Ga            3.2319028739        1.8659426731       10.6108750897
Ga            1.6222722437        4.6755656831        5.2762169105
Ga            1.6222722437        4.6786156353       10.5775048151
Ga           -0.0065301652        7.4967342110        5.2762169105
Ga           -0.0038888291        7.4952092349       10.5775048151
Ga            6.4890948693        1.8697519960        5.2703188424
Ga            6.4890948693        1.8653549146       10.5977361432
Ga            4.8637978420        4.6848490249        5.2703188424
Ga            4.8599898578        4.6870475656       10.5977361432
Ga            3.2510746527        7.4967342110        5.2762169105
Ga            3.2484333166        7.4952092349       10.5775048151
N             1.6222756606        0.9366198184        4.7799231812
N             1.6222756606        0.9366198184        9.8984028860
N            -0.0005380368        3.7501810328        4.6345635347
N             0.0021320839        3.7545866012        9.9122285966
N            -1.6193383271        6.5540253829        4.6345635347
N            -1.6141879326        6.5541349910        9.9122285966
N             4.8702979960        0.9352370988        4.6345635347
N             4.8727782698        0.9307219223        9.9122285966
N             3.2450893580        3.7501810328        4.6345635347
N             3.2424192373        3.7545866012        9.9122285966
N             1.6222756606        6.5563425246        4.6334540906
N             1.6222756606        6.5563425246        9.9194051285
N             8.1078985764        0.9352370988        4.6345635347
N             8.1054183026        0.9307219223        9.9122285966
N             6.4890982862        3.7464811715        4.6246030390
N             6.4890982862        3.7464811715        9.9278955353
N             4.8638896483        6.5540253829        4.6345635347
N             4.8587392538        6.5541349910        9.9122285966
N            -0.1275096391        1.9468590366        1.9338141554
N            -0.0172123660        1.8831788763        7.2855131886
N            -1.6113424836        4.6894163683        2.0028589447
N            -1.6233163487        4.6825032540        7.2701413705
N            -3.2445503819        7.3457319725        1.9338141554
N            -3.2445503819        7.4730922932        7.2855131886
N             3.3720541266        1.9468590366        1.9338141554
N             3.2617568535        1.8831788763        7.2855131886
N             1.6222722437        4.6900601546        1.9895227147
N             1.6222722437        4.6839133901        7.2718993490
N             0.0060224153        7.4894869752        1.9895227147
N             0.0006991611        7.4925603575        7.2718993490
N             6.4890948693        1.8606173092        2.0028589447
N             6.4890948693        1.8744435376        7.2701413705
N             4.8558869711        4.6894163683        2.0028589447
N             4.8678608362        4.6825032540        7.2701413705
N             3.2385220722        7.4894869752        1.9895227147
N             3.2438453264        7.4925603575        7.2718993490
End final coordinates



     Writing all to output data dir ./GaN.save/
 
     init_run     :      3.70s CPU      3.93s WALL (       1 calls)
     electrons    :   3482.98s CPU   3673.05s WALL (      11 calls)
     update_pot   :     13.32s CPU     13.45s WALL (      10 calls)
     forces       :     19.95s CPU     20.35s WALL (      11 calls)
     stress       :    190.89s CPU    192.54s WALL (      11 calls)

     Called by init_run:
     wfcinit      :      2.03s CPU      2.14s WALL (       1 calls)
     wfcinit:atom :      0.02s CPU      0.02s WALL (       1 calls)
     wfcinit:wfcr :      1.94s CPU      2.03s WALL (       1 calls)
     potinit      :      0.97s CPU      1.04s WALL (       1 calls)
     hinit0       :      0.42s CPU      0.43s WALL (       1 calls)

     Called by electrons:
     c_bands      :   3221.52s CPU   3405.44s WALL (     207 calls)
     sum_band     :    129.25s CPU    131.09s WALL (     207 calls)
     v_of_rho     :     81.85s CPU     83.62s WALL (     217 calls)
     v_h          :      0.75s CPU      0.76s WALL (     217 calls)
     v_xc         :     89.29s CPU     91.17s WALL (     239 calls)
     newd         :      9.29s CPU      9.58s WALL (     217 calls)
     PAW_pot      :     40.95s CPU     41.52s WALL (     227 calls)
     mix_rho      :      4.24s CPU      4.43s WALL (     207 calls)
     vdW_kernel   :      0.25s CPU      0.26s WALL (       1 calls)

     Called by c_bands:
     init_us_2    :      6.71s CPU      6.89s WALL (     425 calls)
     init_us_2:cp :      6.71s CPU      6.89s WALL (     425 calls)
     cegterg      :   2539.84s CPU   2612.47s WALL (     207 calls)

     Called by sum_band:
     sum_band:wei :      0.28s CPU      0.29s WALL (     207 calls)
     sum_band:loo :    112.71s CPU    114.17s WALL (     207 calls)
     sum_band:buf :      0.00s CPU      0.00s WALL (     207 calls)
     sum_band:ini :      5.76s CPU      5.86s WALL (     207 calls)
     sum_band:cal :     44.10s CPU     44.56s WALL (     217 calls)
     sum_band:bec :      0.94s CPU      0.97s WALL (     217 calls)
     addusdens    :      9.78s CPU      9.96s WALL (     207 calls)
     addusd:skk   :      0.81s CPU      0.82s WALL (     414 calls)
     addusd:dgemm :      6.17s CPU      6.31s WALL (     414 calls)
     addusd:qvan2 :      2.29s CPU      2.31s WALL (     414 calls)

     Called by *egterg:
     cdiaghg      :   1449.68s CPU   1487.04s WALL (    1878 calls)
     cegterg:over :    177.80s CPU    183.50s WALL (    1682 calls)
     cegterg:upda :    110.05s CPU    114.56s WALL (    1682 calls)
     cegterg:last :     51.94s CPU     52.36s WALL (     222 calls)
     h_psi        :    567.20s CPU    578.79s WALL (    1890 calls)
     s_psi        :    118.87s CPU    120.01s WALL (    1890 calls)
     g_psi        :      0.84s CPU      0.85s WALL (    1682 calls)

     Called by h_psi:
     h_psi:calbec :    130.75s CPU    132.55s WALL (    1890 calls)
     vloc_psi     :    312.57s CPU    316.81s WALL (    1890 calls)
     add_vuspsi   :    118.83s CPU    119.99s WALL (    1890 calls)

     General routines
     calbec       :    186.22s CPU    188.58s WALL (    2162 calls)
     fft          :     34.68s CPU     35.16s WALL (   15519 calls)
     ffts         :      0.87s CPU      0.88s WALL (     424 calls)
     fftw         :    334.37s CPU    339.04s WALL (  504691 calls)
     interpolate  :      1.00s CPU      1.01s WALL (     217 calls)
 
     Parallel routines

     PAW routines
     PAW_pot      :     40.95s CPU     41.52s WALL (     227 calls)
     PAW_symme    :      0.49s CPU      0.49s WALL (     434 calls)
 
     PWSCF        :      1h 1m CPU      1h 5m WALL

 
   This run was terminated on:  12:10:53  29Jan2024            

=------------------------------------------------------------------------------=
   JOB DONE.
=------------------------------------------------------------------------------=
