
     Program PWSCF v.7.1 starts on 19Feb2024 at  8:18:46 

     This program is part of the open-source Quantum ESPRESSO suite
     for quantum simulation of materials; please cite
         "P. Giannozzi et al., J. Phys.:Condens. Matter 21 395502 (2009);
         "P. Giannozzi et al., J. Phys.:Condens. Matter 29 465901 (2017);
         "P. Giannozzi et al., J. Chem. Phys. 152 154105 (2020);
          URL http://www.quantum-espresso.org", 
     in publications or presentations arising from this work. More details at
     http://www.quantum-espresso.org/quote

     Parallel version (MPI & OpenMP), running on     256 processor cores
     Number of MPI processes:               256
     Threads/MPI process:                     1

     MPI processes distributed on     2 nodes
     1919335 MiB available memory on the printing compute node when the environment starts
 
     Reading input from espresso.pwi
Warning: card &CELL ignored
Warning: card    CELL_DYNAMICS    = 'BFGS' ignored
Warning: card / ignored

     Current dimensions of program PWSCF are:
     Max number of different atomic species (ntypx) = 10
     Max number of k-points (npk) =  40000
     Max angular momentum in pseudopotentials (lmaxx) =  4
     file Ga.pbe-dn-kjpaw_psl.1.0.0.UPF: wavefunction(s)  4S renormalized
     file N.pbe-n-kjpaw_psl.1.0.0.UPF: wavefunction(s)  2S renormalized

     **************************************************************************
     Initializing libbeef V0.1.2 with the BEEF-vdW functional.
     Citation: Wellendorff et al., PRB 85, 235149 (2012).
     **************************************************************************


     IMPORTANT: XC functional enforced from input :
     Exchange-correlation= BEEF-VDW
                           (   1   4  43  14   2   0   0)
     Any further DFT definition will be discarded
     Please, verify this is what you really want

 
     K-points division:     npool     =       4
     R & G space division:  proc/nbgrp/npool/nimage =      64
     Subspace diagonalization in iterative solution of the eigenvalue problem:
     a serial algorithm will be used

 
     Parallelization info
     --------------------
     sticks:   dense  smooth     PW     G-vecs:    dense   smooth      PW
     Min         354     283     73                42160    30167    3987
     Max         356     285     74                42163    30170    3996
     Sum       22693   18145   4705              2698283  1930731  255309
 
     Using Slab Decomposition
 


     bravais-lattice index     =            4
     lattice parameter (alat)  =      30.6565  a.u.
     unit-cell volume          =   24400.9461 (a.u.)^3
     number of atoms/cell      =          299
     number of atomic types    =            2
     number of electrons       =      2688.00
     number of Kohn-Sham states=         1613
     kinetic-energy cutoff     =      70.0000  Ry
     charge density cutoff     =     350.0000  Ry
     scf convergence threshold =      1.0E-07
     mixing beta               =       0.7000
     number of iterations used =            8  plain     mixing
     energy convergence thresh.=      1.0E-04
     force convergence thresh. =      1.0E-03
     Exchange-correlation= BEEF-VDW
                           (   1   4  43  14   2   0   0)
     nstep                     =           50


     celldm(1)=  30.656540  celldm(2)=   0.000000  celldm(3)=   0.977927
     celldm(4)=   0.000000  celldm(5)=   0.000000  celldm(6)=   0.000000

     crystal axes: (cart. coord. in units of alat)
               a(1) = (   1.000000   0.000000   0.000000 )  
               a(2) = (  -0.500000   0.866025   0.000000 )  
               a(3) = (   0.000000   0.000000   0.977927 )  

     reciprocal axes: (cart. coord. in units 2 pi/alat)
               b(1) = (  1.000000  0.577350 -0.000000 )  
               b(2) = (  0.000000  1.154701  0.000000 )  
               b(3) = (  0.000000 -0.000000  1.022571 )  


     PseudoPot. # 1 for Ga read from file:
     //group///packages/espresso/pseudo/psl_1.0.0/pslibrary.1.0.0/pbe/PSEUDOPOTENTIALS/Ga.pbe-dn-kjpaw_psl.1.0.0.UPF
     MD5 check sum: cd2a01e492f15b435d17032472d8505c
     Pseudo is Projector augmented-wave + core cor, Zval = 13.0
     Generated using 'atomic' code by A. Dal Corso  v.7.1
     Shape of augmentation charge: PSQ
     Using radial grid of 1205 points,  6 beta functions with: 
                l(1) =   0
                l(2) =   0
                l(3) =   1
                l(4) =   1
                l(5) =   2
                l(6) =   2
     Q(r) pseudized with 0 coefficients 


     PseudoPot. # 2 for N  read from file:
     //group///packages/espresso/pseudo/psl_1.0.0/pslibrary.1.0.0/pbe/PSEUDOPOTENTIALS/N.pbe-n-kjpaw_psl.1.0.0.UPF
     MD5 check sum: f77f775694dac7e2c3fe1c82443d1a16
     Pseudo is Projector augmented-wave + core cor, Zval =  5.0
     Generated using 'atomic' code by A. Dal Corso  v.7.1
     Shape of augmentation charge: PSQ
     Using radial grid of 1085 points,  4 beta functions with: 
                l(1) =   0
                l(2) =   0
                l(3) =   1
                l(4) =   1
     Q(r) pseudized with 0 coefficients 


     atomic species   valence    mass     pseudopotential
        Ga            13.00    69.72300     Ga( 1.00)
        N              5.00    14.00700     N ( 1.00)

      2 Sym. Ops. (no inversion) found


                                    s                        frac. trans.

      isym =  1     identity                                     

 cryst.   s( 1) = (     1          0          0      )
                  (     0          1          0      )
                  (     0          0          1      )

 cart.    s( 1) = (  1.0000000  0.0000000  0.0000000 )
                  (  0.0000000  1.0000000  0.0000000 )
                  (  0.0000000  0.0000000  1.0000000 )


      isym =  2     inv. 180 deg rotation - cryst. axis [0,1,0]  

 cryst.   s( 2) = (     1          1          0      )
                  (     0         -1          0      )
                  (     0          0          1      )

 cart.    s( 2) = (  0.5000000  0.8660254  0.0000000 )
                  (  0.8660254 -0.5000000  0.0000000 )
                  (  0.0000000  0.0000000  1.0000000 )


     point group C_s (m)    
     there are  2 classes
     the character table:

       E     s    
A'     1.00  1.00
A''    1.00 -1.00

     the symmetry operations in each class and the name of the first element:

     E        1
          identity                                               
     s        2
          inv. 180 deg rotation - cryst. axis [0,1,0]            

   Cartesian axes

     site n.     atom                  positions (alat units)
         1           Ga  tau(   1) = (   0.1000001   0.0577350   0.4886906  )
         2           Ga  tau(   2) = (   0.1000001   0.0577350   0.8146665  )
         3           Ga  tau(   3) = (   0.0000001   0.2309401   0.1627148  )
         4           Ga  tau(   4) = (   0.0000001   0.2309401   0.4886906  )
         5           Ga  tau(   5) = (   0.0000001   0.2309401   0.8146665  )
         6           Ga  tau(   6) = (  -0.0999999   0.4041451   0.1627148  )
         7           Ga  tau(   7) = (  -0.0999999   0.4041451   0.4886906  )
         8           Ga  tau(   8) = (  -0.0999999   0.4041451   0.8146665  )
         9           Ga  tau(   9) = (  -0.1999999   0.5773502   0.1627148  )
        10           Ga  tau(  10) = (  -0.1999999   0.5773502   0.4886906  )
        11           Ga  tau(  11) = (  -0.1999999   0.5773502   0.8146665  )
        12           Ga  tau(  12) = (  -0.2999999   0.7505553   0.1627148  )
        13           Ga  tau(  13) = (  -0.2999999   0.7505553   0.4886906  )
        14           Ga  tau(  14) = (  -0.2999999   0.7505553   0.8146665  )
        15           Ga  tau(  15) = (   0.3000001   0.0577350   0.1627148  )
        16           Ga  tau(  16) = (   0.3000001   0.0577350   0.4886906  )
        17           Ga  tau(  17) = (   0.3000001   0.0577350   0.8146665  )
        18           Ga  tau(  18) = (   0.2000001   0.2309401   0.1627148  )
        19           Ga  tau(  19) = (   0.2000001   0.2309401   0.4886906  )
        20           Ga  tau(  20) = (   0.2000001   0.2309401   0.8146665  )
        21           Ga  tau(  21) = (   0.1000001   0.4041451   0.1627148  )
        22           Ga  tau(  22) = (   0.1000001   0.4041451   0.4886906  )
        23           Ga  tau(  23) = (   0.1000001   0.4041451   0.8146665  )
        24           Ga  tau(  24) = (   0.0000001   0.5773502   0.1627148  )
        25           Ga  tau(  25) = (   0.0000001   0.5773502   0.4886906  )
        26           Ga  tau(  26) = (   0.0000001   0.5773502   0.8146665  )
        27           Ga  tau(  27) = (  -0.0999999   0.7505553   0.1627148  )
        28           Ga  tau(  28) = (  -0.0999999   0.7505553   0.4886906  )
        29           Ga  tau(  29) = (  -0.0999999   0.7505553   0.8146665  )
        30           Ga  tau(  30) = (   0.5000001   0.0577350   0.1627148  )
        31           Ga  tau(  31) = (   0.5000001   0.0577350   0.4886906  )
        32           Ga  tau(  32) = (   0.5000001   0.0577350   0.8146665  )
        33           Ga  tau(  33) = (   0.4000001   0.2309401   0.1627148  )
        34           Ga  tau(  34) = (   0.4000001   0.2309401   0.4886906  )
        35           Ga  tau(  35) = (   0.4000001   0.2309401   0.8146665  )
        36           Ga  tau(  36) = (   0.3000001   0.4041451   0.1627148  )
        37           Ga  tau(  37) = (   0.3000001   0.4041451   0.4886906  )
        38           Ga  tau(  38) = (   0.3000001   0.4041451   0.8146665  )
        39           Ga  tau(  39) = (   0.2000001   0.5773502   0.1627148  )
        40           Ga  tau(  40) = (   0.2000001   0.5773502   0.4886906  )
        41           Ga  tau(  41) = (   0.2000001   0.5773502   0.8146665  )
        42           Ga  tau(  42) = (   0.1000001   0.7505553   0.1627148  )
        43           Ga  tau(  43) = (   0.1000001   0.7505553   0.4886906  )
        44           Ga  tau(  44) = (   0.1000001   0.7505553   0.8146665  )
        45           Ga  tau(  45) = (   0.7000001   0.0577350   0.1627148  )
        46           Ga  tau(  46) = (   0.7000001   0.0577350   0.4886906  )
        47           Ga  tau(  47) = (   0.7000001   0.0577350   0.8146665  )
        48           Ga  tau(  48) = (   0.6000001   0.2309401   0.1627148  )
        49           Ga  tau(  49) = (   0.6000001   0.2309401   0.4886906  )
        50           Ga  tau(  50) = (   0.6000001   0.2309401   0.8146665  )
        51           Ga  tau(  51) = (   0.5000001   0.4041451   0.1627148  )
        52           Ga  tau(  52) = (   0.5000001   0.4041451   0.4886906  )
        53           Ga  tau(  53) = (   0.5000001   0.4041451   0.8146665  )
        54           Ga  tau(  54) = (   0.4000001   0.5773502   0.1627148  )
        55           Ga  tau(  55) = (   0.4000001   0.5773502   0.4886906  )
        56           Ga  tau(  56) = (   0.4000001   0.5773502   0.8146665  )
        57           Ga  tau(  57) = (   0.3000001   0.7505553   0.1627148  )
        58           Ga  tau(  58) = (   0.3000001   0.7505553   0.4886906  )
        59           Ga  tau(  59) = (   0.3000001   0.7505553   0.8146665  )
        60           Ga  tau(  60) = (   0.9000001   0.0577350   0.1627148  )
        61           Ga  tau(  61) = (   0.9000001   0.0577350   0.4886906  )
        62           Ga  tau(  62) = (   0.9000001   0.0577350   0.8146665  )
        63           Ga  tau(  63) = (   0.8000001   0.2309401   0.1627148  )
        64           Ga  tau(  64) = (   0.8000001   0.2309401   0.4886906  )
        65           Ga  tau(  65) = (   0.8000001   0.2309401   0.8146665  )
        66           Ga  tau(  66) = (   0.7000001   0.4041451   0.1627148  )
        67           Ga  tau(  67) = (   0.7000001   0.4041451   0.4886906  )
        68           Ga  tau(  68) = (   0.7000001   0.4041451   0.8146665  )
        69           Ga  tau(  69) = (   0.6000001   0.5773502   0.1627148  )
        70           Ga  tau(  70) = (   0.6000001   0.5773502   0.4886906  )
        71           Ga  tau(  71) = (   0.6000001   0.5773502   0.8146665  )
        72           Ga  tau(  72) = (   0.5000001   0.7505553   0.1627148  )
        73           Ga  tau(  73) = (   0.5000001   0.7505553   0.4886906  )
        74           Ga  tau(  74) = (   0.5000001   0.7505553   0.8146665  )
        75           Ga  tau(  75) = (  -0.0000001   0.1154701   0.3257027  )
        76           Ga  tau(  76) = (  -0.0000001   0.1154701   0.6516786  )
        77           Ga  tau(  77) = (  -0.0000001   0.1154701   0.9776544  )
        78           Ga  tau(  78) = (  -0.1000001   0.2886752   0.3257027  )
        79           Ga  tau(  79) = (  -0.1000001   0.2886752   0.6516786  )
        80           Ga  tau(  80) = (  -0.1000001   0.2886752   0.9776544  )
        81           Ga  tau(  81) = (  -0.2000001   0.4618803   0.3257027  )
        82           Ga  tau(  82) = (  -0.2000001   0.4618803   0.6516786  )
        83           Ga  tau(  83) = (  -0.2000001   0.4618803   0.9776544  )
        84           Ga  tau(  84) = (  -0.3000001   0.6350854   0.3257027  )
        85           Ga  tau(  85) = (  -0.3000001   0.6350854   0.6516786  )
        86           Ga  tau(  86) = (  -0.3000001   0.6350854   0.9776544  )
        87           Ga  tau(  87) = (  -0.4000001   0.8082905   0.3257027  )
        88           Ga  tau(  88) = (  -0.4000001   0.8082905   0.6516786  )
        89           Ga  tau(  89) = (  -0.4000001   0.8082905   0.9776544  )
        90           Ga  tau(  90) = (   0.1999999   0.1154701   0.3257027  )
        91           Ga  tau(  91) = (   0.1999999   0.1154701   0.6516786  )
        92           Ga  tau(  92) = (   0.1999999   0.1154701   0.9776544  )
        93           Ga  tau(  93) = (   0.0999999   0.2886752   0.3257027  )
        94           Ga  tau(  94) = (   0.0999999   0.2886752   0.6516786  )
        95           Ga  tau(  95) = (   0.0999999   0.2886752   0.9776544  )
        96           Ga  tau(  96) = (  -0.0000001   0.4618803   0.3257027  )
        97           Ga  tau(  97) = (  -0.0000001   0.4618803   0.6516786  )
        98           Ga  tau(  98) = (  -0.0000001   0.4618803   0.9776544  )
        99           Ga  tau(  99) = (  -0.1000001   0.6350854   0.3257027  )
       100           Ga  tau( 100) = (  -0.1000001   0.6350854   0.6516786  )
       101           Ga  tau( 101) = (  -0.1000001   0.6350854   0.9776544  )
       102           Ga  tau( 102) = (  -0.2000001   0.8082905   0.3257027  )
       103           Ga  tau( 103) = (  -0.2000001   0.8082905   0.6516786  )
       104           Ga  tau( 104) = (  -0.2000001   0.8082905   0.9776544  )
       105           Ga  tau( 105) = (   0.3999999   0.1154701   0.3257027  )
       106           Ga  tau( 106) = (   0.3999999   0.1154701   0.6516786  )
       107           Ga  tau( 107) = (   0.3999999   0.1154701   0.9776544  )
       108           Ga  tau( 108) = (   0.2999999   0.2886752   0.3257027  )
       109           Ga  tau( 109) = (   0.2999999   0.2886752   0.6516786  )
       110           Ga  tau( 110) = (   0.2999999   0.2886752   0.9776544  )
       111           Ga  tau( 111) = (   0.1999999   0.4618803   0.3257027  )
       112           Ga  tau( 112) = (   0.1999999   0.4618803   0.6516786  )
       113           Ga  tau( 113) = (   0.1999999   0.4618803   0.9776544  )
       114           Ga  tau( 114) = (   0.0999999   0.6350854   0.3257027  )
       115           Ga  tau( 115) = (   0.0999999   0.6350854   0.6516786  )
       116           Ga  tau( 116) = (   0.0999999   0.6350854   0.9776544  )
       117           Ga  tau( 117) = (  -0.0000001   0.8082905   0.3257027  )
       118           Ga  tau( 118) = (  -0.0000001   0.8082905   0.6516786  )
       119           Ga  tau( 119) = (  -0.0000001   0.8082905   0.9776544  )
       120           Ga  tau( 120) = (   0.5999999   0.1154701   0.3257027  )
       121           Ga  tau( 121) = (   0.5999999   0.1154701   0.6516786  )
       122           Ga  tau( 122) = (   0.5999999   0.1154701   0.9776544  )
       123           Ga  tau( 123) = (   0.4999999   0.2886752   0.3257027  )
       124           Ga  tau( 124) = (   0.4999999   0.2886752   0.6516786  )
       125           Ga  tau( 125) = (   0.4999999   0.2886752   0.9776544  )
       126           Ga  tau( 126) = (   0.3999999   0.4618803   0.3257027  )
       127           Ga  tau( 127) = (   0.3999999   0.4618803   0.6516786  )
       128           Ga  tau( 128) = (   0.3999999   0.4618803   0.9776544  )
       129           Ga  tau( 129) = (   0.2999999   0.6350854   0.3257027  )
       130           Ga  tau( 130) = (   0.2999999   0.6350854   0.6516786  )
       131           Ga  tau( 131) = (   0.2999999   0.6350854   0.9776544  )
       132           Ga  tau( 132) = (   0.1999999   0.8082905   0.3257027  )
       133           Ga  tau( 133) = (   0.1999999   0.8082905   0.6516786  )
       134           Ga  tau( 134) = (   0.1999999   0.8082905   0.9776544  )
       135           Ga  tau( 135) = (   0.7999999   0.1154701   0.3257027  )
       136           Ga  tau( 136) = (   0.7999999   0.1154701   0.6516786  )
       137           Ga  tau( 137) = (   0.7999999   0.1154701   0.9776544  )
       138           Ga  tau( 138) = (   0.6999999   0.2886752   0.3257027  )
       139           Ga  tau( 139) = (   0.6999999   0.2886752   0.6516786  )
       140           Ga  tau( 140) = (   0.6999999   0.2886752   0.9776544  )
       141           Ga  tau( 141) = (   0.5999999   0.4618803   0.3257027  )
       142           Ga  tau( 142) = (   0.5999999   0.4618803   0.6516786  )
       143           Ga  tau( 143) = (   0.5999999   0.4618803   0.9776544  )
       144           Ga  tau( 144) = (   0.4999999   0.6350854   0.3257027  )
       145           Ga  tau( 145) = (   0.4999999   0.6350854   0.6516786  )
       146           Ga  tau( 146) = (   0.4999999   0.6350854   0.9776544  )
       147           Ga  tau( 147) = (   0.3999999   0.8082905   0.3257027  )
       148           Ga  tau( 148) = (   0.3999999   0.8082905   0.6516786  )
       149           Ga  tau( 149) = (   0.3999999   0.8082905   0.9776544  )
       150           N   tau( 150) = (   0.1000001   0.0577350   0.2855019  )
       151           N   tau( 151) = (   0.1000001   0.0577350   0.6114777  )
       152           N   tau( 152) = (   0.1000001   0.0577350   0.9374535  )
       153           N   tau( 153) = (   0.0000001   0.2309401   0.2855019  )
       154           N   tau( 154) = (   0.0000001   0.2309401   0.6114777  )
       155           N   tau( 155) = (   0.0000001   0.2309401   0.9374535  )
       156           N   tau( 156) = (  -0.0999999   0.4041451   0.2855019  )
       157           N   tau( 157) = (  -0.0999999   0.4041451   0.6114777  )
       158           N   tau( 158) = (  -0.0999999   0.4041451   0.9374535  )
       159           N   tau( 159) = (  -0.1999999   0.5773502   0.2855019  )
       160           N   tau( 160) = (  -0.1999999   0.5773502   0.6114777  )
       161           N   tau( 161) = (  -0.1999999   0.5773502   0.9374535  )
       162           N   tau( 162) = (  -0.2999999   0.7505553   0.2855019  )
       163           N   tau( 163) = (  -0.2999999   0.7505553   0.6114777  )
       164           N   tau( 164) = (  -0.2999999   0.7505553   0.9374535  )
       165           N   tau( 165) = (   0.3000001   0.0577350   0.2855019  )
       166           N   tau( 166) = (   0.3000001   0.0577350   0.6114777  )
       167           N   tau( 167) = (   0.3000001   0.0577350   0.9374535  )
       168           N   tau( 168) = (   0.2000001   0.2309401   0.2855019  )
       169           N   tau( 169) = (   0.2000001   0.2309401   0.6114777  )
       170           N   tau( 170) = (   0.2000001   0.2309401   0.9374535  )
       171           N   tau( 171) = (   0.1000001   0.4041451   0.2855019  )
       172           N   tau( 172) = (   0.1000001   0.4041451   0.6114777  )
       173           N   tau( 173) = (   0.1000001   0.4041451   0.9374535  )
       174           N   tau( 174) = (   0.0000001   0.5773502   0.2855019  )
       175           N   tau( 175) = (   0.0000001   0.5773502   0.6114777  )
       176           N   tau( 176) = (   0.0000001   0.5773502   0.9374535  )
       177           N   tau( 177) = (  -0.0999999   0.7505553   0.2855019  )
       178           N   tau( 178) = (  -0.0999999   0.7505553   0.6114777  )
       179           N   tau( 179) = (  -0.0999999   0.7505553   0.9374535  )
       180           N   tau( 180) = (   0.5000001   0.0577350   0.2855019  )
       181           N   tau( 181) = (   0.5000001   0.0577350   0.6114777  )
       182           N   tau( 182) = (   0.5000001   0.0577350   0.9374535  )
       183           N   tau( 183) = (   0.4000001   0.2309401   0.2855019  )
       184           N   tau( 184) = (   0.4000001   0.2309401   0.6114777  )
       185           N   tau( 185) = (   0.4000001   0.2309401   0.9374535  )
       186           N   tau( 186) = (   0.3000001   0.4041451   0.2855019  )
       187           N   tau( 187) = (   0.3000001   0.4041451   0.6114777  )
       188           N   tau( 188) = (   0.3000001   0.4041451   0.9374535  )
       189           N   tau( 189) = (   0.2000001   0.5773502   0.2855019  )
       190           N   tau( 190) = (   0.2000001   0.5773502   0.6114777  )
       191           N   tau( 191) = (   0.2000001   0.5773502   0.9374535  )
       192           N   tau( 192) = (   0.1000001   0.7505553   0.2855019  )
       193           N   tau( 193) = (   0.1000001   0.7505553   0.6114777  )
       194           N   tau( 194) = (   0.1000001   0.7505553   0.9374535  )
       195           N   tau( 195) = (   0.7000001   0.0577350   0.2855019  )
       196           N   tau( 196) = (   0.7000001   0.0577350   0.6114777  )
       197           N   tau( 197) = (   0.7000001   0.0577350   0.9374535  )
       198           N   tau( 198) = (   0.6000001   0.2309401   0.2855019  )
       199           N   tau( 199) = (   0.6000001   0.2309401   0.6114777  )
       200           N   tau( 200) = (   0.6000001   0.2309401   0.9374535  )
       201           N   tau( 201) = (   0.5000001   0.4041451   0.2855019  )
       202           N   tau( 202) = (   0.5000001   0.4041451   0.6114777  )
       203           N   tau( 203) = (   0.5000001   0.4041451   0.9374535  )
       204           N   tau( 204) = (   0.4000001   0.5773502   0.2855019  )
       205           N   tau( 205) = (   0.4000001   0.5773502   0.6114777  )
       206           N   tau( 206) = (   0.4000001   0.5773502   0.9374535  )
       207           N   tau( 207) = (   0.3000001   0.7505553   0.2855019  )
       208           N   tau( 208) = (   0.3000001   0.7505553   0.6114777  )
       209           N   tau( 209) = (   0.3000001   0.7505553   0.9374535  )
       210           N   tau( 210) = (   0.9000001   0.0577350   0.2855019  )
       211           N   tau( 211) = (   0.9000001   0.0577350   0.6114777  )
       212           N   tau( 212) = (   0.9000001   0.0577350   0.9374535  )
       213           N   tau( 213) = (   0.8000001   0.2309401   0.2855019  )
       214           N   tau( 214) = (   0.8000001   0.2309401   0.6114777  )
       215           N   tau( 215) = (   0.8000001   0.2309401   0.9374535  )
       216           N   tau( 216) = (   0.7000001   0.4041451   0.2855019  )
       217           N   tau( 217) = (   0.7000001   0.4041451   0.6114777  )
       218           N   tau( 218) = (   0.7000001   0.4041451   0.9374535  )
       219           N   tau( 219) = (   0.6000001   0.5773502   0.2855019  )
       220           N   tau( 220) = (   0.6000001   0.5773502   0.6114777  )
       221           N   tau( 221) = (   0.6000001   0.5773502   0.9374535  )
       222           N   tau( 222) = (   0.5000001   0.7505553   0.2855019  )
       223           N   tau( 223) = (   0.5000001   0.7505553   0.6114777  )
       224           N   tau( 224) = (   0.5000001   0.7505553   0.9374535  )
       225           N   tau( 225) = (  -0.0000001   0.1154701   0.1225140  )
       226           N   tau( 226) = (  -0.0000001   0.1154701   0.4484898  )
       227           N   tau( 227) = (  -0.0000001   0.1154701   0.7744656  )
       228           N   tau( 228) = (  -0.1000001   0.2886752   0.1225140  )
       229           N   tau( 229) = (  -0.1000001   0.2886752   0.4484898  )
       230           N   tau( 230) = (  -0.1000001   0.2886752   0.7744656  )
       231           N   tau( 231) = (  -0.2000001   0.4618803   0.1225140  )
       232           N   tau( 232) = (  -0.2000001   0.4618803   0.4484898  )
       233           N   tau( 233) = (  -0.2000001   0.4618803   0.7744656  )
       234           N   tau( 234) = (  -0.3000001   0.6350854   0.1225140  )
       235           N   tau( 235) = (  -0.3000001   0.6350854   0.4484898  )
       236           N   tau( 236) = (  -0.3000001   0.6350854   0.7744656  )
       237           N   tau( 237) = (  -0.4000001   0.8082905   0.1225140  )
       238           N   tau( 238) = (  -0.4000001   0.8082905   0.4484898  )
       239           N   tau( 239) = (  -0.4000001   0.8082905   0.7744656  )
       240           N   tau( 240) = (   0.1999999   0.1154701   0.1225140  )
       241           N   tau( 241) = (   0.1999999   0.1154701   0.4484898  )
       242           N   tau( 242) = (   0.1999999   0.1154701   0.7744656  )
       243           N   tau( 243) = (   0.0999999   0.2886752   0.1225140  )
       244           N   tau( 244) = (   0.0999999   0.2886752   0.4484898  )
       245           N   tau( 245) = (   0.0999999   0.2886752   0.7744656  )
       246           N   tau( 246) = (  -0.0000001   0.4618803   0.1225140  )
       247           N   tau( 247) = (  -0.0000001   0.4618803   0.4484898  )
       248           N   tau( 248) = (  -0.0000001   0.4618803   0.7744656  )
       249           N   tau( 249) = (  -0.1000001   0.6350854   0.1225140  )
       250           N   tau( 250) = (  -0.1000001   0.6350854   0.4484898  )
       251           N   tau( 251) = (  -0.1000001   0.6350854   0.7744656  )
       252           N   tau( 252) = (  -0.2000001   0.8082905   0.1225140  )
       253           N   tau( 253) = (  -0.2000001   0.8082905   0.4484898  )
       254           N   tau( 254) = (  -0.2000001   0.8082905   0.7744656  )
       255           N   tau( 255) = (   0.3999999   0.1154701   0.1225140  )
       256           N   tau( 256) = (   0.3999999   0.1154701   0.4484898  )
       257           N   tau( 257) = (   0.3999999   0.1154701   0.7744656  )
       258           N   tau( 258) = (   0.2999999   0.2886752   0.1225140  )
       259           N   tau( 259) = (   0.2999999   0.2886752   0.4484898  )
       260           N   tau( 260) = (   0.2999999   0.2886752   0.7744656  )
       261           N   tau( 261) = (   0.1999999   0.4618803   0.1225140  )
       262           N   tau( 262) = (   0.1999999   0.4618803   0.4484898  )
       263           N   tau( 263) = (   0.1999999   0.4618803   0.7744656  )
       264           N   tau( 264) = (   0.0999999   0.6350854   0.1225140  )
       265           N   tau( 265) = (   0.0999999   0.6350854   0.4484898  )
       266           N   tau( 266) = (   0.0999999   0.6350854   0.7744656  )
       267           N   tau( 267) = (  -0.0000001   0.8082905   0.1225140  )
       268           N   tau( 268) = (  -0.0000001   0.8082905   0.4484898  )
       269           N   tau( 269) = (  -0.0000001   0.8082905   0.7744656  )
       270           N   tau( 270) = (   0.5999999   0.1154701   0.1225140  )
       271           N   tau( 271) = (   0.5999999   0.1154701   0.4484898  )
       272           N   tau( 272) = (   0.5999999   0.1154701   0.7744656  )
       273           N   tau( 273) = (   0.4999999   0.2886752   0.1225140  )
       274           N   tau( 274) = (   0.4999999   0.2886752   0.4484898  )
       275           N   tau( 275) = (   0.4999999   0.2886752   0.7744656  )
       276           N   tau( 276) = (   0.3999999   0.4618803   0.1225140  )
       277           N   tau( 277) = (   0.3999999   0.4618803   0.4484898  )
       278           N   tau( 278) = (   0.3999999   0.4618803   0.7744656  )
       279           N   tau( 279) = (   0.2999999   0.6350854   0.1225140  )
       280           N   tau( 280) = (   0.2999999   0.6350854   0.4484898  )
       281           N   tau( 281) = (   0.2999999   0.6350854   0.7744656  )
       282           N   tau( 282) = (   0.1999999   0.8082905   0.1225140  )
       283           N   tau( 283) = (   0.1999999   0.8082905   0.4484898  )
       284           N   tau( 284) = (   0.1999999   0.8082905   0.7744656  )
       285           N   tau( 285) = (   0.7999999   0.1154701   0.1225140  )
       286           N   tau( 286) = (   0.7999999   0.1154701   0.4484898  )
       287           N   tau( 287) = (   0.7999999   0.1154701   0.7744656  )
       288           N   tau( 288) = (   0.6999999   0.2886752   0.1225140  )
       289           N   tau( 289) = (   0.6999999   0.2886752   0.4484898  )
       290           N   tau( 290) = (   0.6999999   0.2886752   0.7744656  )
       291           N   tau( 291) = (   0.5999999   0.4618803   0.1225140  )
       292           N   tau( 292) = (   0.5999999   0.4618803   0.4484898  )
       293           N   tau( 293) = (   0.5999999   0.4618803   0.7744656  )
       294           N   tau( 294) = (   0.4999999   0.6350854   0.1225140  )
       295           N   tau( 295) = (   0.4999999   0.6350854   0.4484898  )
       296           N   tau( 296) = (   0.4999999   0.6350854   0.7744656  )
       297           N   tau( 297) = (   0.3999999   0.8082905   0.1225140  )
       298           N   tau( 298) = (   0.3999999   0.8082905   0.4484898  )
       299           N   tau( 299) = (   0.3999999   0.8082905   0.7744656  )

   Crystallographic axes

     site n.     atom                  positions (cryst. coord.)
         1           Ga  tau(   1) = (  0.1333334  0.0666666  0.4997208  )
         2           Ga  tau(   2) = (  0.1333334  0.0666666  0.8330541  )
         3           Ga  tau(   3) = (  0.1333334  0.2666666  0.1663874  )
         4           Ga  tau(   4) = (  0.1333334  0.2666666  0.4997208  )
         5           Ga  tau(   5) = (  0.1333334  0.2666666  0.8330541  )
         6           Ga  tau(   6) = (  0.1333334  0.4666666  0.1663874  )
         7           Ga  tau(   7) = (  0.1333334  0.4666666  0.4997208  )
         8           Ga  tau(   8) = (  0.1333334  0.4666666  0.8330541  )
         9           Ga  tau(   9) = (  0.1333334  0.6666666  0.1663874  )
        10           Ga  tau(  10) = (  0.1333334  0.6666666  0.4997208  )
        11           Ga  tau(  11) = (  0.1333334  0.6666666  0.8330541  )
        12           Ga  tau(  12) = (  0.1333334  0.8666666  0.1663874  )
        13           Ga  tau(  13) = (  0.1333334  0.8666666  0.4997208  )
        14           Ga  tau(  14) = (  0.1333334  0.8666666  0.8330541  )
        15           Ga  tau(  15) = (  0.3333334  0.0666666  0.1663874  )
        16           Ga  tau(  16) = (  0.3333334  0.0666666  0.4997208  )
        17           Ga  tau(  17) = (  0.3333334  0.0666666  0.8330541  )
        18           Ga  tau(  18) = (  0.3333334  0.2666666  0.1663874  )
        19           Ga  tau(  19) = (  0.3333334  0.2666666  0.4997208  )
        20           Ga  tau(  20) = (  0.3333334  0.2666666  0.8330541  )
        21           Ga  tau(  21) = (  0.3333334  0.4666666  0.1663874  )
        22           Ga  tau(  22) = (  0.3333334  0.4666666  0.4997208  )
        23           Ga  tau(  23) = (  0.3333334  0.4666666  0.8330541  )
        24           Ga  tau(  24) = (  0.3333334  0.6666666  0.1663874  )
        25           Ga  tau(  25) = (  0.3333334  0.6666666  0.4997208  )
        26           Ga  tau(  26) = (  0.3333334  0.6666666  0.8330541  )
        27           Ga  tau(  27) = (  0.3333334  0.8666666  0.1663874  )
        28           Ga  tau(  28) = (  0.3333334  0.8666666  0.4997208  )
        29           Ga  tau(  29) = (  0.3333334  0.8666666  0.8330541  )
        30           Ga  tau(  30) = (  0.5333334  0.0666666  0.1663874  )
        31           Ga  tau(  31) = (  0.5333334  0.0666666  0.4997208  )
        32           Ga  tau(  32) = (  0.5333334  0.0666666  0.8330541  )
        33           Ga  tau(  33) = (  0.5333334  0.2666666  0.1663874  )
        34           Ga  tau(  34) = (  0.5333334  0.2666666  0.4997208  )
        35           Ga  tau(  35) = (  0.5333334  0.2666666  0.8330541  )
        36           Ga  tau(  36) = (  0.5333334  0.4666666  0.1663874  )
        37           Ga  tau(  37) = (  0.5333334  0.4666666  0.4997208  )
        38           Ga  tau(  38) = (  0.5333334  0.4666666  0.8330541  )
        39           Ga  tau(  39) = (  0.5333334  0.6666666  0.1663874  )
        40           Ga  tau(  40) = (  0.5333334  0.6666666  0.4997208  )
        41           Ga  tau(  41) = (  0.5333334  0.6666666  0.8330541  )
        42           Ga  tau(  42) = (  0.5333334  0.8666666  0.1663874  )
        43           Ga  tau(  43) = (  0.5333334  0.8666666  0.4997208  )
        44           Ga  tau(  44) = (  0.5333334  0.8666666  0.8330541  )
        45           Ga  tau(  45) = (  0.7333334  0.0666666  0.1663874  )
        46           Ga  tau(  46) = (  0.7333334  0.0666666  0.4997208  )
        47           Ga  tau(  47) = (  0.7333334  0.0666666  0.8330541  )
        48           Ga  tau(  48) = (  0.7333334  0.2666666  0.1663874  )
        49           Ga  tau(  49) = (  0.7333334  0.2666666  0.4997208  )
        50           Ga  tau(  50) = (  0.7333334  0.2666666  0.8330541  )
        51           Ga  tau(  51) = (  0.7333334  0.4666666  0.1663874  )
        52           Ga  tau(  52) = (  0.7333334  0.4666666  0.4997208  )
        53           Ga  tau(  53) = (  0.7333334  0.4666666  0.8330541  )
        54           Ga  tau(  54) = (  0.7333334  0.6666666  0.1663874  )
        55           Ga  tau(  55) = (  0.7333334  0.6666666  0.4997208  )
        56           Ga  tau(  56) = (  0.7333334  0.6666666  0.8330541  )
        57           Ga  tau(  57) = (  0.7333334  0.8666666  0.1663874  )
        58           Ga  tau(  58) = (  0.7333334  0.8666666  0.4997208  )
        59           Ga  tau(  59) = (  0.7333334  0.8666666  0.8330541  )
        60           Ga  tau(  60) = (  0.9333334  0.0666666  0.1663874  )
        61           Ga  tau(  61) = (  0.9333334  0.0666666  0.4997208  )
        62           Ga  tau(  62) = (  0.9333334  0.0666666  0.8330541  )
        63           Ga  tau(  63) = (  0.9333334  0.2666666  0.1663874  )
        64           Ga  tau(  64) = (  0.9333334  0.2666666  0.4997208  )
        65           Ga  tau(  65) = (  0.9333334  0.2666666  0.8330541  )
        66           Ga  tau(  66) = (  0.9333334  0.4666666  0.1663874  )
        67           Ga  tau(  67) = (  0.9333334  0.4666666  0.4997208  )
        68           Ga  tau(  68) = (  0.9333334  0.4666666  0.8330541  )
        69           Ga  tau(  69) = (  0.9333334  0.6666666  0.1663874  )
        70           Ga  tau(  70) = (  0.9333334  0.6666666  0.4997208  )
        71           Ga  tau(  71) = (  0.9333334  0.6666666  0.8330541  )
        72           Ga  tau(  72) = (  0.9333334  0.8666666  0.1663874  )
        73           Ga  tau(  73) = (  0.9333334  0.8666666  0.4997208  )
        74           Ga  tau(  74) = (  0.9333334  0.8666666  0.8330541  )
        75           Ga  tau(  75) = (  0.0666666  0.1333334  0.3330541  )
        76           Ga  tau(  76) = (  0.0666666  0.1333334  0.6663874  )
        77           Ga  tau(  77) = (  0.0666666  0.1333334  0.9997208  )
        78           Ga  tau(  78) = (  0.0666666  0.3333334  0.3330541  )
        79           Ga  tau(  79) = (  0.0666666  0.3333334  0.6663874  )
        80           Ga  tau(  80) = (  0.0666666  0.3333334  0.9997208  )
        81           Ga  tau(  81) = (  0.0666666  0.5333334  0.3330541  )
        82           Ga  tau(  82) = (  0.0666666  0.5333334  0.6663874  )
        83           Ga  tau(  83) = (  0.0666666  0.5333334  0.9997208  )
        84           Ga  tau(  84) = (  0.0666666  0.7333334  0.3330541  )
        85           Ga  tau(  85) = (  0.0666666  0.7333334  0.6663874  )
        86           Ga  tau(  86) = (  0.0666666  0.7333334  0.9997208  )
        87           Ga  tau(  87) = (  0.0666666  0.9333334  0.3330541  )
        88           Ga  tau(  88) = (  0.0666666  0.9333334  0.6663874  )
        89           Ga  tau(  89) = (  0.0666666  0.9333334  0.9997208  )
        90           Ga  tau(  90) = (  0.2666666  0.1333334  0.3330541  )
        91           Ga  tau(  91) = (  0.2666666  0.1333334  0.6663874  )
        92           Ga  tau(  92) = (  0.2666666  0.1333334  0.9997208  )
        93           Ga  tau(  93) = (  0.2666666  0.3333334  0.3330541  )
        94           Ga  tau(  94) = (  0.2666666  0.3333334  0.6663874  )
        95           Ga  tau(  95) = (  0.2666666  0.3333334  0.9997208  )
        96           Ga  tau(  96) = (  0.2666666  0.5333334  0.3330541  )
        97           Ga  tau(  97) = (  0.2666666  0.5333334  0.6663874  )
        98           Ga  tau(  98) = (  0.2666666  0.5333334  0.9997208  )
        99           Ga  tau(  99) = (  0.2666666  0.7333334  0.3330541  )
       100           Ga  tau( 100) = (  0.2666666  0.7333334  0.6663874  )
       101           Ga  tau( 101) = (  0.2666666  0.7333334  0.9997208  )
       102           Ga  tau( 102) = (  0.2666666  0.9333334  0.3330541  )
       103           Ga  tau( 103) = (  0.2666666  0.9333334  0.6663874  )
       104           Ga  tau( 104) = (  0.2666666  0.9333334  0.9997208  )
       105           Ga  tau( 105) = (  0.4666666  0.1333334  0.3330541  )
       106           Ga  tau( 106) = (  0.4666666  0.1333334  0.6663874  )
       107           Ga  tau( 107) = (  0.4666666  0.1333334  0.9997208  )
       108           Ga  tau( 108) = (  0.4666666  0.3333334  0.3330541  )
       109           Ga  tau( 109) = (  0.4666666  0.3333334  0.6663874  )
       110           Ga  tau( 110) = (  0.4666666  0.3333334  0.9997208  )
       111           Ga  tau( 111) = (  0.4666666  0.5333334  0.3330541  )
       112           Ga  tau( 112) = (  0.4666666  0.5333334  0.6663874  )
       113           Ga  tau( 113) = (  0.4666666  0.5333334  0.9997208  )
       114           Ga  tau( 114) = (  0.4666666  0.7333334  0.3330541  )
       115           Ga  tau( 115) = (  0.4666666  0.7333334  0.6663874  )
       116           Ga  tau( 116) = (  0.4666666  0.7333334  0.9997208  )
       117           Ga  tau( 117) = (  0.4666666  0.9333334  0.3330541  )
       118           Ga  tau( 118) = (  0.4666666  0.9333334  0.6663874  )
       119           Ga  tau( 119) = (  0.4666666  0.9333334  0.9997208  )
       120           Ga  tau( 120) = (  0.6666666  0.1333334  0.3330541  )
       121           Ga  tau( 121) = (  0.6666666  0.1333334  0.6663874  )
       122           Ga  tau( 122) = (  0.6666666  0.1333334  0.9997208  )
       123           Ga  tau( 123) = (  0.6666666  0.3333334  0.3330541  )
       124           Ga  tau( 124) = (  0.6666666  0.3333334  0.6663874  )
       125           Ga  tau( 125) = (  0.6666666  0.3333334  0.9997208  )
       126           Ga  tau( 126) = (  0.6666666  0.5333334  0.3330541  )
       127           Ga  tau( 127) = (  0.6666666  0.5333334  0.6663874  )
       128           Ga  tau( 128) = (  0.6666666  0.5333334  0.9997208  )
       129           Ga  tau( 129) = (  0.6666666  0.7333334  0.3330541  )
       130           Ga  tau( 130) = (  0.6666666  0.7333334  0.6663874  )
       131           Ga  tau( 131) = (  0.6666666  0.7333334  0.9997208  )
       132           Ga  tau( 132) = (  0.6666666  0.9333334  0.3330541  )
       133           Ga  tau( 133) = (  0.6666666  0.9333334  0.6663874  )
       134           Ga  tau( 134) = (  0.6666666  0.9333334  0.9997208  )
       135           Ga  tau( 135) = (  0.8666666  0.1333334  0.3330541  )
       136           Ga  tau( 136) = (  0.8666666  0.1333334  0.6663874  )
       137           Ga  tau( 137) = (  0.8666666  0.1333334  0.9997208  )
       138           Ga  tau( 138) = (  0.8666666  0.3333334  0.3330541  )
       139           Ga  tau( 139) = (  0.8666666  0.3333334  0.6663874  )
       140           Ga  tau( 140) = (  0.8666666  0.3333334  0.9997208  )
       141           Ga  tau( 141) = (  0.8666666  0.5333334  0.3330541  )
       142           Ga  tau( 142) = (  0.8666666  0.5333334  0.6663874  )
       143           Ga  tau( 143) = (  0.8666666  0.5333334  0.9997208  )
       144           Ga  tau( 144) = (  0.8666666  0.7333334  0.3330541  )
       145           Ga  tau( 145) = (  0.8666666  0.7333334  0.6663874  )
       146           Ga  tau( 146) = (  0.8666666  0.7333334  0.9997208  )
       147           Ga  tau( 147) = (  0.8666666  0.9333334  0.3330541  )
       148           Ga  tau( 148) = (  0.8666666  0.9333334  0.6663874  )
       149           Ga  tau( 149) = (  0.8666666  0.9333334  0.9997208  )
       150           N   tau( 150) = (  0.1333334  0.0666666  0.2919459  )
       151           N   tau( 151) = (  0.1333334  0.0666666  0.6252792  )
       152           N   tau( 152) = (  0.1333334  0.0666666  0.9586126  )
       153           N   tau( 153) = (  0.1333334  0.2666666  0.2919459  )
       154           N   tau( 154) = (  0.1333334  0.2666666  0.6252792  )
       155           N   tau( 155) = (  0.1333334  0.2666666  0.9586126  )
       156           N   tau( 156) = (  0.1333334  0.4666666  0.2919459  )
       157           N   tau( 157) = (  0.1333334  0.4666666  0.6252792  )
       158           N   tau( 158) = (  0.1333334  0.4666666  0.9586126  )
       159           N   tau( 159) = (  0.1333334  0.6666666  0.2919459  )
       160           N   tau( 160) = (  0.1333334  0.6666666  0.6252792  )
       161           N   tau( 161) = (  0.1333334  0.6666666  0.9586126  )
       162           N   tau( 162) = (  0.1333334  0.8666666  0.2919459  )
       163           N   tau( 163) = (  0.1333334  0.8666666  0.6252792  )
       164           N   tau( 164) = (  0.1333334  0.8666666  0.9586126  )
       165           N   tau( 165) = (  0.3333334  0.0666666  0.2919459  )
       166           N   tau( 166) = (  0.3333334  0.0666666  0.6252792  )
       167           N   tau( 167) = (  0.3333334  0.0666666  0.9586126  )
       168           N   tau( 168) = (  0.3333334  0.2666666  0.2919459  )
       169           N   tau( 169) = (  0.3333334  0.2666666  0.6252792  )
       170           N   tau( 170) = (  0.3333334  0.2666666  0.9586126  )
       171           N   tau( 171) = (  0.3333334  0.4666666  0.2919459  )
       172           N   tau( 172) = (  0.3333334  0.4666666  0.6252792  )
       173           N   tau( 173) = (  0.3333334  0.4666666  0.9586126  )
       174           N   tau( 174) = (  0.3333334  0.6666666  0.2919459  )
       175           N   tau( 175) = (  0.3333334  0.6666666  0.6252792  )
       176           N   tau( 176) = (  0.3333334  0.6666666  0.9586126  )
       177           N   tau( 177) = (  0.3333334  0.8666666  0.2919459  )
       178           N   tau( 178) = (  0.3333334  0.8666666  0.6252792  )
       179           N   tau( 179) = (  0.3333334  0.8666666  0.9586126  )
       180           N   tau( 180) = (  0.5333334  0.0666666  0.2919459  )
       181           N   tau( 181) = (  0.5333334  0.0666666  0.6252792  )
       182           N   tau( 182) = (  0.5333334  0.0666666  0.9586126  )
       183           N   tau( 183) = (  0.5333334  0.2666666  0.2919459  )
       184           N   tau( 184) = (  0.5333334  0.2666666  0.6252792  )
       185           N   tau( 185) = (  0.5333334  0.2666666  0.9586126  )
       186           N   tau( 186) = (  0.5333334  0.4666666  0.2919459  )
       187           N   tau( 187) = (  0.5333334  0.4666666  0.6252792  )
       188           N   tau( 188) = (  0.5333334  0.4666666  0.9586126  )
       189           N   tau( 189) = (  0.5333334  0.6666666  0.2919459  )
       190           N   tau( 190) = (  0.5333334  0.6666666  0.6252792  )
       191           N   tau( 191) = (  0.5333334  0.6666666  0.9586126  )
       192           N   tau( 192) = (  0.5333334  0.8666666  0.2919459  )
       193           N   tau( 193) = (  0.5333334  0.8666666  0.6252792  )
       194           N   tau( 194) = (  0.5333334  0.8666666  0.9586126  )
       195           N   tau( 195) = (  0.7333334  0.0666666  0.2919459  )
       196           N   tau( 196) = (  0.7333334  0.0666666  0.6252792  )
       197           N   tau( 197) = (  0.7333334  0.0666666  0.9586126  )
       198           N   tau( 198) = (  0.7333334  0.2666666  0.2919459  )
       199           N   tau( 199) = (  0.7333334  0.2666666  0.6252792  )
       200           N   tau( 200) = (  0.7333334  0.2666666  0.9586126  )
       201           N   tau( 201) = (  0.7333334  0.4666666  0.2919459  )
       202           N   tau( 202) = (  0.7333334  0.4666666  0.6252792  )
       203           N   tau( 203) = (  0.7333334  0.4666666  0.9586126  )
       204           N   tau( 204) = (  0.7333334  0.6666666  0.2919459  )
       205           N   tau( 205) = (  0.7333334  0.6666666  0.6252792  )
       206           N   tau( 206) = (  0.7333334  0.6666666  0.9586126  )
       207           N   tau( 207) = (  0.7333334  0.8666666  0.2919459  )
       208           N   tau( 208) = (  0.7333334  0.8666666  0.6252792  )
       209           N   tau( 209) = (  0.7333334  0.8666666  0.9586126  )
       210           N   tau( 210) = (  0.9333334  0.0666666  0.2919459  )
       211           N   tau( 211) = (  0.9333334  0.0666666  0.6252792  )
       212           N   tau( 212) = (  0.9333334  0.0666666  0.9586126  )
       213           N   tau( 213) = (  0.9333334  0.2666666  0.2919459  )
       214           N   tau( 214) = (  0.9333334  0.2666666  0.6252792  )
       215           N   tau( 215) = (  0.9333334  0.2666666  0.9586126  )
       216           N   tau( 216) = (  0.9333334  0.4666666  0.2919459  )
       217           N   tau( 217) = (  0.9333334  0.4666666  0.6252792  )
       218           N   tau( 218) = (  0.9333334  0.4666666  0.9586126  )
       219           N   tau( 219) = (  0.9333334  0.6666666  0.2919459  )
       220           N   tau( 220) = (  0.9333334  0.6666666  0.6252792  )
       221           N   tau( 221) = (  0.9333334  0.6666666  0.9586126  )
       222           N   tau( 222) = (  0.9333334  0.8666666  0.2919459  )
       223           N   tau( 223) = (  0.9333334  0.8666666  0.6252792  )
       224           N   tau( 224) = (  0.9333334  0.8666666  0.9586126  )
       225           N   tau( 225) = (  0.0666666  0.1333334  0.1252792  )
       226           N   tau( 226) = (  0.0666666  0.1333334  0.4586126  )
       227           N   tau( 227) = (  0.0666666  0.1333334  0.7919459  )
       228           N   tau( 228) = (  0.0666666  0.3333334  0.1252792  )
       229           N   tau( 229) = (  0.0666666  0.3333334  0.4586126  )
       230           N   tau( 230) = (  0.0666666  0.3333334  0.7919459  )
       231           N   tau( 231) = (  0.0666666  0.5333334  0.1252792  )
       232           N   tau( 232) = (  0.0666666  0.5333334  0.4586126  )
       233           N   tau( 233) = (  0.0666666  0.5333334  0.7919459  )
       234           N   tau( 234) = (  0.0666666  0.7333334  0.1252792  )
       235           N   tau( 235) = (  0.0666666  0.7333334  0.4586126  )
       236           N   tau( 236) = (  0.0666666  0.7333334  0.7919459  )
       237           N   tau( 237) = (  0.0666666  0.9333334  0.1252792  )
       238           N   tau( 238) = (  0.0666666  0.9333334  0.4586126  )
       239           N   tau( 239) = (  0.0666666  0.9333334  0.7919459  )
       240           N   tau( 240) = (  0.2666666  0.1333334  0.1252792  )
       241           N   tau( 241) = (  0.2666666  0.1333334  0.4586126  )
       242           N   tau( 242) = (  0.2666666  0.1333334  0.7919459  )
       243           N   tau( 243) = (  0.2666666  0.3333334  0.1252792  )
       244           N   tau( 244) = (  0.2666666  0.3333334  0.4586126  )
       245           N   tau( 245) = (  0.2666666  0.3333334  0.7919459  )
       246           N   tau( 246) = (  0.2666666  0.5333334  0.1252792  )
       247           N   tau( 247) = (  0.2666666  0.5333334  0.4586126  )
       248           N   tau( 248) = (  0.2666666  0.5333334  0.7919459  )
       249           N   tau( 249) = (  0.2666666  0.7333334  0.1252792  )
       250           N   tau( 250) = (  0.2666666  0.7333334  0.4586126  )
       251           N   tau( 251) = (  0.2666666  0.7333334  0.7919459  )
       252           N   tau( 252) = (  0.2666666  0.9333334  0.1252792  )
       253           N   tau( 253) = (  0.2666666  0.9333334  0.4586126  )
       254           N   tau( 254) = (  0.2666666  0.9333334  0.7919459  )
       255           N   tau( 255) = (  0.4666666  0.1333334  0.1252792  )
       256           N   tau( 256) = (  0.4666666  0.1333334  0.4586126  )
       257           N   tau( 257) = (  0.4666666  0.1333334  0.7919459  )
       258           N   tau( 258) = (  0.4666666  0.3333334  0.1252792  )
       259           N   tau( 259) = (  0.4666666  0.3333334  0.4586126  )
       260           N   tau( 260) = (  0.4666666  0.3333334  0.7919459  )
       261           N   tau( 261) = (  0.4666666  0.5333334  0.1252792  )
       262           N   tau( 262) = (  0.4666666  0.5333334  0.4586126  )
       263           N   tau( 263) = (  0.4666666  0.5333334  0.7919459  )
       264           N   tau( 264) = (  0.4666666  0.7333334  0.1252792  )
       265           N   tau( 265) = (  0.4666666  0.7333334  0.4586126  )
       266           N   tau( 266) = (  0.4666666  0.7333334  0.7919459  )
       267           N   tau( 267) = (  0.4666666  0.9333334  0.1252792  )
       268           N   tau( 268) = (  0.4666666  0.9333334  0.4586126  )
       269           N   tau( 269) = (  0.4666666  0.9333334  0.7919459  )
       270           N   tau( 270) = (  0.6666666  0.1333334  0.1252792  )
       271           N   tau( 271) = (  0.6666666  0.1333334  0.4586126  )
       272           N   tau( 272) = (  0.6666666  0.1333334  0.7919459  )
       273           N   tau( 273) = (  0.6666666  0.3333334  0.1252792  )
       274           N   tau( 274) = (  0.6666666  0.3333334  0.4586126  )
       275           N   tau( 275) = (  0.6666666  0.3333334  0.7919459  )
       276           N   tau( 276) = (  0.6666666  0.5333334  0.1252792  )
       277           N   tau( 277) = (  0.6666666  0.5333334  0.4586126  )
       278           N   tau( 278) = (  0.6666666  0.5333334  0.7919459  )
       279           N   tau( 279) = (  0.6666666  0.7333334  0.1252792  )
       280           N   tau( 280) = (  0.6666666  0.7333334  0.4586126  )
       281           N   tau( 281) = (  0.6666666  0.7333334  0.7919459  )
       282           N   tau( 282) = (  0.6666666  0.9333334  0.1252792  )
       283           N   tau( 283) = (  0.6666666  0.9333334  0.4586126  )
       284           N   tau( 284) = (  0.6666666  0.9333334  0.7919459  )
       285           N   tau( 285) = (  0.8666666  0.1333334  0.1252792  )
       286           N   tau( 286) = (  0.8666666  0.1333334  0.4586126  )
       287           N   tau( 287) = (  0.8666666  0.1333334  0.7919459  )
       288           N   tau( 288) = (  0.8666666  0.3333334  0.1252792  )
       289           N   tau( 289) = (  0.8666666  0.3333334  0.4586126  )
       290           N   tau( 290) = (  0.8666666  0.3333334  0.7919459  )
       291           N   tau( 291) = (  0.8666666  0.5333334  0.1252792  )
       292           N   tau( 292) = (  0.8666666  0.5333334  0.4586126  )
       293           N   tau( 293) = (  0.8666666  0.5333334  0.7919459  )
       294           N   tau( 294) = (  0.8666666  0.7333334  0.1252792  )
       295           N   tau( 295) = (  0.8666666  0.7333334  0.4586126  )
       296           N   tau( 296) = (  0.8666666  0.7333334  0.7919459  )
       297           N   tau( 297) = (  0.8666666  0.9333334  0.1252792  )
       298           N   tau( 298) = (  0.8666666  0.9333334  0.4586126  )
       299           N   tau( 299) = (  0.8666666  0.9333334  0.7919459  )

     number of k points=     6  Gaussian smearing, width (Ry)=  0.0100
                       cart. coord. in units 2pi/alat
        k(    1) = (   0.0000000   0.0000000   0.0000000), wk =   0.2500000
        k(    2) = (   0.0000000   0.0000000  -0.5112854), wk =   0.2500000
        k(    3) = (   0.0000000  -0.5773503   0.0000000), wk =   0.5000000
        k(    4) = (   0.0000000  -0.5773503  -0.5112854), wk =   0.5000000
        k(    5) = (  -0.5000000  -0.2886751   0.0000000), wk =   0.2500000
        k(    6) = (  -0.5000000  -0.2886751  -0.5112854), wk =   0.2500000

                       cryst. coord.
        k(    1) = (   0.0000000   0.0000000   0.0000000), wk =   0.2500000
        k(    2) = (   0.0000000   0.0000000  -0.5000000), wk =   0.2500000
        k(    3) = (   0.0000000  -0.5000000   0.0000000), wk =   0.5000000
        k(    4) = (   0.0000000  -0.5000000  -0.5000000), wk =   0.5000000
        k(    5) = (  -0.5000000  -0.0000000   0.0000000), wk =   0.2500000
        k(    6) = (  -0.5000000  -0.0000000  -0.5000000), wk =   0.2500000

     Dense  grid:  2698283 G-vectors     FFT dimensions: ( 192, 192, 180)

     Smooth grid:  1930731 G-vectors     FFT dimensions: ( 180, 180, 160)

     Dynamical RAM for                 wfc:      92.79 MB

     Dynamical RAM for     wfc (w. buffer):     278.37 MB

     Dynamical RAM for           str. fact:       1.29 MB

     Dynamical RAM for           local pot:       0.00 MB

     Dynamical RAM for          nlocal pot:     223.31 MB

     Dynamical RAM for                qrad:       3.00 MB

     Dynamical RAM for          rho,v,vnew:       4.46 MB

     Dynamical RAM for               rhoin:       1.49 MB

     Dynamical RAM for            rho*nmix:      10.29 MB

     Dynamical RAM for           G-vectors:       2.64 MB

     Dynamical RAM for          h,s,v(r/c):    1905.59 MB

     Dynamical RAM for          <psi|beta>:      95.55 MB

     Dynamical RAM for                 psi:     371.16 MB

     Dynamical RAM for                hpsi:     371.16 MB

     Dynamical RAM for                spsi:     371.16 MB

     Dynamical RAM for      wfcinit/wfcrot:     245.14 MB

     Dynamical RAM for           addusdens:      54.52 MB

     Dynamical RAM for          addusforce:     102.87 MB

     Dynamical RAM for         addusstress:      32.57 MB

     Estimated static dynamical RAM per process >     520.71 MB

     Estimated max dynamical RAM per process >       3.56 GB

     Estimated total dynamical RAM >     909.47 GB

     Atomic positions and unit cell read from directory:
     ./GaN.save/
     Atomic positions from file used, from input discarded
 

     Check: negative core charge=   -0.000003

     The initial density is read from file :
     ./GaN.save/charge-density



     %%%%%%%%%%%%%%%%%%%%%%%%%%%%%%%%%%%%%%%%%%%%%%%%%%%%%%%%%%%%%%%%%%%%%%%%
     %                                                                      %
     % You are using vdW-DF, which was implemented by the Thonhauser group. %
     % Please cite the following two papers that made this development      %
     % possible and the two reviews that describe the various versions:     %
     %                                                                      %
     %   T. Thonhauser et al., PRL 115, 136402 (2015).                      %
     %   T. Thonhauser et al., PRB 76, 125112 (2007).                       %
     %   K. Berland et al., Rep. Prog. Phys. 78, 066501 (2015).             %
     %   D.C. Langreth et al., J. Phys.: Condens. Matter 21, 084203 (2009). %
     %                                                                      %
     % If you are calculating stress with vdW-DF, please also cite:         %
     %                                                                      %
     %   R. Sabatini et al., J. Phys.: Condens. Matter 24, 424209 (2012).   %
     %                                                                      %
     %%%%%%%%%%%%%%%%%%%%%%%%%%%%%%%%%%%%%%%%%%%%%%%%%%%%%%%%%%%%%%%%%%%%%%%%

     %%%%%%%%%%%%%%%%%%%%%%%%%%%%%%%%%%%%%%%%%%%%%%%%%%%%%%%%%%%%%%%%%%%%%%%%
     %                                                                      %
     %  vdW-DF NEWS:                                                        %
     %                                                                      %
     %  * vdW-DF3 is now available. DOI: 10.1021/acs.jctc.0c00471           %
     %    use with input_dft = 'vdW-DF3-opt1' or 'vdW-DF3-opt2'             %
     %                                                                      %
     %  * Unscreened and range-separated vdW-DF hybrid functionals          %
     %    DOI: 10.1063/1.4986522 and 10.1088/1361-648X/ac2ad2               %
     %    use with input_dft = 'vdW-DF-cx0' (etc) and 'vdW-DF-ahcx'         %
     %                                                                      %
     %%%%%%%%%%%%%%%%%%%%%%%%%%%%%%%%%%%%%%%%%%%%%%%%%%%%%%%%%%%%%%%%%%%%%%%%


     Carrying out vdW-DF run using the following parameters:
     Nqs    =  20  Npoints =  1024  r_max =  100.000
     q_mesh =  0.00001000  0.04494208  0.09755937  0.15916263
               0.23128650  0.31572767  0.41458969  0.53033537
               0.66584808  0.82450364  1.01025438  1.22772762
               1.48234092  1.78043706  2.12944203  2.53805004
               3.01644009  3.57652955  4.23227104  5.00000000


     -----------------------------------------------
     Non-local corr. energy    =      81.30988595 Ry
     -----------------------------------------------

     Starting wfcs from file
     Checking if some PAW data can be deallocated... 
       PAW data deallocated on  150 nodes for type:  1
       PAW data deallocated on  106 nodes for type:  2
     Calculation restarted from scf iteration #    11

     total cpu time spent up to now is        9.7 secs

     Self-consistent Calculation

     iteration # 11     ecut=    70.00 Ry     beta= 0.70
     Calculation restarted from kpoint #     2
     Davidson diagonalization with overlap

---- Real-time Memory Report at c_bands before calling an iterative solver
           457 MiB given to the printing process from OS
             0 MiB allocation reported by mallinfo(arena+hblkhd)
       1891882 MiB available memory on the node where the printing process lives
------------------
     ethr =  6.29E-12,  avg # of iterations = 16.2


     -----------------------------------------------
     Non-local corr. energy    =      81.30988933 Ry
     -----------------------------------------------


     total cpu time spent up to now is     1266.9 secs

     End of self-consistent calculation

          k = 0.0000 0.0000 0.0000 (241213 PWs)   bands (ev):

    -6.9403  -6.7374  -6.7322  -6.7273  -6.7200  -6.7199  -6.6946  -6.6945
    -6.6602  -6.5939  -6.5912  -6.5855  -6.5854  -6.5809  -6.5808  -6.5624
    -6.5623  -6.5507  -6.5505  -6.5373  -6.5287  -6.5258  -6.5251  -6.5233
    -6.5184  -6.5178  -6.5165  -6.5164  -6.5085  -6.5044  -6.4970  -6.4965
    -6.4915  -6.4906  -6.4835  -6.4818  -6.4811  -6.4761  -6.4761  -6.4730
    -6.4697  -6.4691  -6.4668  -6.4661  -6.4657  -6.4642  -6.4635  -6.4627
    -6.4624  -6.4621  -6.4619  -6.4607  -6.4597  -6.4596  -6.4578  -6.4555
    -6.4538  -6.4527  -6.4523  -6.4519  -6.4510  -6.4484  -6.4483  -6.4480
    -6.4477  -6.4469  -6.4463  -6.4453  -6.4451  -6.4438  -6.4436  -6.4428
    -6.4424  -6.4421  -6.4420  -6.4417  -6.4399  -6.4396  -6.4384  -6.4382
    -6.4382  -6.4375  -6.4371  -6.4322  -6.4315  -6.4301  -6.4286  -6.4282
    -6.4277  -6.4271  -6.4270  -6.4254  -6.4246  -6.4241  -6.4233  -6.4224
    -6.4223  -6.4191  -6.4186  -6.4168  -6.4147  -6.4143  -6.4139  -6.4139
    -6.4130  -6.4121  -6.4118  -6.4117  -6.4104  -6.4082  -6.4052  -6.4050
    -6.4046  -6.4046  -6.4027  -6.4022  -6.4007  -6.3968  -6.3965  -6.3956
    -6.3953  -6.3904  -6.3898  -6.3888  -6.3726  -6.3652  -6.3647  -6.3606
    -6.3528  -6.3525  -6.3481  -6.3444  -6.3444  -6.3409  -6.3255  -6.3242
    -6.3193  -6.3192  -6.3166  -6.3123  -6.3087  -6.3080  -6.3065  -6.3055
    -6.3052  -6.2792  -6.0258  -6.0041  -5.9985  -5.9980  -5.3728  -5.3706
    -5.3706  -5.3568  -5.3568  -5.3559  -5.3557  -5.3557  -5.3549  -5.3538
    -5.3500  -5.3500  -5.3463  -5.3463  -5.3436  -5.3435  -5.3409  -5.3409
    -5.3404  -5.3374  -5.3373  -5.3361  -5.3360  -5.3352  -5.3351  -5.3351
    -5.3335  -5.3330  -5.3330  -5.3327  -5.3327  -5.3296  -5.3284  -5.3283
    -5.3280  -5.3280  -5.3268  -5.3265  -5.3265  -5.3253  -5.3253  -5.3252
    -5.3231  -5.3231  -5.3231  -5.3217  -5.3217  -5.3216  -5.3206  -5.3173
    -5.3172  -5.3166  -5.3166  -5.3159  -5.3155  -5.3136  -5.3136  -5.3121
    -5.3120  -5.3105  -5.3105  -5.3104  -5.3100  -5.3100  -5.3080  -5.3080
    -5.3079  -5.3073  -5.3056  -5.3052  -5.3043  -5.3042  -5.3035  -5.3031
    -5.3031  -5.3019  -5.3015  -5.3015  -5.3012  -5.3012  -5.2996  -5.2996
    -5.2992  -5.2989  -5.2987  -5.2987  -5.2978  -5.2963  -5.2963  -5.2959
    -5.2959  -5.2957  -5.2948  -5.2948  -5.2947  -5.2935  -5.2934  -5.2933
    -5.2930  -5.2916  -5.2915  -5.2900  -5.2900  -5.2897  -5.2892  -5.2892
    -5.2887  -5.2881  -5.2878  -5.2873  -5.2873  -5.2863  -5.2863  -5.2845
    -5.2845  -5.2836  -5.2816  -5.2808  -5.2808  -5.2807  -5.2801  -5.2801
    -5.2801  -5.2787  -5.2787  -5.2779  -5.2773  -5.2773  -5.2765  -5.2763
    -5.2758  -5.2754  -5.2754  -5.2751  -5.2750  -5.2735  -5.2735  -5.2725
    -5.2724  -5.2720  -5.2720  -5.2704  -5.2704  -5.2700  -5.2700  -5.2693
    -5.2689  -5.2681  -5.2680  -5.2667  -5.2667  -5.2663  -5.2644  -5.2644
    -5.2632  -5.2632  -5.2630  -5.2618  -5.2613  -5.2604  -5.2604  -5.2595
    -5.2581  -5.2580  -5.2579  -5.2574  -5.2574  -5.2564  -5.2564  -5.2556
    -5.2548  -5.2526  -5.2526  -5.2518  -5.2518  -5.2513  -5.2506  -5.2486
    -5.2486  -5.2482  -5.2466  -5.2466  -5.2466  -5.2458  -5.2457  -5.2454
    -5.2442  -5.2442  -5.2435  -5.2434  -5.2419  -5.2419  -5.2392  -5.2369
    -5.2369  -5.2364  -5.2358  -5.2357  -5.2348  -5.2336  -5.2335  -5.2327
    -5.2321  -5.2320  -5.2307  -5.2306  -5.2303  -5.2302  -5.2282  -5.2282
    -5.2265  -5.2265  -5.2262  -5.2261  -5.2231  -5.2231  -5.2230  -5.2216
    -5.2208  -5.2208  -5.2205  -5.2184  -5.2184  -5.2162  -5.2160  -5.2144
    -5.2143  -5.2143  -5.2127  -5.2108  -5.2108  -5.2106  -5.2106  -5.2093
    -5.2088  -5.2082  -5.2082  -5.2081  -5.2066  -5.2062  -5.2062  -5.2043
    -5.2043  -5.2038  -5.2032  -5.2032  -5.2027  -5.2015  -5.2015  -5.2011
    -5.2006  -5.2006  -5.1984  -5.1983  -5.1982  -5.1969  -5.1967  -5.1967
    -5.1954  -5.1954  -5.1953  -5.1944  -5.1940  -5.1940  -5.1939  -5.1931
    -5.1931  -5.1920  -5.1920  -5.1919  -5.1915  -5.1912  -5.1912  -5.1900
    -5.1900  -5.1898  -5.1895  -5.1891  -5.1891  -5.1885  -5.1885  -5.1869
    -5.1863  -5.1862  -5.1856  -5.1855  -5.1852  -5.1847  -5.1847  -5.1844
    -5.1838  -5.1835  -5.1828  -5.1827  -5.1818  -5.1818  -5.1800  -5.1800
    -5.1796  -5.1794  -5.1793  -5.1792  -5.1791  -5.1785  -5.1776  -5.1775
    -5.1774  -5.1771  -5.1764  -5.1760  -5.1760  -5.1754  -5.1749  -5.1749
    -5.1744  -5.1740  -5.1739  -5.1735  -5.1734  -5.1729  -5.1725  -5.1725
    -5.1714  -5.1714  -5.1711  -5.1706  -5.1699  -5.1698  -5.1689  -5.1680
    -5.1674  -5.1673  -5.1664  -5.1658  -5.1656  -5.1656  -5.1652  -5.1651
    -5.1631  -5.1625  -5.1625  -5.1621  -5.1618  -5.1613  -5.1613  -5.1602
    -5.1602  -5.1596  -5.1585  -5.1585  -5.1585  -5.1577  -5.1576  -5.1570
    -5.1570  -5.1568  -5.1557  -5.1555  -5.1554  -5.1546  -5.1546  -5.1544
    -5.1522  -5.1522  -5.1521  -5.1515  -5.1515  -5.1512  -5.1497  -5.1497
    -5.1487  -5.1483  -5.1482  -5.1481  -5.1472  -5.1472  -5.1472  -5.1457
    -5.1457  -5.1447  -5.1445  -5.1444  -5.1444  -5.1439  -5.1435  -5.1435
    -5.1426  -5.1426  -5.1426  -5.1396  -5.1392  -5.1388  -5.1388  -5.1384
    -5.1384  -5.1375  -5.1370  -5.1370  -5.1360  -5.1352  -5.1352  -5.1351
    -5.1346  -5.1345  -5.1339  -5.1339  -5.1330  -5.1330  -5.1322  -5.1321
    -5.1318  -5.1310  -5.1310  -5.1304  -5.1303  -5.1295  -5.1295  -5.1282
    -5.1271  -5.1270  -5.1268  -5.1267  -5.1266  -5.1263  -5.1260  -5.1259
    -5.1251  -5.1251  -5.1242  -5.1241  -5.1236  -5.1232  -5.1232  -5.1229
    -5.1220  -5.1220  -5.1208  -5.1206  -5.1206  -5.1196  -5.1195  -5.1195
    -5.1187  -5.1186  -5.1185  -5.1172  -5.1172  -5.1157  -5.1155  -5.1154
    -5.1147  -5.1146  -5.1143  -5.1142  -5.1138  -5.1132  -5.1129  -5.1129
    -5.1106  -5.1106  -5.1104  -5.1104  -5.1098  -5.1095  -5.1094  -5.1082
    -5.1078  -5.1074  -5.1074  -5.1065  -5.1054  -5.1051  -5.1050  -5.1041
    -5.1041  -5.1038  -5.1031  -5.1031  -5.1022  -5.1020  -5.1019  -5.1019
    -5.1009  -5.0998  -5.0998  -5.0988  -5.0988  -5.0965  -5.0962  -5.0961
    -5.0955  -5.0955  -5.0953  -5.0936  -5.0935  -5.0928  -5.0924  -5.0913
    -5.0912  -5.0908  -5.0908  -5.0900  -5.0895  -5.0895  -5.0887  -5.0883
    -5.0882  -5.0868  -5.0850  -5.0850  -5.0844  -5.0843  -5.0842  -5.0835
    -5.0834  -5.0828  -5.0824  -5.0823  -5.0817  -5.0807  -5.0807  -5.0779
    -5.0761  -5.0760  -5.0759  -5.0750  -5.0749  -5.0749  -5.0746  -5.0737
    -5.0737  -5.0698  -5.0688  -5.0687  -5.0671  -5.0670  -5.0632  -5.0626
    -5.0625  -5.0620  -5.0620  -5.0615  -5.0584  -5.0582  -5.0582  -5.0575
    -5.0552  -5.0538  -5.0487  -5.0485  -5.0481  -5.0457  -5.0457  -5.0364
    -5.0364  -5.0353  -5.0299  -5.0299  -5.0267  -5.0267  -5.0197  -5.0162
    -5.0161  -5.0128  -5.0078  -5.0078  -4.9978  -4.9978  -4.9965  -4.9866
    -4.9864  -4.9744  -4.9703  -4.9701  -4.9700  -4.9678  -4.9677  -4.9365
    -4.9349  -4.9348  -4.9221  -4.9216  -4.9134  -4.9134  -4.9114  -4.9057
    -4.9057  -4.8967  -4.8932  -4.8930  -4.8892  -4.8892  -4.8774  -4.8758
    -4.8757  -4.8730  -4.8730  -4.8673  -4.8670  -4.8669  -4.8606  -4.8584
    -4.8575  -4.8573  -4.8484  -4.8449  -4.8449  -4.8392  -4.8390  -4.8390
    -4.8124  -4.8124  -4.8051  -4.8050  -4.7923  -4.7172  -4.4014  -4.4012
    -4.3983  -4.3947  -4.3945  -4.3807  -4.3578  -4.3510  -4.1588  -4.1585
    -4.1560  -4.1558  -4.1555  -4.1522  -4.1520  -4.1501  -4.1481  -4.1462
    -4.1460  -4.1300  -4.0930  -4.0845  -4.0844  -4.0729  -4.0728  -4.0511
    -4.0499  -4.0487  -4.0383  -4.0382  -4.0362  -4.0361  -4.0040  -4.0039
    -3.9988  -3.9988  -3.9489  -3.9351  -3.8964  -3.8891  -3.8889  -3.8779
    -3.8774  -3.8773  -3.8722  -3.8721  -3.8581  -3.8473  -3.8472  -3.6979
    -3.5815  -3.4716  -3.4716  -3.4678  -3.4676  -3.4653  -3.4651  -3.4651
    -3.4625  -3.4625  -3.4617  -3.4586  -3.4584  -3.4549  -3.4529  -3.4522
    -3.4483  -3.4483  -3.4234  -3.3754  -3.3754  -3.3685  -3.3685  -3.3623
    -3.3575  -3.3574  -3.3537  -3.3478  -3.3477  -3.3475  -3.3464  -3.3456
    -3.3409  -3.3409  -3.3350  -3.3350  -3.3343  -3.3293  -3.3292  -3.3224
    -3.3165  -3.3164  -3.3065  -3.3037  -3.3036  -3.2699  -3.2698  -3.2335
    -3.1446  -3.1446  -3.1390  -3.1390  -3.1379  -3.1346  -3.1264  -3.1263
    -3.0991  -3.0949  -3.0695  -3.0694  -3.0338  -3.0295  -3.0295  -3.0127
    -3.0119  -3.0101  -3.0100  -2.9972  -2.9968  -2.9874  -2.9872  -2.9860
    -2.9532  -2.9492  -2.9491  -2.8132  -2.7616  -2.7523  -2.7520   2.0109
     2.4599   2.4704   2.4706   2.5058   2.5058   2.5258   2.5259   2.5270
     2.5270   2.5285   2.5316   2.5402   2.5405   2.5411   2.5431   2.5451
     2.5454   2.5472   2.5478   2.5480   2.5517   2.5517   2.5645   2.5964
     2.5998   2.6005   2.6021   2.6191   2.6197   2.6457   2.7072   2.7084
     2.7095   2.7427   2.7429   2.7669   2.8694   2.8695   2.8756   2.8952
     2.8981   2.8982   2.9119   2.9120   2.9194   2.9196   2.9213   2.9305
     2.9337   2.9338   2.9446   2.9602   2.9602   3.0319   3.0581   3.0583
     3.0596   3.0700   3.0702   3.1061   3.1638   3.1638   3.1660   3.1738
     3.1739   3.1794   3.1795   3.1819   3.1857   3.1917   3.1918   3.2068
     3.2085   3.2091   3.2117   3.2169   3.2255   3.2262   3.2403   3.2515
     3.2523   3.3045   3.3050   3.5178   3.5217   3.5320   3.6101   3.6112
     3.6213   3.6214   3.6221   3.6222   3.6269   3.6271   3.6375   3.6479
     3.6479   3.6639   3.6639   3.6713   3.6714   3.7074   3.7673   3.8370
     3.8631   3.8639   3.8811   3.8921   3.8927   3.9102   3.9171   3.9172
     3.9181   3.9265   3.9267   3.9267   3.9430   3.9431   3.9717   3.9897
     3.9898   4.4130   4.4682   4.4688   4.4702   4.4888   4.4889   4.4956
     4.5108   4.5113   4.5119   4.5301   4.5451   4.5458   4.5520   4.5526
     4.5667   4.5936   4.5941   4.6445   4.6446   4.6467   4.6932   4.6933
     4.7529   4.8924   4.9228   4.9229   4.9235   4.9235   4.9310   4.9311
     4.9324   4.9601   4.9601   5.0574   5.0574   5.3194   5.3952   5.3962
     5.3963   5.3988   5.4063   5.4064   5.4134   5.4146   5.4147   5.4242
     5.4242   5.4443   5.4444   5.4511   5.4635   5.4635   5.4867   5.5829
     5.6117   5.6144   5.6145   5.6453   5.6458   5.7355   5.7923   5.7972
     5.7974   5.8144   5.8145   5.8301   5.8346   5.8349   5.8358   5.8361
     5.8380   5.8435   5.8632   5.8634   5.8637   5.8665   5.8666   5.8869
     5.9284   5.9287   5.9290   5.9310   5.9313   5.9315   5.9329   5.9332
     5.9387   5.9393   5.9424   5.9431   5.9438   5.9494   5.9496   5.9514
     5.9515   5.9541   5.9542   5.9568   5.9627   5.9647   5.9694   5.9694
     5.9746   5.9777   5.9780   5.9929   5.9932   5.9942   6.0172   6.0173
     6.0819   6.1377   6.1380   6.2257   6.2264   6.2271   6.2277   6.2665
     6.2712   6.2715   6.2744   6.2780   6.2782   6.2782   6.2892   6.2893
     6.2976   6.2977   6.3639   6.3642   6.3673   6.4175   6.4196   6.4196
     6.4209   6.4224   6.4464   6.4600   6.4601   6.4838   6.4857   6.4858
     6.4909   6.5230   6.5233   6.5730   6.5732   6.5756   6.5759   6.5764
     6.5778   6.5785   6.5814   6.5826   6.5833   6.5908   6.5944   6.5947
     6.5952   6.5967   6.6175   6.6176   6.6283   6.6345   6.6347   6.6626
     6.6627   6.6680   6.6680   6.6870   6.7041   6.7042   6.7368   6.7368
     6.7729   6.7916   6.8016   6.8052   6.8052   6.8107   6.8204   6.8204
     6.8355   6.8355   6.8371   6.9575   6.9577   7.0488   7.0556   7.0558
     7.0694   7.0774   7.0774   7.0792   7.0864   7.0946   7.0948   7.1443
     7.1444   7.2161   7.2183   7.2184   7.2226   7.2227   7.2319   7.2429
     7.2432   7.2463   7.2593   7.2598   7.2741   7.3189   7.3218   7.3221
     7.3231   7.3237   7.3238   7.3296   7.3338   7.3383   7.3384   7.3479
     7.3530   7.3535   7.3577   7.3608   7.3614   7.3616   7.3621   7.3623
     7.3635   7.3636   7.3673   7.3693   7.3717   7.3718   7.3793   7.3802
     7.3803   7.3862   7.3865   7.3875   7.4047   7.4052   7.4091   7.4149
     7.4150   7.4221   7.4221   7.4388   7.4630   7.5012   7.5014   7.5041
     7.5073   7.5241   7.5243   7.5635   7.5638   7.5663   7.5663   7.5760
     7.5777   7.5784   7.5892   7.5894   7.5931   7.5932   7.6262   7.6368
     7.6371   7.6462   7.6462   7.6563   7.6563   7.6706   7.6708   7.6817
     7.6818   7.7347   7.7349   7.7463   7.7770   7.7774   7.8160   7.8168
     7.8174   7.8918   7.9333   7.9335   7.9533   7.9534   7.9785   7.9785
     8.0067   8.0159   8.0160   8.0220   8.0292   8.0371   8.0373   8.0392
     8.0433   8.0434   8.2030   8.2326   8.2486   8.2486   8.2690   8.2691
     8.3293   8.3295   8.3370   8.3731   8.3844   8.3846   8.3918   8.4284
     8.4285   8.4566   8.4567   8.6281   8.6756   8.6757   9.0411   9.0908
     9.0911  10.2492  11.9443  11.9721  12.1298  12.1472  12.1473  12.1794
    12.1794  12.2595  12.6131  12.7355  12.7856  12.8275  12.8326  12.8327
    12.8343  12.8346  12.8402  12.8666  12.8667  12.8728  12.8866  12.8867
    12.8931  12.9149  12.9150  12.9153  12.9285  12.9288  12.9312  12.9495
    12.9497  12.9930  12.9998  13.0001  13.1206  13.5985  13.5993  13.6076
    13.6308  13.6340  13.6351  13.7947  13.7954  13.7960  13.7988  13.7990
    13.8006  13.8018  13.8022  13.8023  13.8100  13.8156  13.8158  13.8178
    13.8184  13.8236  13.8351  13.8351  13.8428  13.8510  13.8515  13.8519
    13.8779  13.8781  13.9030  13.9238  13.9242  13.9300  13.9429  13.9430
    13.9660  13.9794  13.9797  13.9889  13.9939  13.9941  13.9971  14.0004
    14.0004  14.0092  14.0333  14.0453  14.0456  14.0573  14.0574  14.0897
    14.0951  14.0978  14.0978  14.0989  14.0990  14.1042  14.1078  14.1079
    14.1203  14.1204  14.1239  14.1482  14.1483  14.1602  14.1782  14.2031
    14.2032  14.2875  14.3056  14.3058  14.4219  14.4236  14.4238  14.4374
    14.5295  14.5303  14.6717  14.8291  14.8364  14.8375  14.8376  14.8459
    14.8466  14.8523  14.8606  14.8607  14.8654  14.8657  14.8940  15.0009
    15.0013  15.0053  15.0073  15.0075  15.0155  15.0356  15.0357  15.0456
    15.0525  15.0533  15.0624  15.0676  15.0683  15.0810  15.1156  15.1158
    15.1394  15.1523  15.1529  15.1575  15.1811  15.1812  15.3045  15.3264
    15.3511  15.3518  15.4131  15.4134  15.4491  15.6464  15.6467  15.6623
    15.6631  15.6653  15.6656  15.7750  15.7753  15.7964  15.7984  15.7986
    15.8015  15.8822  15.8868  15.8871  15.8924  15.8924  15.8946  15.9090
    15.9091  15.9141  15.9320  15.9322  15.9598  16.0577  16.0586  16.0589
    16.0620  16.0629  16.0630  16.0660  16.0701  16.0704  16.0774  16.0809
    16.0809  16.0850  16.0853  16.0860  16.0862  16.0864  16.0992  16.0994
    16.1070  16.1091  16.1126  16.1129  16.1173  16.1259  16.1267  16.1343
    16.1403  16.1406  16.1412  16.1614  16.1728  16.1732  16.1902  16.1904
    16.1978  16.2024  16.2079  16.2082  16.2144  16.2360  16.2363  16.2744
    16.2746  16.2817  16.2821  16.2949  16.2952  16.2963  16.2996  16.3114
    16.3164  16.3166  16.3204  16.3278  16.3279  16.3281  16.3385  16.3412
    16.3413  16.3528  16.3528  16.3743  16.3852  16.3855  16.3869  16.3957
    16.4006  16.4007  16.4070  16.4070  16.4112  16.4271  16.4273  16.4471
    16.4576  16.4579  16.4909  16.4913  16.4966  16.5297  16.5300  16.5493
    16.5696  16.5990  16.6113  16.6200  16.6201

     occupation numbers 
     1.0000   1.0000   1.0000   1.0000   1.0000   1.0000   1.0000   1.0000
     1.0000   1.0000   1.0000   1.0000   1.0000   1.0000   1.0000   1.0000
     1.0000   1.0000   1.0000   1.0000   1.0000   1.0000   1.0000   1.0000
     1.0000   1.0000   1.0000   1.0000   1.0000   1.0000   1.0000   1.0000
     1.0000   1.0000   1.0000   1.0000   1.0000   1.0000   1.0000   1.0000
     1.0000   1.0000   1.0000   1.0000   1.0000   1.0000   1.0000   1.0000
     1.0000   1.0000   1.0000   1.0000   1.0000   1.0000   1.0000   1.0000
     1.0000   1.0000   1.0000   1.0000   1.0000   1.0000   1.0000   1.0000
     1.0000   1.0000   1.0000   1.0000   1.0000   1.0000   1.0000   1.0000
     1.0000   1.0000   1.0000   1.0000   1.0000   1.0000   1.0000   1.0000
     1.0000   1.0000   1.0000   1.0000   1.0000   1.0000   1.0000   1.0000
     1.0000   1.0000   1.0000   1.0000   1.0000   1.0000   1.0000   1.0000
     1.0000   1.0000   1.0000   1.0000   1.0000   1.0000   1.0000   1.0000
     1.0000   1.0000   1.0000   1.0000   1.0000   1.0000   1.0000   1.0000
     1.0000   1.0000   1.0000   1.0000   1.0000   1.0000   1.0000   1.0000
     1.0000   1.0000   1.0000   1.0000   1.0000   1.0000   1.0000   1.0000
     1.0000   1.0000   1.0000   1.0000   1.0000   1.0000   1.0000   1.0000
     1.0000   1.0000   1.0000   1.0000   1.0000   1.0000   1.0000   1.0000
     1.0000   1.0000   1.0000   1.0000   1.0000   1.0000   1.0000   1.0000
     1.0000   1.0000   1.0000   1.0000   1.0000   1.0000   1.0000   1.0000
     1.0000   1.0000   1.0000   1.0000   1.0000   1.0000   1.0000   1.0000
     1.0000   1.0000   1.0000   1.0000   1.0000   1.0000   1.0000   1.0000
     1.0000   1.0000   1.0000   1.0000   1.0000   1.0000   1.0000   1.0000
     1.0000   1.0000   1.0000   1.0000   1.0000   1.0000   1.0000   1.0000
     1.0000   1.0000   1.0000   1.0000   1.0000   1.0000   1.0000   1.0000
     1.0000   1.0000   1.0000   1.0000   1.0000   1.0000   1.0000   1.0000
     1.0000   1.0000   1.0000   1.0000   1.0000   1.0000   1.0000   1.0000
     1.0000   1.0000   1.0000   1.0000   1.0000   1.0000   1.0000   1.0000
     1.0000   1.0000   1.0000   1.0000   1.0000   1.0000   1.0000   1.0000
     1.0000   1.0000   1.0000   1.0000   1.0000   1.0000   1.0000   1.0000
     1.0000   1.0000   1.0000   1.0000   1.0000   1.0000   1.0000   1.0000
     1.0000   1.0000   1.0000   1.0000   1.0000   1.0000   1.0000   1.0000
     1.0000   1.0000   1.0000   1.0000   1.0000   1.0000   1.0000   1.0000
     1.0000   1.0000   1.0000   1.0000   1.0000   1.0000   1.0000   1.0000
     1.0000   1.0000   1.0000   1.0000   1.0000   1.0000   1.0000   1.0000
     1.0000   1.0000   1.0000   1.0000   1.0000   1.0000   1.0000   1.0000
     1.0000   1.0000   1.0000   1.0000   1.0000   1.0000   1.0000   1.0000
     1.0000   1.0000   1.0000   1.0000   1.0000   1.0000   1.0000   1.0000
     1.0000   1.0000   1.0000   1.0000   1.0000   1.0000   1.0000   1.0000
     1.0000   1.0000   1.0000   1.0000   1.0000   1.0000   1.0000   1.0000
     1.0000   1.0000   1.0000   1.0000   1.0000   1.0000   1.0000   1.0000
     1.0000   1.0000   1.0000   1.0000   1.0000   1.0000   1.0000   1.0000
     1.0000   1.0000   1.0000   1.0000   1.0000   1.0000   1.0000   1.0000
     1.0000   1.0000   1.0000   1.0000   1.0000   1.0000   1.0000   1.0000
     1.0000   1.0000   1.0000   1.0000   1.0000   1.0000   1.0000   1.0000
     1.0000   1.0000   1.0000   1.0000   1.0000   1.0000   1.0000   1.0000
     1.0000   1.0000   1.0000   1.0000   1.0000   1.0000   1.0000   1.0000
     1.0000   1.0000   1.0000   1.0000   1.0000   1.0000   1.0000   1.0000
     1.0000   1.0000   1.0000   1.0000   1.0000   1.0000   1.0000   1.0000
     1.0000   1.0000   1.0000   1.0000   1.0000   1.0000   1.0000   1.0000
     1.0000   1.0000   1.0000   1.0000   1.0000   1.0000   1.0000   1.0000
     1.0000   1.0000   1.0000   1.0000   1.0000   1.0000   1.0000   1.0000
     1.0000   1.0000   1.0000   1.0000   1.0000   1.0000   1.0000   1.0000
     1.0000   1.0000   1.0000   1.0000   1.0000   1.0000   1.0000   1.0000
     1.0000   1.0000   1.0000   1.0000   1.0000   1.0000   1.0000   1.0000
     1.0000   1.0000   1.0000   1.0000   1.0000   1.0000   1.0000   1.0000
     1.0000   1.0000   1.0000   1.0000   1.0000   1.0000   1.0000   1.0000
     1.0000   1.0000   1.0000   1.0000   1.0000   1.0000   1.0000   1.0000
     1.0000   1.0000   1.0000   1.0000   1.0000   1.0000   1.0000   1.0000
     1.0000   1.0000   1.0000   1.0000   1.0000   1.0000   1.0000   1.0000
     1.0000   1.0000   1.0000   1.0000   1.0000   1.0000   1.0000   1.0000
     1.0000   1.0000   1.0000   1.0000   1.0000   1.0000   1.0000   1.0000
     1.0000   1.0000   1.0000   1.0000   1.0000   1.0000   1.0000   1.0000
     1.0000   1.0000   1.0000   1.0000   1.0000   1.0000   1.0000   1.0000
     1.0000   1.0000   1.0000   1.0000   1.0000   1.0000   1.0000   1.0000
     1.0000   1.0000   1.0000   1.0000   1.0000   1.0000   1.0000   1.0000
     1.0000   1.0000   1.0000   1.0000   1.0000   1.0000   1.0000   1.0000
     1.0000   1.0000   1.0000   1.0000   1.0000   1.0000   1.0000   1.0000
     1.0000   1.0000   1.0000   1.0000   1.0000   1.0000   1.0000   1.0000
     1.0000   1.0000   1.0000   1.0000   1.0000   1.0000   1.0000   1.0000
     1.0000   1.0000   1.0000   1.0000   1.0000   1.0000   1.0000   1.0000
     1.0000   1.0000   1.0000   1.0000   1.0000   1.0000   1.0000   1.0000
     1.0000   1.0000   1.0000   1.0000   1.0000   1.0000   1.0000   1.0000
     1.0000   1.0000   1.0000   1.0000   1.0000   1.0000   1.0000   1.0000
[...]
Ga            4.8687832137       12.1771963384       13.2171180194
Ga           14.6227810158        0.9314150483        2.6451644766
Ga           14.6004597180        0.9385961842        7.9246440650
Ga           14.6040393564        0.9356960325       13.2151247450
Ga           12.9868642923        3.7417970918        2.6346994647
Ga           12.9791248496        3.7466249485        7.9257015832
Ga           12.9811051849        3.7454591321       13.2196618500
Ga           11.3568742765        6.5568929500        2.6381796328
Ga           11.3558412383        6.5562965251        7.9268646034
Ga           11.3563064108        6.5565650925       13.2172266491
Ga            9.7339247573        9.3760536406        2.6346994647
Ga            9.7342360825        9.3669371583        7.9257015832
Ga            9.7342166235        9.3692350871       13.2196618500
Ga            8.1180208750       12.1979901034        2.6451644766
Ga            8.1130792723       12.1750687245        7.9246440650
Ga            8.1123574864       12.1796188582       13.2151247450
Ga            0.0094961279        1.8674458918        5.2558886308
Ga            0.0034587922        1.8708980032       10.5629250667
Ga            0.0096165330        1.8674899838       15.8918494368
Ga           -1.6213011560        4.6830714321        5.2808997637
Ga           -1.6219878947        4.6823047456       10.5717503144
Ga           -1.6133554608        4.6761949709       15.8679703297
Ga           -3.2440989329        7.4932257969        5.2840803826
Ga           -3.2441675999        7.4931861520       10.5728945076
Ga           -3.2436358581        7.4934931533       15.8611128858
Ga           -4.8663651129       10.3036870792        5.2808997637
Ga           -4.8673724521       10.3034756893       10.5717503144
Ga           -4.8683474553       10.3140064836       15.8679703297
Ga           -6.4893697162       13.1238117257        5.2558886308
Ga           -6.4893987679       13.1168571839       10.5629250667
Ga           -6.4892713288       13.1238939536       15.8918494368
Ga            3.2351015069        1.8677894047        5.2564230488
Ga            3.2412610424        1.8713456142       10.5632064825
Ga            3.2350063872        1.8677344873       15.8914749912
Ga            1.6227711809        4.6802739263        5.2855585383
Ga            1.6228783469        4.6826266679       10.5689178521
Ga            1.6229659492        4.6793892615       15.8613469601
Ga            0.0008299992        7.4934540642        5.2843345116
Ga            0.0000536383        7.4929014557       10.5725611616
Ga            0.0001930502        7.4923056111       15.8612724170
Ga           -1.6214367815       10.3033025519        5.2843345116
Ga           -1.6223035349       10.3029065079       10.5725611616
Ga           -1.6227498456       10.3033251645       15.8612724170
Ga           -3.2467516555       13.1145348877        5.2855585383
Ga           -3.2446605385       13.1134513254       10.5689178521
Ga           -3.2474204135       13.1151458944       15.8613469601
Ga            6.4881539497        1.8717549678        5.2807642443
Ga            6.4879453333        1.8727823385       10.5719363529
Ga            6.4789253931        1.8687907659       15.8683257154
Ga            4.8650620067        4.6830326787        5.2807642443
Ga            4.8658474276        4.6823383262       10.5719363529
Ga            4.8578806542        4.6765226151       15.8683257154
Ga            3.2439826221        7.4929371017        5.2841400088
Ga            3.2447526154        7.4923921942       10.5723715554
Ga            3.2446084770        7.4918183507       15.8610242861
Ga            1.6219360796       10.3026324213        5.2838702439
Ga            1.6219479036       10.3026392479       10.5725303679
Ga            1.6219161271       10.3026209017       15.8601235393
Ga           -0.0003081727       13.1122135930        5.2841400088
Ga           -0.0003950798       13.1131528805       10.5723715554
Ga           -0.0009641121       13.1133149747       15.8610242861
Ga            9.7337279540        1.8723981041        5.2842546962
Ga            9.7337760444        1.8725010259       10.5729813859
Ga            9.7337340639        1.8718360075       15.8612114599
Ga            8.1099152712        4.6822644439        5.2811496844
Ga            8.1105103026        4.6826079854       10.5724748111
Ga            8.1083591961        4.6813660436       15.8615422172
Ga            6.4884059812        7.4934606482        5.2842546962
Ga            6.4885191593        7.4934508348       10.5729813859
Ga            6.4879222462        7.4937469879       15.8612114599
Ga            4.8666715027       10.3030093962        5.2842583143
Ga            4.8676094717       10.3026608766       10.5723662601
Ga            4.8679605501       10.3031036777       15.8609703078
Ga            3.2446302611       13.1124672389        5.2842583143
Ga            3.2447974188       13.1134538036       10.5723662601
Ga            3.2453564349       13.1135364459       15.8609703078
Ga           12.9789536024        1.8720796932        5.2812382911
Ga           12.9792751234        1.8730597694       10.5720496878
Ga           12.9882611259        1.8684440154       15.8681546347
Ga           11.3575866622        4.6823581672        5.2812853880
Ga           11.3571205844        4.6826803556       10.5726964981
Ga           11.3591707597        4.6813872713       15.8617682623
Ga            9.7338321335        7.4947835102        5.2812853880
Ga            9.7338781179        7.4942187808       10.5726964981
Ga            9.7337833617        7.4966408268       15.8617682623
Ga            8.1107430534       10.3040677062        5.2812382911
Ga            8.1117525848       10.3038561134       10.5720496878
Ga            8.1122482259       10.3139460968       15.8681546347
Ga            6.4918682390       13.1142890645        5.2856027033
Ga            6.4900358707       13.1132311462       10.5689710955
Ga            6.4926967215       13.1147673891       15.8612610990
N             1.6224046084        0.9366942664        4.8189580516
N             1.6223516767        0.9366637063        9.9049796078
N             1.6221967892        0.9365742820       15.2024078462
N            -0.0019811686        3.7563378610        4.6372119710
N            -0.0006735216        3.7492447440        9.9187763490
N             0.0041428637        3.7502374158       15.1959986982
N            -1.6225487974        6.5605228757        4.6340973178
N            -1.6224721062        6.5570668483        9.9195502598
N            -1.6221538059        6.5554993175       15.2080396790
N            -3.2410646952        9.3638746436        4.6340973178
N            -3.2440193571        9.3656690739        9.9195502598
N            -3.2452177285        9.3667284954       15.2080396790
N            -4.8592763404       12.1694198861        4.6372119710
N            -4.8647653364       12.1740989000        9.9187763490
N            -4.8614974647       12.1777736763       15.1959986982
N             4.8761426181        0.9333998864        4.6368800743
N             4.8696272825        0.9360254699        9.9185068558
N             4.8682696413        0.9315529941       15.1958379082
N             3.2464205964        3.7561612302        4.6368800743
N             3.2454367506        3.7492059923        9.9185068558
N             3.2408846523        3.7502664784       15.1958379082
N             1.6223557959        6.5593079481        4.6341396741
N             1.6223615950        6.5584230267        9.9192883373
N             1.6223677656        6.5591735999       15.2067623278
N             0.0009552040        9.3667545265        4.6324947546
N             0.0002032835        9.3663204050        9.9199004142
N             0.0000665763        9.3662414771       15.2071666300
N            -1.6196645568       12.1746519182        4.6341396741
N            -1.6204280216       12.1750994010        9.9192883373
N            -1.6197749209       12.1747294583       15.2067623278
N             8.1150963881        0.9348569124        4.6339666477
N             8.1120779570        0.9365516840        9.9194193036
N             8.1106539676        0.9370410806       15.2078965563
N             6.4898451551        3.7469123765        4.6307864432
N             6.4895573585        3.7467462170        9.9185494797
N             6.4866894781        3.7450904455       15.2095462223
N             4.8671593030        6.5604489639        4.6339666477
N             4.8671178027        6.5569875401        9.9194193036
N             4.8668296379        6.5555096308       15.2078965563
N             3.2436431060        9.3666892382        4.6326472815
N             3.2444218689        9.3662748532        9.9200585897
N             3.2444866099        9.3662128879       15.2072864870
N             1.6222426137       12.1750372705        4.6326472815
N             1.6222731272       12.1759188914        9.9200585897
N             1.6222518341       12.1760059415       15.2072864870
N            11.3521843161        0.9348942167        4.6340711964
N            11.3553009349        0.9366227693        9.9194699539
N            11.3565639149        0.9369489405       15.2077721118
N             9.7337036044        3.7462427435        4.6316183663
N             9.7337607685        3.7465894653        9.9198166277
N             9.7337244244        3.7466245047       15.2080514500
N             8.1111944605        6.5565110164        4.6316183663
N             8.1115233125        6.5563871611        9.9198166277
N             8.1115354854        6.5563381664       15.2080514500
N             6.4857355735        9.3638306916        4.6340711964
N             6.4887908533        9.3656654865        9.9194699539
N             6.4897048158        9.3665961736       15.2077721118
N             4.8642565647       12.1745828764        4.6343359745
N             4.8651913674       12.1751225849        9.9194998775
N             4.8644992595       12.1747229963       15.2068295849
N            14.5908710648        0.9333488060        4.6369326951
N            14.5977665575        0.9359540929        9.9185298554
N            14.5991976243        0.9314163134       15.1958458496
N            12.9773889871        3.7468721061        4.6306525750
N            12.9777091460        3.7467399540        9.9184221311
N            12.9807138814        3.7448810887       15.2095086488
N            11.3561534143        6.5564767600        4.6314305772
N            11.3558955718        6.5563278945        9.9196372647
N            11.3557856505        6.5562644315       15.2079308036
N             9.7335821960        9.3653102785        4.6306525750
N             9.7336278284        9.3656536203        9.9184221311
N             9.7335203715        9.3691852300       15.2095086488
N             8.1037405828       12.1693883963        4.6369326951
N             8.1094445738       12.1740574248        9.9185298554
N             8.1062302749       12.1775656547       15.1958458496
N            -0.1529028468        1.9611337569        1.9348134053
N            -0.0146286964        1.8818145338        7.2840862505
N             0.0002931114        1.8731427107       12.5546653479
N            -1.6275588316        4.7013206674        1.9909599106
N            -1.6251993601        4.6869985840        7.2754228057
N            -1.6229427836        4.6834030613       12.5614757465
N            -3.2441728267        7.4931831343        1.9872707277
N            -3.2449327630        7.4927443849        7.2765537949
N            -3.2441323127        7.4932065250       12.5639268093
N            -4.8536896492       10.2891431555        1.9909599106
N            -4.8649132015       10.2983475594        7.2754228057
N            -4.8668987274       10.3020995734       12.5614757465
N            -6.4894331323       12.9363261555        1.9348134053
N            -6.4889885194       13.0957346940        7.2840862505
N            -6.4890376346       13.1129932702       12.5546653479
N             3.3966564803        1.9610632121        1.9345196624
N             3.2593311101        1.8817783727        7.2844631851
N             3.2441707265        1.8730255211       12.5549686598
N             1.6217443264        4.6935523286        1.9875320982
N             1.6223170653        4.6861536928        7.2793796672
N             1.6222017850        4.6850737054       12.5567640328
N             0.0009361522        7.4972692150        1.9881175749
N            -0.0001108165        7.4940435755        7.2770504264
N            -0.0001486563        7.4930705361       12.5632178962
N            -1.6180796875       10.3014869076        1.9881175749
N            -1.6213966576       10.3021930260        7.2770504264
N            -1.6222582543       10.3026467754       12.5632178962
N            -3.2357656490       13.1070064045        1.9875320982
N            -3.2418866861       13.1112017289        7.2793796672
N            -3.2428796227       13.1116418869       12.5567640328
N             6.5070135617        1.8684721491        1.9912902122
N             6.4940876837        1.8740696725        7.2753571598
N             6.4897267793        1.8738053380       12.5616119774
N             4.8716488082        4.7010069911        1.9912902122
N             4.8700334667        4.6870140908        7.2753571598
N             4.8676240941        4.6833696039       12.5616119774
N             3.2436200640        7.4972714271        1.9878955279
N             3.2448167301        7.4941133451        7.2768668767
N             3.2448327355        7.4931178116       12.5630517637
N             1.6223759616       10.3028863873        1.9869744907
N             1.6224059644       10.3029037094        7.2765665329
N             1.6223816092       10.3028896479       12.5635188845
N             0.0032641841       13.1097324457        1.9878955279
N             0.0011275379       13.1123478301        7.2768668767
N             0.0002733833       13.1128594579       12.5630517637
N             9.7334111015        1.8728494470        1.9873545773
N             9.7336316644        1.8738074445        7.2766949100
N             9.7336547105        1.8728927106       12.5639806252
N             8.1113190047        4.6830748898        1.9879183008
N             8.1121144298        4.6835341287        7.2749559573
N             8.1108565084        4.6828078675       12.5639357410
N             6.4886384293        7.4929605744        1.9873545773
N             6.4895783610        7.4926725888        7.2766949100
N             6.4887977012        7.4931499142       12.5639806252
N             4.8623747001       10.3013732082        1.9878570092
N             4.8659435960       10.3021837786        7.2769526547
N             4.8667841931       10.3026646873       12.5630245563
N             3.2410648794       13.1095641926        1.9878570092
N             3.2435513019       13.1122496620        7.2769526547
N             3.2443880796       13.1127371860       12.5630245563
N            12.9594382816        1.8684198761        1.9911806640
N            12.9734078079        1.8739991763        7.2757172155
N            12.9776925771        1.8738060573       12.5617279403
N            11.3559890717        4.6830672505        1.9881427274
N            11.3552753168        4.6835606916        7.2750852360
N            11.3565335351        4.6828336173       12.5641309186
N             9.7336474223        7.4930454146        1.9881427274
N             9.7337178775        7.4921805641        7.2750852360
N             9.7337173217        7.4936337503       12.5641309186
N             8.0978158985       10.2889968511        1.9911806640
N             8.1096324773       10.2983051657        7.2757172155
N             8.1116076160       10.3021124442       12.5617279403
N             6.4795176773       13.1071584644        1.9874614428
N             6.4865207775       13.1112017062        7.2794206271
N             6.4875028360       13.1117686979       12.5568003823
End final coordinates



     Writing all to output data dir ./GaN.save/
 
     init_run     :      7.78s CPU      8.35s WALL (       1 calls)
     electrons    :   1232.07s CPU   1257.58s WALL (       1 calls)
     forces       :     63.97s CPU     64.97s WALL (       1 calls)
     stress       :   1244.05s CPU   1257.76s WALL (       1 calls)

     Called by init_run:
     wfcinit      :      0.65s CPU      0.74s WALL (       1 calls)
     potinit      :      1.73s CPU      1.98s WALL (       1 calls)
     hinit0       :      1.45s CPU      1.55s WALL (       1 calls)

     Called by electrons:
     c_bands      :   1208.97s CPU   1233.24s WALL (       1 calls)
     sum_band     :     20.83s CPU     21.12s WALL (       1 calls)
     v_of_rho     :      1.95s CPU      2.10s WALL (       2 calls)
     v_h          :      0.02s CPU      0.02s WALL (       2 calls)
     v_xc         :      3.68s CPU      3.92s WALL (       4 calls)
     newd         :      0.35s CPU      0.42s WALL (       2 calls)
     PAW_pot      :      1.07s CPU      1.08s WALL (       2 calls)
     mix_rho      :      0.00s CPU      0.00s WALL (       1 calls)
     vdW_kernel   :      0.16s CPU      0.17s WALL (       1 calls)

     Called by c_bands:
     init_us_2    :      1.52s CPU      1.57s WALL (       7 calls)
     init_us_2:cp :      1.52s CPU      1.57s WALL (       7 calls)
     cegterg      :   1151.06s CPU   1173.34s WALL (       1 calls)

     Called by sum_band:
     sum_band:wei :      0.00s CPU      0.00s WALL (       1 calls)
     sum_band:loo :     20.52s CPU     20.71s WALL (       1 calls)
     sum_band:buf :      0.25s CPU      0.25s WALL (       2 calls)
     sum_band:ini :      0.52s CPU      0.53s WALL (       2 calls)
     sum_band:cal :     14.14s CPU     14.26s WALL (       2 calls)
     sum_band:bec :      0.12s CPU      0.12s WALL (       2 calls)
     addusdens    :      0.19s CPU      0.21s WALL (       1 calls)
     addusd:skk   :      0.04s CPU      0.04s WALL (       2 calls)
     addusd:dgemm :      0.08s CPU      0.11s WALL (       2 calls)
     addusd:qvan2 :      0.02s CPU      0.03s WALL (       2 calls)

     Called by *egterg:
     cdiaghg      :   1002.55s CPU   1020.98s WALL (      18 calls)
     cegterg:over :     31.05s CPU     31.90s WALL (      17 calls)
     cegterg:upda :     20.15s CPU     20.41s WALL (      17 calls)
     cegterg:last :      8.29s CPU      8.35s WALL (       1 calls)
     h_psi        :     58.92s CPU     59.89s WALL (      18 calls)
     s_psi        :     21.17s CPU     21.52s WALL (      18 calls)
     g_psi        :      0.03s CPU      0.03s WALL (      17 calls)

     Called by h_psi:
     h_psi:calbec :     22.21s CPU     22.40s WALL (      18 calls)
     vloc_psi     :     15.33s CPU     15.52s WALL (      18 calls)
     add_vuspsi   :     21.16s CPU     21.54s WALL (      18 calls)

     General routines
     calbec       :    140.02s CPU    141.06s WALL (      30 calls)
     fft          :      1.75s CPU      1.79s WALL (     293 calls)
     ffts         :      0.02s CPU      0.02s WALL (       3 calls)
     fftw         :     19.03s CPU     19.26s WALL (   12674 calls)
     interpolate  :      0.02s CPU      0.02s WALL (       2 calls)
     davcio       :      0.01s CPU      1.49s WALL (       2 calls)
 
     Parallel routines

     PAW routines
     PAW_pot      :      1.07s CPU      1.08s WALL (       2 calls)
     PAW_symme    :      0.01s CPU      0.01s WALL (       2 calls)
 
     PWSCF        :  42m39.18s CPU  43m35.30s WALL

 
   This run was terminated on:   9: 2:21  19Feb2024            

=------------------------------------------------------------------------------=
   JOB DONE.
=------------------------------------------------------------------------------=
