
     Program PWSCF v.7.1 starts on 18Mar2024 at 23:43:18 

     This program is part of the open-source Quantum ESPRESSO suite
     for quantum simulation of materials; please cite
         "P. Giannozzi et al., J. Phys.:Condens. Matter 21 395502 (2009);
         "P. Giannozzi et al., J. Phys.:Condens. Matter 29 465901 (2017);
         "P. Giannozzi et al., J. Chem. Phys. 152 154105 (2020);
          URL http://www.quantum-espresso.org", 
     in publications or presentations arising from this work. More details at
     http://www.quantum-espresso.org/quote

     Parallel version (MPI & OpenMP), running on     180 processor cores
     Number of MPI processes:               180
     Threads/MPI process:                     1

     MPI processes distributed on     2 nodes
     1994760 MiB available memory on the printing compute node when the environment starts
 
     Reading input from espresso.pwi
Warning: card &CELL ignored
Warning: card    CELL_DYNAMICS    = 'BFGS' ignored
Warning: card / ignored

     Current dimensions of program PWSCF are:
     Max number of different atomic species (ntypx) = 10
     Max number of k-points (npk) =  40000
     Max angular momentum in pseudopotentials (lmaxx) =  4
     file Ga.pbe-dn-kjpaw_psl.1.0.0.UPF: wavefunction(s)  4S renormalized
     file N.pbe-n-kjpaw_psl.1.0.0.UPF: wavefunction(s)  2S renormalized

     **************************************************************************
     Initializing libbeef V0.1.2 with the BEEF-vdW functional.
     Citation: Wellendorff et al., PRB 85, 235149 (2012).
     **************************************************************************


     IMPORTANT: XC functional enforced from input :
     Exchange-correlation= BEEF-VDW
                           (   1   4  43  14   2   0   0)
     Any further DFT definition will be discarded
     Please, verify this is what you really want

 
     K-points division:     npool     =       3
     R & G space division:  proc/nbgrp/npool/nimage =      60
     Subspace diagonalization in iterative solution of the eigenvalue problem:
     a serial algorithm will be used

 
     Parallelization info
     --------------------
     sticks:   dense  smooth     PW     G-vecs:    dense   smooth      PW
     Min         378     302     78                44970    32176    4254
     Max         379     303     79                44974    32181    4259
     Sum       22693   18145   4705              2698283  1930731  255309
 
     Using Slab Decomposition
 


     bravais-lattice index     =            4
     lattice parameter (alat)  =      30.6565  a.u.
     unit-cell volume          =   24400.9461 (a.u.)^3
     number of atoms/cell      =          299
     number of atomic types    =            2
     number of electrons       =      2689.00
     number of Kohn-Sham states=         1614
     kinetic-energy cutoff     =      70.0000  Ry
     charge density cutoff     =     350.0000  Ry
     scf convergence threshold =      1.0E-07
     mixing beta               =       0.7000
     number of iterations used =            8  plain     mixing
     energy convergence thresh.=      1.0E-04
     force convergence thresh. =      1.0E-03
     Exchange-correlation= BEEF-VDW
                           (   1   4  43  14   2   0   0)
     nstep                     =           50


     celldm(1)=  30.656540  celldm(2)=   0.000000  celldm(3)=   0.977927
     celldm(4)=   0.000000  celldm(5)=   0.000000  celldm(6)=   0.000000

     crystal axes: (cart. coord. in units of alat)
               a(1) = (   1.000000   0.000000   0.000000 )  
               a(2) = (  -0.500000   0.866025   0.000000 )  
               a(3) = (   0.000000   0.000000   0.977927 )  

     reciprocal axes: (cart. coord. in units 2 pi/alat)
               b(1) = (  1.000000  0.577350 -0.000000 )  
               b(2) = (  0.000000  1.154701  0.000000 )  
               b(3) = (  0.000000 -0.000000  1.022571 )  


     PseudoPot. # 1 for Ga read from file:
     //group///packages/espresso/pseudo/psl_1.0.0/pslibrary.1.0.0/pbe/PSEUDOPOTENTIALS/Ga.pbe-dn-kjpaw_psl.1.0.0.UPF
     MD5 check sum: cd2a01e492f15b435d17032472d8505c
     Pseudo is Projector augmented-wave + core cor, Zval = 13.0
     Generated using 'atomic' code by A. Dal Corso  v.7.1
     Shape of augmentation charge: PSQ
     Using radial grid of 1205 points,  6 beta functions with: 
                l(1) =   0
                l(2) =   0
                l(3) =   1
                l(4) =   1
                l(5) =   2
                l(6) =   2
     Q(r) pseudized with 0 coefficients 


     PseudoPot. # 2 for N  read from file:
     //group///packages/espresso/pseudo/psl_1.0.0/pslibrary.1.0.0/pbe/PSEUDOPOTENTIALS/N.pbe-n-kjpaw_psl.1.0.0.UPF
     MD5 check sum: f77f775694dac7e2c3fe1c82443d1a16
     Pseudo is Projector augmented-wave + core cor, Zval =  5.0
     Generated using 'atomic' code by A. Dal Corso  v.7.1
     Shape of augmentation charge: PSQ
     Using radial grid of 1085 points,  4 beta functions with: 
                l(1) =   0
                l(2) =   0
                l(3) =   1
                l(4) =   1
     Q(r) pseudized with 0 coefficients 


     atomic species   valence    mass     pseudopotential
        Ga            13.00    69.72300     Ga( 1.00)
        N              5.00    14.00700     N ( 1.00)

      2 Sym. Ops. (no inversion) found


                                    s                        frac. trans.

      isym =  1     identity                                     

 cryst.   s( 1) = (     1          0          0      )
                  (     0          1          0      )
                  (     0          0          1      )

 cart.    s( 1) = (  1.0000000  0.0000000  0.0000000 )
                  (  0.0000000  1.0000000  0.0000000 )
                  (  0.0000000  0.0000000  1.0000000 )


      isym =  2     inv. 180 deg rotation - cryst. axis [0,1,0]  

 cryst.   s( 2) = (     1          1          0      )
                  (     0         -1          0      )
                  (     0          0          1      )

 cart.    s( 2) = (  0.5000000  0.8660254  0.0000000 )
                  (  0.8660254 -0.5000000  0.0000000 )
                  (  0.0000000  0.0000000  1.0000000 )


     point group C_s (m)    
     there are  2 classes
     the character table:

       E     s    
A'     1.00  1.00
A''    1.00 -1.00

     the symmetry operations in each class and the name of the first element:

     E        1
          identity                                               
     s        2
          inv. 180 deg rotation - cryst. axis [0,1,0]            

   Cartesian axes

     site n.     atom                  positions (alat units)
         1           Ga  tau(   1) = (   0.1000001   0.0577350   0.4886906  )
         2           Ga  tau(   2) = (   0.1000001   0.0577350   0.8146665  )
         3           Ga  tau(   3) = (   0.0000001   0.2309401   0.1627148  )
         4           Ga  tau(   4) = (   0.0000001   0.2309401   0.4886906  )
         5           Ga  tau(   5) = (   0.0000001   0.2309401   0.8146665  )
         6           Ga  tau(   6) = (  -0.0999999   0.4041451   0.1627148  )
         7           Ga  tau(   7) = (  -0.0999999   0.4041451   0.4886906  )
         8           Ga  tau(   8) = (  -0.0999999   0.4041451   0.8146665  )
         9           Ga  tau(   9) = (  -0.1999999   0.5773502   0.1627148  )
        10           Ga  tau(  10) = (  -0.1999999   0.5773502   0.4886906  )
        11           Ga  tau(  11) = (  -0.1999999   0.5773502   0.8146665  )
        12           Ga  tau(  12) = (  -0.2999999   0.7505553   0.1627148  )
        13           Ga  tau(  13) = (  -0.2999999   0.7505553   0.4886906  )
        14           Ga  tau(  14) = (  -0.2999999   0.7505553   0.8146665  )
        15           Ga  tau(  15) = (   0.3000001   0.0577350   0.1627148  )
        16           Ga  tau(  16) = (   0.3000001   0.0577350   0.4886906  )
        17           Ga  tau(  17) = (   0.3000001   0.0577350   0.8146665  )
        18           Ga  tau(  18) = (   0.2000001   0.2309401   0.1627148  )
        19           Ga  tau(  19) = (   0.2000001   0.2309401   0.4886906  )
        20           Ga  tau(  20) = (   0.2000001   0.2309401   0.8146665  )
        21           Ga  tau(  21) = (   0.1000001   0.4041451   0.1627148  )
        22           Ga  tau(  22) = (   0.1000001   0.4041451   0.4886906  )
        23           Ga  tau(  23) = (   0.1000001   0.4041451   0.8146665  )
        24           Ga  tau(  24) = (   0.0000001   0.5773502   0.1627148  )
        25           Ga  tau(  25) = (   0.0000001   0.5773502   0.4886906  )
        26           Ga  tau(  26) = (   0.0000001   0.5773502   0.8146665  )
        27           Ga  tau(  27) = (  -0.0999999   0.7505553   0.1627148  )
        28           Ga  tau(  28) = (  -0.0999999   0.7505553   0.4886906  )
        29           Ga  tau(  29) = (  -0.0999999   0.7505553   0.8146665  )
        30           Ga  tau(  30) = (   0.5000001   0.0577350   0.1627148  )
        31           Ga  tau(  31) = (   0.5000001   0.0577350   0.4886906  )
        32           Ga  tau(  32) = (   0.5000001   0.0577350   0.8146665  )
        33           Ga  tau(  33) = (   0.4000001   0.2309401   0.1627148  )
        34           Ga  tau(  34) = (   0.4000001   0.2309401   0.4886906  )
        35           Ga  tau(  35) = (   0.4000001   0.2309401   0.8146665  )
        36           Ga  tau(  36) = (   0.3000001   0.4041451   0.1627148  )
        37           Ga  tau(  37) = (   0.3000001   0.4041451   0.4886906  )
        38           Ga  tau(  38) = (   0.3000001   0.4041451   0.8146665  )
        39           Ga  tau(  39) = (   0.2000001   0.5773502   0.1627148  )
        40           Ga  tau(  40) = (   0.2000001   0.5773502   0.4886906  )
        41           Ga  tau(  41) = (   0.2000001   0.5773502   0.8146665  )
        42           Ga  tau(  42) = (   0.1000001   0.7505553   0.1627148  )
        43           Ga  tau(  43) = (   0.1000001   0.7505553   0.4886906  )
        44           Ga  tau(  44) = (   0.1000001   0.7505553   0.8146665  )
        45           Ga  tau(  45) = (   0.7000001   0.0577350   0.1627148  )
        46           Ga  tau(  46) = (   0.7000001   0.0577350   0.4886906  )
        47           Ga  tau(  47) = (   0.7000001   0.0577350   0.8146665  )
        48           Ga  tau(  48) = (   0.6000001   0.2309401   0.1627148  )
        49           Ga  tau(  49) = (   0.6000001   0.2309401   0.4886906  )
        50           Ga  tau(  50) = (   0.6000001   0.2309401   0.8146665  )
        51           Ga  tau(  51) = (   0.5000001   0.4041451   0.1627148  )
        52           Ga  tau(  52) = (   0.5000001   0.4041451   0.4886906  )
        53           Ga  tau(  53) = (   0.5000001   0.4041451   0.8146665  )
        54           Ga  tau(  54) = (   0.4000001   0.5773502   0.1627148  )
        55           Ga  tau(  55) = (   0.4000001   0.5773502   0.4886906  )
        56           Ga  tau(  56) = (   0.4000001   0.5773502   0.8146665  )
        57           Ga  tau(  57) = (   0.3000001   0.7505553   0.1627148  )
        58           Ga  tau(  58) = (   0.3000001   0.7505553   0.4886906  )
        59           Ga  tau(  59) = (   0.3000001   0.7505553   0.8146665  )
        60           Ga  tau(  60) = (   0.9000001   0.0577350   0.1627148  )
        61           Ga  tau(  61) = (   0.9000001   0.0577350   0.4886906  )
        62           Ga  tau(  62) = (   0.9000001   0.0577350   0.8146665  )
        63           Ga  tau(  63) = (   0.8000001   0.2309401   0.1627148  )
        64           Ga  tau(  64) = (   0.8000001   0.2309401   0.4886906  )
        65           Ga  tau(  65) = (   0.8000001   0.2309401   0.8146665  )
        66           Ga  tau(  66) = (   0.7000001   0.4041451   0.1627148  )
        67           Ga  tau(  67) = (   0.7000001   0.4041451   0.4886906  )
        68           Ga  tau(  68) = (   0.7000001   0.4041451   0.8146665  )
        69           Ga  tau(  69) = (   0.6000001   0.5773502   0.1627148  )
        70           Ga  tau(  70) = (   0.6000001   0.5773502   0.4886906  )
        71           Ga  tau(  71) = (   0.6000001   0.5773502   0.8146665  )
        72           Ga  tau(  72) = (   0.5000001   0.7505553   0.1627148  )
        73           Ga  tau(  73) = (   0.5000001   0.7505553   0.4886906  )
        74           Ga  tau(  74) = (   0.5000001   0.7505553   0.8146665  )
        75           Ga  tau(  75) = (  -0.0000001   0.1154701   0.3257027  )
        76           Ga  tau(  76) = (  -0.0000001   0.1154701   0.6516786  )
        77           Ga  tau(  77) = (  -0.0000001   0.1154701   0.9776544  )
        78           Ga  tau(  78) = (  -0.1000001   0.2886752   0.3257027  )
        79           Ga  tau(  79) = (  -0.1000001   0.2886752   0.6516786  )
        80           Ga  tau(  80) = (  -0.1000001   0.2886752   0.9776544  )
        81           Ga  tau(  81) = (  -0.2000001   0.4618803   0.3257027  )
        82           Ga  tau(  82) = (  -0.2000001   0.4618803   0.6516786  )
        83           Ga  tau(  83) = (  -0.2000001   0.4618803   0.9776544  )
        84           Ga  tau(  84) = (  -0.3000001   0.6350854   0.3257027  )
        85           Ga  tau(  85) = (  -0.3000001   0.6350854   0.6516786  )
        86           Ga  tau(  86) = (  -0.3000001   0.6350854   0.9776544  )
        87           Ga  tau(  87) = (  -0.4000001   0.8082905   0.3257027  )
        88           Ga  tau(  88) = (  -0.4000001   0.8082905   0.6516786  )
        89           Ga  tau(  89) = (  -0.4000001   0.8082905   0.9776544  )
        90           Ga  tau(  90) = (   0.1999999   0.1154701   0.3257027  )
        91           Ga  tau(  91) = (   0.1999999   0.1154701   0.6516786  )
        92           Ga  tau(  92) = (   0.1999999   0.1154701   0.9776544  )
        93           Ga  tau(  93) = (   0.0999999   0.2886752   0.3257027  )
        94           Ga  tau(  94) = (   0.0999999   0.2886752   0.6516786  )
        95           Ga  tau(  95) = (   0.0999999   0.2886752   0.9776544  )
        96           Ga  tau(  96) = (  -0.0000001   0.4618803   0.3257027  )
        97           Ga  tau(  97) = (  -0.0000001   0.4618803   0.6516786  )
        98           Ga  tau(  98) = (  -0.0000001   0.4618803   0.9776544  )
        99           Ga  tau(  99) = (  -0.1000001   0.6350854   0.3257027  )
       100           Ga  tau( 100) = (  -0.1000001   0.6350854   0.6516786  )
       101           Ga  tau( 101) = (  -0.1000001   0.6350854   0.9776544  )
       102           Ga  tau( 102) = (  -0.2000001   0.8082905   0.3257027  )
       103           Ga  tau( 103) = (  -0.2000001   0.8082905   0.6516786  )
       104           Ga  tau( 104) = (  -0.2000001   0.8082905   0.9776544  )
       105           Ga  tau( 105) = (   0.3999999   0.1154701   0.3257027  )
       106           Ga  tau( 106) = (   0.3999999   0.1154701   0.6516786  )
       107           Ga  tau( 107) = (   0.3999999   0.1154701   0.9776544  )
       108           Ga  tau( 108) = (   0.2999999   0.2886752   0.3257027  )
       109           Ga  tau( 109) = (   0.2999999   0.2886752   0.6516786  )
       110           Ga  tau( 110) = (   0.2999999   0.2886752   0.9776544  )
       111           Ga  tau( 111) = (   0.1999999   0.4618803   0.3257027  )
       112           Ga  tau( 112) = (   0.1999999   0.4618803   0.6516786  )
       113           Ga  tau( 113) = (   0.1999999   0.4618803   0.9776544  )
       114           Ga  tau( 114) = (   0.0999999   0.6350854   0.3257027  )
       115           Ga  tau( 115) = (   0.0999999   0.6350854   0.6516786  )
       116           Ga  tau( 116) = (   0.0999999   0.6350854   0.9776544  )
       117           Ga  tau( 117) = (  -0.0000001   0.8082905   0.3257027  )
       118           Ga  tau( 118) = (  -0.0000001   0.8082905   0.6516786  )
       119           Ga  tau( 119) = (  -0.0000001   0.8082905   0.9776544  )
       120           Ga  tau( 120) = (   0.5999999   0.1154701   0.3257027  )
       121           Ga  tau( 121) = (   0.5999999   0.1154701   0.6516786  )
       122           Ga  tau( 122) = (   0.5999999   0.1154701   0.9776544  )
       123           Ga  tau( 123) = (   0.4999999   0.2886752   0.3257027  )
       124           Ga  tau( 124) = (   0.4999999   0.2886752   0.6516786  )
       125           Ga  tau( 125) = (   0.4999999   0.2886752   0.9776544  )
       126           Ga  tau( 126) = (   0.3999999   0.4618803   0.3257027  )
       127           Ga  tau( 127) = (   0.3999999   0.4618803   0.6516786  )
       128           Ga  tau( 128) = (   0.3999999   0.4618803   0.9776544  )
       129           Ga  tau( 129) = (   0.2999999   0.6350854   0.3257027  )
       130           Ga  tau( 130) = (   0.2999999   0.6350854   0.6516786  )
       131           Ga  tau( 131) = (   0.2999999   0.6350854   0.9776544  )
       132           Ga  tau( 132) = (   0.1999999   0.8082905   0.3257027  )
       133           Ga  tau( 133) = (   0.1999999   0.8082905   0.6516786  )
       134           Ga  tau( 134) = (   0.1999999   0.8082905   0.9776544  )
       135           Ga  tau( 135) = (   0.7999999   0.1154701   0.3257027  )
       136           Ga  tau( 136) = (   0.7999999   0.1154701   0.6516786  )
       137           Ga  tau( 137) = (   0.7999999   0.1154701   0.9776544  )
       138           Ga  tau( 138) = (   0.6999999   0.2886752   0.3257027  )
       139           Ga  tau( 139) = (   0.6999999   0.2886752   0.6516786  )
       140           Ga  tau( 140) = (   0.6999999   0.2886752   0.9776544  )
       141           Ga  tau( 141) = (   0.5999999   0.4618803   0.3257027  )
       142           Ga  tau( 142) = (   0.5999999   0.4618803   0.6516786  )
       143           Ga  tau( 143) = (   0.5999999   0.4618803   0.9776544  )
       144           Ga  tau( 144) = (   0.4999999   0.6350854   0.3257027  )
       145           Ga  tau( 145) = (   0.4999999   0.6350854   0.6516786  )
       146           Ga  tau( 146) = (   0.4999999   0.6350854   0.9776544  )
       147           Ga  tau( 147) = (   0.3999999   0.8082905   0.3257027  )
       148           Ga  tau( 148) = (   0.3999999   0.8082905   0.6516786  )
       149           Ga  tau( 149) = (   0.3999999   0.8082905   0.9776544  )
       150           N   tau( 150) = (   0.1000001   0.0577350   0.2855019  )
       151           N   tau( 151) = (   0.1000001   0.0577350   0.6114777  )
       152           N   tau( 152) = (   0.1000001   0.0577350   0.9374535  )
       153           N   tau( 153) = (   0.0000001   0.2309401   0.2855019  )
       154           N   tau( 154) = (   0.0000001   0.2309401   0.6114777  )
       155           N   tau( 155) = (   0.0000001   0.2309401   0.9374535  )
       156           N   tau( 156) = (  -0.0999999   0.4041451   0.2855019  )
       157           N   tau( 157) = (  -0.0999999   0.4041451   0.6114777  )
       158           N   tau( 158) = (  -0.0999999   0.4041451   0.9374535  )
       159           N   tau( 159) = (  -0.1999999   0.5773502   0.2855019  )
       160           N   tau( 160) = (  -0.1999999   0.5773502   0.6114777  )
       161           N   tau( 161) = (  -0.1999999   0.5773502   0.9374535  )
       162           N   tau( 162) = (  -0.2999999   0.7505553   0.2855019  )
       163           N   tau( 163) = (  -0.2999999   0.7505553   0.6114777  )
       164           N   tau( 164) = (  -0.2999999   0.7505553   0.9374535  )
       165           N   tau( 165) = (   0.3000001   0.0577350   0.2855019  )
       166           N   tau( 166) = (   0.3000001   0.0577350   0.6114777  )
       167           N   tau( 167) = (   0.3000001   0.0577350   0.9374535  )
       168           N   tau( 168) = (   0.2000001   0.2309401   0.2855019  )
       169           N   tau( 169) = (   0.2000001   0.2309401   0.6114777  )
       170           N   tau( 170) = (   0.2000001   0.2309401   0.9374535  )
       171           N   tau( 171) = (   0.1000001   0.4041451   0.2855019  )
       172           N   tau( 172) = (   0.1000001   0.4041451   0.6114777  )
       173           N   tau( 173) = (   0.1000001   0.4041451   0.9374535  )
       174           N   tau( 174) = (   0.0000001   0.5773502   0.2855019  )
       175           N   tau( 175) = (   0.0000001   0.5773502   0.6114777  )
       176           N   tau( 176) = (   0.0000001   0.5773502   0.9374535  )
       177           N   tau( 177) = (  -0.0999999   0.7505553   0.2855019  )
       178           N   tau( 178) = (  -0.0999999   0.7505553   0.6114777  )
       179           N   tau( 179) = (  -0.0999999   0.7505553   0.9374535  )
       180           N   tau( 180) = (   0.5000001   0.0577350   0.2855019  )
       181           N   tau( 181) = (   0.5000001   0.0577350   0.6114777  )
       182           N   tau( 182) = (   0.5000001   0.0577350   0.9374535  )
       183           N   tau( 183) = (   0.4000001   0.2309401   0.2855019  )
       184           N   tau( 184) = (   0.4000001   0.2309401   0.6114777  )
       185           N   tau( 185) = (   0.4000001   0.2309401   0.9374535  )
       186           N   tau( 186) = (   0.3000001   0.4041451   0.2855019  )
       187           N   tau( 187) = (   0.3000001   0.4041451   0.6114777  )
       188           N   tau( 188) = (   0.3000001   0.4041451   0.9374535  )
       189           N   tau( 189) = (   0.2000001   0.5773502   0.2855019  )
       190           N   tau( 190) = (   0.2000001   0.5773502   0.6114777  )
       191           N   tau( 191) = (   0.2000001   0.5773502   0.9374535  )
       192           N   tau( 192) = (   0.1000001   0.7505553   0.2855019  )
       193           N   tau( 193) = (   0.1000001   0.7505553   0.6114777  )
       194           N   tau( 194) = (   0.1000001   0.7505553   0.9374535  )
       195           N   tau( 195) = (   0.7000001   0.0577350   0.2855019  )
       196           N   tau( 196) = (   0.7000001   0.0577350   0.6114777  )
       197           N   tau( 197) = (   0.7000001   0.0577350   0.9374535  )
       198           N   tau( 198) = (   0.6000001   0.2309401   0.2855019  )
       199           N   tau( 199) = (   0.6000001   0.2309401   0.6114777  )
       200           N   tau( 200) = (   0.6000001   0.2309401   0.9374535  )
       201           N   tau( 201) = (   0.5000001   0.4041451   0.2855019  )
       202           N   tau( 202) = (   0.5000001   0.4041451   0.6114777  )
       203           N   tau( 203) = (   0.5000001   0.4041451   0.9374535  )
       204           N   tau( 204) = (   0.4000001   0.5773502   0.2855019  )
       205           N   tau( 205) = (   0.4000001   0.5773502   0.6114777  )
       206           N   tau( 206) = (   0.4000001   0.5773502   0.9374535  )
       207           N   tau( 207) = (   0.3000001   0.7505553   0.2855019  )
       208           N   tau( 208) = (   0.3000001   0.7505553   0.6114777  )
       209           N   tau( 209) = (   0.3000001   0.7505553   0.9374535  )
       210           N   tau( 210) = (   0.9000001   0.0577350   0.2855019  )
       211           N   tau( 211) = (   0.9000001   0.0577350   0.6114777  )
       212           N   tau( 212) = (   0.9000001   0.0577350   0.9374535  )
       213           N   tau( 213) = (   0.8000001   0.2309401   0.2855019  )
       214           N   tau( 214) = (   0.8000001   0.2309401   0.6114777  )
       215           N   tau( 215) = (   0.8000001   0.2309401   0.9374535  )
       216           N   tau( 216) = (   0.7000001   0.4041451   0.2855019  )
       217           N   tau( 217) = (   0.7000001   0.4041451   0.6114777  )
       218           N   tau( 218) = (   0.7000001   0.4041451   0.9374535  )
       219           N   tau( 219) = (   0.6000001   0.5773502   0.2855019  )
       220           N   tau( 220) = (   0.6000001   0.5773502   0.6114777  )
       221           N   tau( 221) = (   0.6000001   0.5773502   0.9374535  )
       222           N   tau( 222) = (   0.5000001   0.7505553   0.2855019  )
       223           N   tau( 223) = (   0.5000001   0.7505553   0.6114777  )
       224           N   tau( 224) = (   0.5000001   0.7505553   0.9374535  )
       225           N   tau( 225) = (  -0.0000001   0.1154701   0.1225140  )
       226           N   tau( 226) = (  -0.0000001   0.1154701   0.4484898  )
       227           N   tau( 227) = (  -0.0000001   0.1154701   0.7744656  )
       228           N   tau( 228) = (  -0.1000001   0.2886752   0.1225140  )
       229           N   tau( 229) = (  -0.1000001   0.2886752   0.4484898  )
       230           N   tau( 230) = (  -0.1000001   0.2886752   0.7744656  )
       231           N   tau( 231) = (  -0.2000001   0.4618803   0.1225140  )
       232           N   tau( 232) = (  -0.2000001   0.4618803   0.4484898  )
       233           N   tau( 233) = (  -0.2000001   0.4618803   0.7744656  )
       234           N   tau( 234) = (  -0.3000001   0.6350854   0.1225140  )
       235           N   tau( 235) = (  -0.3000001   0.6350854   0.4484898  )
       236           N   tau( 236) = (  -0.3000001   0.6350854   0.7744656  )
       237           N   tau( 237) = (  -0.4000001   0.8082905   0.1225140  )
       238           N   tau( 238) = (  -0.4000001   0.8082905   0.4484898  )
       239           N   tau( 239) = (  -0.4000001   0.8082905   0.7744656  )
       240           N   tau( 240) = (   0.1999999   0.1154701   0.1225140  )
       241           N   tau( 241) = (   0.1999999   0.1154701   0.4484898  )
       242           N   tau( 242) = (   0.1999999   0.1154701   0.7744656  )
       243           N   tau( 243) = (   0.0999999   0.2886752   0.1225140  )
       244           N   tau( 244) = (   0.0999999   0.2886752   0.4484898  )
       245           N   tau( 245) = (   0.0999999   0.2886752   0.7744656  )
       246           N   tau( 246) = (  -0.0000001   0.4618803   0.1225140  )
       247           N   tau( 247) = (  -0.0000001   0.4618803   0.4484898  )
       248           N   tau( 248) = (  -0.0000001   0.4618803   0.7744656  )
       249           N   tau( 249) = (  -0.1000001   0.6350854   0.1225140  )
       250           N   tau( 250) = (  -0.1000001   0.6350854   0.4484898  )
       251           N   tau( 251) = (  -0.1000001   0.6350854   0.7744656  )
       252           N   tau( 252) = (  -0.2000001   0.8082905   0.1225140  )
       253           N   tau( 253) = (  -0.2000001   0.8082905   0.4484898  )
       254           N   tau( 254) = (  -0.2000001   0.8082905   0.7744656  )
       255           N   tau( 255) = (   0.3999999   0.1154701   0.1225140  )
       256           N   tau( 256) = (   0.3999999   0.1154701   0.4484898  )
       257           N   tau( 257) = (   0.3999999   0.1154701   0.7744656  )
       258           N   tau( 258) = (   0.2999999   0.2886752   0.1225140  )
       259           N   tau( 259) = (   0.2999999   0.2886752   0.4484898  )
       260           N   tau( 260) = (   0.2999999   0.2886752   0.7744656  )
       261           N   tau( 261) = (   0.1999999   0.4618803   0.1225140  )
       262           N   tau( 262) = (   0.1999999   0.4618803   0.4484898  )
       263           N   tau( 263) = (   0.1999999   0.4618803   0.7744656  )
       264           N   tau( 264) = (   0.0999999   0.6350854   0.1225140  )
       265           N   tau( 265) = (   0.0999999   0.6350854   0.4484898  )
       266           N   tau( 266) = (   0.0999999   0.6350854   0.7744656  )
       267           N   tau( 267) = (  -0.0000001   0.8082905   0.1225140  )
       268           N   tau( 268) = (  -0.0000001   0.8082905   0.4484898  )
       269           N   tau( 269) = (  -0.0000001   0.8082905   0.7744656  )
       270           N   tau( 270) = (   0.5999999   0.1154701   0.1225140  )
       271           N   tau( 271) = (   0.5999999   0.1154701   0.4484898  )
       272           N   tau( 272) = (   0.5999999   0.1154701   0.7744656  )
       273           N   tau( 273) = (   0.4999999   0.2886752   0.1225140  )
       274           N   tau( 274) = (   0.4999999   0.2886752   0.4484898  )
       275           N   tau( 275) = (   0.4999999   0.2886752   0.7744656  )
       276           N   tau( 276) = (   0.3999999   0.4618803   0.1225140  )
       277           N   tau( 277) = (   0.3999999   0.4618803   0.4484898  )
       278           N   tau( 278) = (   0.3999999   0.4618803   0.7744656  )
       279           N   tau( 279) = (   0.2999999   0.6350854   0.1225140  )
       280           N   tau( 280) = (   0.2999999   0.6350854   0.4484898  )
       281           N   tau( 281) = (   0.2999999   0.6350854   0.7744656  )
       282           N   tau( 282) = (   0.1999999   0.8082905   0.1225140  )
       283           N   tau( 283) = (   0.1999999   0.8082905   0.4484898  )
       284           N   tau( 284) = (   0.1999999   0.8082905   0.7744656  )
       285           N   tau( 285) = (   0.7999999   0.1154701   0.1225140  )
       286           N   tau( 286) = (   0.7999999   0.1154701   0.4484898  )
       287           N   tau( 287) = (   0.7999999   0.1154701   0.7744656  )
       288           N   tau( 288) = (   0.6999999   0.2886752   0.1225140  )
       289           N   tau( 289) = (   0.6999999   0.2886752   0.4484898  )
       290           N   tau( 290) = (   0.6999999   0.2886752   0.7744656  )
       291           N   tau( 291) = (   0.5999999   0.4618803   0.1225140  )
       292           N   tau( 292) = (   0.5999999   0.4618803   0.4484898  )
       293           N   tau( 293) = (   0.5999999   0.4618803   0.7744656  )
       294           N   tau( 294) = (   0.4999999   0.6350854   0.1225140  )
       295           N   tau( 295) = (   0.4999999   0.6350854   0.4484898  )
       296           N   tau( 296) = (   0.4999999   0.6350854   0.7744656  )
       297           N   tau( 297) = (   0.3999999   0.8082905   0.1225140  )
       298           N   tau( 298) = (   0.3999999   0.8082905   0.4484898  )
       299           N   tau( 299) = (   0.3999999   0.8082905   0.7744656  )

   Crystallographic axes

     site n.     atom                  positions (cryst. coord.)
         1           Ga  tau(   1) = (  0.1333334  0.0666666  0.4997208  )
         2           Ga  tau(   2) = (  0.1333334  0.0666666  0.8330541  )
         3           Ga  tau(   3) = (  0.1333334  0.2666666  0.1663874  )
         4           Ga  tau(   4) = (  0.1333334  0.2666666  0.4997208  )
         5           Ga  tau(   5) = (  0.1333334  0.2666666  0.8330541  )
         6           Ga  tau(   6) = (  0.1333334  0.4666666  0.1663874  )
         7           Ga  tau(   7) = (  0.1333334  0.4666666  0.4997208  )
         8           Ga  tau(   8) = (  0.1333334  0.4666666  0.8330541  )
         9           Ga  tau(   9) = (  0.1333334  0.6666666  0.1663874  )
        10           Ga  tau(  10) = (  0.1333334  0.6666666  0.4997208  )
        11           Ga  tau(  11) = (  0.1333334  0.6666666  0.8330541  )
        12           Ga  tau(  12) = (  0.1333334  0.8666666  0.1663874  )
        13           Ga  tau(  13) = (  0.1333334  0.8666666  0.4997208  )
        14           Ga  tau(  14) = (  0.1333334  0.8666666  0.8330541  )
        15           Ga  tau(  15) = (  0.3333334  0.0666666  0.1663874  )
        16           Ga  tau(  16) = (  0.3333334  0.0666666  0.4997208  )
        17           Ga  tau(  17) = (  0.3333334  0.0666666  0.8330541  )
        18           Ga  tau(  18) = (  0.3333334  0.2666666  0.1663874  )
        19           Ga  tau(  19) = (  0.3333334  0.2666666  0.4997208  )
        20           Ga  tau(  20) = (  0.3333334  0.2666666  0.8330541  )
        21           Ga  tau(  21) = (  0.3333334  0.4666666  0.1663874  )
        22           Ga  tau(  22) = (  0.3333334  0.4666666  0.4997208  )
        23           Ga  tau(  23) = (  0.3333334  0.4666666  0.8330541  )
        24           Ga  tau(  24) = (  0.3333334  0.6666666  0.1663874  )
        25           Ga  tau(  25) = (  0.3333334  0.6666666  0.4997208  )
        26           Ga  tau(  26) = (  0.3333334  0.6666666  0.8330541  )
        27           Ga  tau(  27) = (  0.3333334  0.8666666  0.1663874  )
        28           Ga  tau(  28) = (  0.3333334  0.8666666  0.4997208  )
        29           Ga  tau(  29) = (  0.3333334  0.8666666  0.8330541  )
        30           Ga  tau(  30) = (  0.5333334  0.0666666  0.1663874  )
        31           Ga  tau(  31) = (  0.5333334  0.0666666  0.4997208  )
        32           Ga  tau(  32) = (  0.5333334  0.0666666  0.8330541  )
        33           Ga  tau(  33) = (  0.5333334  0.2666666  0.1663874  )
        34           Ga  tau(  34) = (  0.5333334  0.2666666  0.4997208  )
        35           Ga  tau(  35) = (  0.5333334  0.2666666  0.8330541  )
        36           Ga  tau(  36) = (  0.5333334  0.4666666  0.1663874  )
        37           Ga  tau(  37) = (  0.5333334  0.4666666  0.4997208  )
        38           Ga  tau(  38) = (  0.5333334  0.4666666  0.8330541  )
        39           Ga  tau(  39) = (  0.5333334  0.6666666  0.1663874  )
        40           Ga  tau(  40) = (  0.5333334  0.6666666  0.4997208  )
        41           Ga  tau(  41) = (  0.5333334  0.6666666  0.8330541  )
        42           Ga  tau(  42) = (  0.5333334  0.8666666  0.1663874  )
        43           Ga  tau(  43) = (  0.5333334  0.8666666  0.4997208  )
        44           Ga  tau(  44) = (  0.5333334  0.8666666  0.8330541  )
        45           Ga  tau(  45) = (  0.7333334  0.0666666  0.1663874  )
        46           Ga  tau(  46) = (  0.7333334  0.0666666  0.4997208  )
        47           Ga  tau(  47) = (  0.7333334  0.0666666  0.8330541  )
        48           Ga  tau(  48) = (  0.7333334  0.2666666  0.1663874  )
        49           Ga  tau(  49) = (  0.7333334  0.2666666  0.4997208  )
        50           Ga  tau(  50) = (  0.7333334  0.2666666  0.8330541  )
        51           Ga  tau(  51) = (  0.7333334  0.4666666  0.1663874  )
        52           Ga  tau(  52) = (  0.7333334  0.4666666  0.4997208  )
        53           Ga  tau(  53) = (  0.7333334  0.4666666  0.8330541  )
        54           Ga  tau(  54) = (  0.7333334  0.6666666  0.1663874  )
        55           Ga  tau(  55) = (  0.7333334  0.6666666  0.4997208  )
        56           Ga  tau(  56) = (  0.7333334  0.6666666  0.8330541  )
        57           Ga  tau(  57) = (  0.7333334  0.8666666  0.1663874  )
        58           Ga  tau(  58) = (  0.7333334  0.8666666  0.4997208  )
        59           Ga  tau(  59) = (  0.7333334  0.8666666  0.8330541  )
        60           Ga  tau(  60) = (  0.9333334  0.0666666  0.1663874  )
        61           Ga  tau(  61) = (  0.9333334  0.0666666  0.4997208  )
        62           Ga  tau(  62) = (  0.9333334  0.0666666  0.8330541  )
        63           Ga  tau(  63) = (  0.9333334  0.2666666  0.1663874  )
        64           Ga  tau(  64) = (  0.9333334  0.2666666  0.4997208  )
        65           Ga  tau(  65) = (  0.9333334  0.2666666  0.8330541  )
        66           Ga  tau(  66) = (  0.9333334  0.4666666  0.1663874  )
        67           Ga  tau(  67) = (  0.9333334  0.4666666  0.4997208  )
        68           Ga  tau(  68) = (  0.9333334  0.4666666  0.8330541  )
        69           Ga  tau(  69) = (  0.9333334  0.6666666  0.1663874  )
        70           Ga  tau(  70) = (  0.9333334  0.6666666  0.4997208  )
        71           Ga  tau(  71) = (  0.9333334  0.6666666  0.8330541  )
        72           Ga  tau(  72) = (  0.9333334  0.8666666  0.1663874  )
        73           Ga  tau(  73) = (  0.9333334  0.8666666  0.4997208  )
        74           Ga  tau(  74) = (  0.9333334  0.8666666  0.8330541  )
        75           Ga  tau(  75) = (  0.0666666  0.1333334  0.3330541  )
        76           Ga  tau(  76) = (  0.0666666  0.1333334  0.6663874  )
        77           Ga  tau(  77) = (  0.0666666  0.1333334  0.9997208  )
        78           Ga  tau(  78) = (  0.0666666  0.3333334  0.3330541  )
        79           Ga  tau(  79) = (  0.0666666  0.3333334  0.6663874  )
        80           Ga  tau(  80) = (  0.0666666  0.3333334  0.9997208  )
        81           Ga  tau(  81) = (  0.0666666  0.5333334  0.3330541  )
        82           Ga  tau(  82) = (  0.0666666  0.5333334  0.6663874  )
        83           Ga  tau(  83) = (  0.0666666  0.5333334  0.9997208  )
        84           Ga  tau(  84) = (  0.0666666  0.7333334  0.3330541  )
        85           Ga  tau(  85) = (  0.0666666  0.7333334  0.6663874  )
        86           Ga  tau(  86) = (  0.0666666  0.7333334  0.9997208  )
        87           Ga  tau(  87) = (  0.0666666  0.9333334  0.3330541  )
        88           Ga  tau(  88) = (  0.0666666  0.9333334  0.6663874  )
        89           Ga  tau(  89) = (  0.0666666  0.9333334  0.9997208  )
        90           Ga  tau(  90) = (  0.2666666  0.1333334  0.3330541  )
        91           Ga  tau(  91) = (  0.2666666  0.1333334  0.6663874  )
        92           Ga  tau(  92) = (  0.2666666  0.1333334  0.9997208  )
        93           Ga  tau(  93) = (  0.2666666  0.3333334  0.3330541  )
        94           Ga  tau(  94) = (  0.2666666  0.3333334  0.6663874  )
        95           Ga  tau(  95) = (  0.2666666  0.3333334  0.9997208  )
        96           Ga  tau(  96) = (  0.2666666  0.5333334  0.3330541  )
        97           Ga  tau(  97) = (  0.2666666  0.5333334  0.6663874  )
        98           Ga  tau(  98) = (  0.2666666  0.5333334  0.9997208  )
        99           Ga  tau(  99) = (  0.2666666  0.7333334  0.3330541  )
       100           Ga  tau( 100) = (  0.2666666  0.7333334  0.6663874  )
       101           Ga  tau( 101) = (  0.2666666  0.7333334  0.9997208  )
       102           Ga  tau( 102) = (  0.2666666  0.9333334  0.3330541  )
       103           Ga  tau( 103) = (  0.2666666  0.9333334  0.6663874  )
       104           Ga  tau( 104) = (  0.2666666  0.9333334  0.9997208  )
       105           Ga  tau( 105) = (  0.4666666  0.1333334  0.3330541  )
       106           Ga  tau( 106) = (  0.4666666  0.1333334  0.6663874  )
       107           Ga  tau( 107) = (  0.4666666  0.1333334  0.9997208  )
       108           Ga  tau( 108) = (  0.4666666  0.3333334  0.3330541  )
       109           Ga  tau( 109) = (  0.4666666  0.3333334  0.6663874  )
       110           Ga  tau( 110) = (  0.4666666  0.3333334  0.9997208  )
       111           Ga  tau( 111) = (  0.4666666  0.5333334  0.3330541  )
       112           Ga  tau( 112) = (  0.4666666  0.5333334  0.6663874  )
       113           Ga  tau( 113) = (  0.4666666  0.5333334  0.9997208  )
       114           Ga  tau( 114) = (  0.4666666  0.7333334  0.3330541  )
       115           Ga  tau( 115) = (  0.4666666  0.7333334  0.6663874  )
       116           Ga  tau( 116) = (  0.4666666  0.7333334  0.9997208  )
       117           Ga  tau( 117) = (  0.4666666  0.9333334  0.3330541  )
       118           Ga  tau( 118) = (  0.4666666  0.9333334  0.6663874  )
       119           Ga  tau( 119) = (  0.4666666  0.9333334  0.9997208  )
       120           Ga  tau( 120) = (  0.6666666  0.1333334  0.3330541  )
       121           Ga  tau( 121) = (  0.6666666  0.1333334  0.6663874  )
       122           Ga  tau( 122) = (  0.6666666  0.1333334  0.9997208  )
       123           Ga  tau( 123) = (  0.6666666  0.3333334  0.3330541  )
       124           Ga  tau( 124) = (  0.6666666  0.3333334  0.6663874  )
       125           Ga  tau( 125) = (  0.6666666  0.3333334  0.9997208  )
       126           Ga  tau( 126) = (  0.6666666  0.5333334  0.3330541  )
       127           Ga  tau( 127) = (  0.6666666  0.5333334  0.6663874  )
       128           Ga  tau( 128) = (  0.6666666  0.5333334  0.9997208  )
       129           Ga  tau( 129) = (  0.6666666  0.7333334  0.3330541  )
       130           Ga  tau( 130) = (  0.6666666  0.7333334  0.6663874  )
       131           Ga  tau( 131) = (  0.6666666  0.7333334  0.9997208  )
       132           Ga  tau( 132) = (  0.6666666  0.9333334  0.3330541  )
       133           Ga  tau( 133) = (  0.6666666  0.9333334  0.6663874  )
       134           Ga  tau( 134) = (  0.6666666  0.9333334  0.9997208  )
       135           Ga  tau( 135) = (  0.8666666  0.1333334  0.3330541  )
       136           Ga  tau( 136) = (  0.8666666  0.1333334  0.6663874  )
       137           Ga  tau( 137) = (  0.8666666  0.1333334  0.9997208  )
       138           Ga  tau( 138) = (  0.8666666  0.3333334  0.3330541  )
       139           Ga  tau( 139) = (  0.8666666  0.3333334  0.6663874  )
       140           Ga  tau( 140) = (  0.8666666  0.3333334  0.9997208  )
       141           Ga  tau( 141) = (  0.8666666  0.5333334  0.3330541  )
       142           Ga  tau( 142) = (  0.8666666  0.5333334  0.6663874  )
       143           Ga  tau( 143) = (  0.8666666  0.5333334  0.9997208  )
       144           Ga  tau( 144) = (  0.8666666  0.7333334  0.3330541  )
       145           Ga  tau( 145) = (  0.8666666  0.7333334  0.6663874  )
       146           Ga  tau( 146) = (  0.8666666  0.7333334  0.9997208  )
       147           Ga  tau( 147) = (  0.8666666  0.9333334  0.3330541  )
       148           Ga  tau( 148) = (  0.8666666  0.9333334  0.6663874  )
       149           Ga  tau( 149) = (  0.8666666  0.9333334  0.9997208  )
       150           N   tau( 150) = (  0.1333334  0.0666666  0.2919459  )
       151           N   tau( 151) = (  0.1333334  0.0666666  0.6252792  )
       152           N   tau( 152) = (  0.1333334  0.0666666  0.9586126  )
       153           N   tau( 153) = (  0.1333334  0.2666666  0.2919459  )
       154           N   tau( 154) = (  0.1333334  0.2666666  0.6252792  )
       155           N   tau( 155) = (  0.1333334  0.2666666  0.9586126  )
       156           N   tau( 156) = (  0.1333334  0.4666666  0.2919459  )
       157           N   tau( 157) = (  0.1333334  0.4666666  0.6252792  )
       158           N   tau( 158) = (  0.1333334  0.4666666  0.9586126  )
       159           N   tau( 159) = (  0.1333334  0.6666666  0.2919459  )
       160           N   tau( 160) = (  0.1333334  0.6666666  0.6252792  )
       161           N   tau( 161) = (  0.1333334  0.6666666  0.9586126  )
       162           N   tau( 162) = (  0.1333334  0.8666666  0.2919459  )
       163           N   tau( 163) = (  0.1333334  0.8666666  0.6252792  )
       164           N   tau( 164) = (  0.1333334  0.8666666  0.9586126  )
       165           N   tau( 165) = (  0.3333334  0.0666666  0.2919459  )
       166           N   tau( 166) = (  0.3333334  0.0666666  0.6252792  )
       167           N   tau( 167) = (  0.3333334  0.0666666  0.9586126  )
       168           N   tau( 168) = (  0.3333334  0.2666666  0.2919459  )
       169           N   tau( 169) = (  0.3333334  0.2666666  0.6252792  )
       170           N   tau( 170) = (  0.3333334  0.2666666  0.9586126  )
       171           N   tau( 171) = (  0.3333334  0.4666666  0.2919459  )
       172           N   tau( 172) = (  0.3333334  0.4666666  0.6252792  )
       173           N   tau( 173) = (  0.3333334  0.4666666  0.9586126  )
       174           N   tau( 174) = (  0.3333334  0.6666666  0.2919459  )
       175           N   tau( 175) = (  0.3333334  0.6666666  0.6252792  )
       176           N   tau( 176) = (  0.3333334  0.6666666  0.9586126  )
       177           N   tau( 177) = (  0.3333334  0.8666666  0.2919459  )
       178           N   tau( 178) = (  0.3333334  0.8666666  0.6252792  )
       179           N   tau( 179) = (  0.3333334  0.8666666  0.9586126  )
       180           N   tau( 180) = (  0.5333334  0.0666666  0.2919459  )
       181           N   tau( 181) = (  0.5333334  0.0666666  0.6252792  )
       182           N   tau( 182) = (  0.5333334  0.0666666  0.9586126  )
       183           N   tau( 183) = (  0.5333334  0.2666666  0.2919459  )
       184           N   tau( 184) = (  0.5333334  0.2666666  0.6252792  )
       185           N   tau( 185) = (  0.5333334  0.2666666  0.9586126  )
       186           N   tau( 186) = (  0.5333334  0.4666666  0.2919459  )
       187           N   tau( 187) = (  0.5333334  0.4666666  0.6252792  )
       188           N   tau( 188) = (  0.5333334  0.4666666  0.9586126  )
       189           N   tau( 189) = (  0.5333334  0.6666666  0.2919459  )
       190           N   tau( 190) = (  0.5333334  0.6666666  0.6252792  )
       191           N   tau( 191) = (  0.5333334  0.6666666  0.9586126  )
       192           N   tau( 192) = (  0.5333334  0.8666666  0.2919459  )
       193           N   tau( 193) = (  0.5333334  0.8666666  0.6252792  )
       194           N   tau( 194) = (  0.5333334  0.8666666  0.9586126  )
       195           N   tau( 195) = (  0.7333334  0.0666666  0.2919459  )
       196           N   tau( 196) = (  0.7333334  0.0666666  0.6252792  )
       197           N   tau( 197) = (  0.7333334  0.0666666  0.9586126  )
       198           N   tau( 198) = (  0.7333334  0.2666666  0.2919459  )
       199           N   tau( 199) = (  0.7333334  0.2666666  0.6252792  )
       200           N   tau( 200) = (  0.7333334  0.2666666  0.9586126  )
       201           N   tau( 201) = (  0.7333334  0.4666666  0.2919459  )
       202           N   tau( 202) = (  0.7333334  0.4666666  0.6252792  )
       203           N   tau( 203) = (  0.7333334  0.4666666  0.9586126  )
       204           N   tau( 204) = (  0.7333334  0.6666666  0.2919459  )
       205           N   tau( 205) = (  0.7333334  0.6666666  0.6252792  )
       206           N   tau( 206) = (  0.7333334  0.6666666  0.9586126  )
       207           N   tau( 207) = (  0.7333334  0.8666666  0.2919459  )
       208           N   tau( 208) = (  0.7333334  0.8666666  0.6252792  )
       209           N   tau( 209) = (  0.7333334  0.8666666  0.9586126  )
       210           N   tau( 210) = (  0.9333334  0.0666666  0.2919459  )
       211           N   tau( 211) = (  0.9333334  0.0666666  0.6252792  )
       212           N   tau( 212) = (  0.9333334  0.0666666  0.9586126  )
       213           N   tau( 213) = (  0.9333334  0.2666666  0.2919459  )
       214           N   tau( 214) = (  0.9333334  0.2666666  0.6252792  )
       215           N   tau( 215) = (  0.9333334  0.2666666  0.9586126  )
       216           N   tau( 216) = (  0.9333334  0.4666666  0.2919459  )
       217           N   tau( 217) = (  0.9333334  0.4666666  0.6252792  )
       218           N   tau( 218) = (  0.9333334  0.4666666  0.9586126  )
       219           N   tau( 219) = (  0.9333334  0.6666666  0.2919459  )
       220           N   tau( 220) = (  0.9333334  0.6666666  0.6252792  )
       221           N   tau( 221) = (  0.9333334  0.6666666  0.9586126  )
       222           N   tau( 222) = (  0.9333334  0.8666666  0.2919459  )
       223           N   tau( 223) = (  0.9333334  0.8666666  0.6252792  )
       224           N   tau( 224) = (  0.9333334  0.8666666  0.9586126  )
       225           N   tau( 225) = (  0.0666666  0.1333334  0.1252792  )
       226           N   tau( 226) = (  0.0666666  0.1333334  0.4586126  )
       227           N   tau( 227) = (  0.0666666  0.1333334  0.7919459  )
       228           N   tau( 228) = (  0.0666666  0.3333334  0.1252792  )
       229           N   tau( 229) = (  0.0666666  0.3333334  0.4586126  )
       230           N   tau( 230) = (  0.0666666  0.3333334  0.7919459  )
       231           N   tau( 231) = (  0.0666666  0.5333334  0.1252792  )
       232           N   tau( 232) = (  0.0666666  0.5333334  0.4586126  )
       233           N   tau( 233) = (  0.0666666  0.5333334  0.7919459  )
       234           N   tau( 234) = (  0.0666666  0.7333334  0.1252792  )
       235           N   tau( 235) = (  0.0666666  0.7333334  0.4586126  )
       236           N   tau( 236) = (  0.0666666  0.7333334  0.7919459  )
       237           N   tau( 237) = (  0.0666666  0.9333334  0.1252792  )
       238           N   tau( 238) = (  0.0666666  0.9333334  0.4586126  )
       239           N   tau( 239) = (  0.0666666  0.9333334  0.7919459  )
       240           N   tau( 240) = (  0.2666666  0.1333334  0.1252792  )
       241           N   tau( 241) = (  0.2666666  0.1333334  0.4586126  )
       242           N   tau( 242) = (  0.2666666  0.1333334  0.7919459  )
       243           N   tau( 243) = (  0.2666666  0.3333334  0.1252792  )
       244           N   tau( 244) = (  0.2666666  0.3333334  0.4586126  )
       245           N   tau( 245) = (  0.2666666  0.3333334  0.7919459  )
       246           N   tau( 246) = (  0.2666666  0.5333334  0.1252792  )
       247           N   tau( 247) = (  0.2666666  0.5333334  0.4586126  )
       248           N   tau( 248) = (  0.2666666  0.5333334  0.7919459  )
       249           N   tau( 249) = (  0.2666666  0.7333334  0.1252792  )
       250           N   tau( 250) = (  0.2666666  0.7333334  0.4586126  )
       251           N   tau( 251) = (  0.2666666  0.7333334  0.7919459  )
       252           N   tau( 252) = (  0.2666666  0.9333334  0.1252792  )
       253           N   tau( 253) = (  0.2666666  0.9333334  0.4586126  )
       254           N   tau( 254) = (  0.2666666  0.9333334  0.7919459  )
       255           N   tau( 255) = (  0.4666666  0.1333334  0.1252792  )
       256           N   tau( 256) = (  0.4666666  0.1333334  0.4586126  )
       257           N   tau( 257) = (  0.4666666  0.1333334  0.7919459  )
       258           N   tau( 258) = (  0.4666666  0.3333334  0.1252792  )
       259           N   tau( 259) = (  0.4666666  0.3333334  0.4586126  )
       260           N   tau( 260) = (  0.4666666  0.3333334  0.7919459  )
       261           N   tau( 261) = (  0.4666666  0.5333334  0.1252792  )
       262           N   tau( 262) = (  0.4666666  0.5333334  0.4586126  )
       263           N   tau( 263) = (  0.4666666  0.5333334  0.7919459  )
       264           N   tau( 264) = (  0.4666666  0.7333334  0.1252792  )
       265           N   tau( 265) = (  0.4666666  0.7333334  0.4586126  )
       266           N   tau( 266) = (  0.4666666  0.7333334  0.7919459  )
       267           N   tau( 267) = (  0.4666666  0.9333334  0.1252792  )
       268           N   tau( 268) = (  0.4666666  0.9333334  0.4586126  )
       269           N   tau( 269) = (  0.4666666  0.9333334  0.7919459  )
       270           N   tau( 270) = (  0.6666666  0.1333334  0.1252792  )
       271           N   tau( 271) = (  0.6666666  0.1333334  0.4586126  )
       272           N   tau( 272) = (  0.6666666  0.1333334  0.7919459  )
       273           N   tau( 273) = (  0.6666666  0.3333334  0.1252792  )
       274           N   tau( 274) = (  0.6666666  0.3333334  0.4586126  )
       275           N   tau( 275) = (  0.6666666  0.3333334  0.7919459  )
       276           N   tau( 276) = (  0.6666666  0.5333334  0.1252792  )
       277           N   tau( 277) = (  0.6666666  0.5333334  0.4586126  )
       278           N   tau( 278) = (  0.6666666  0.5333334  0.7919459  )
       279           N   tau( 279) = (  0.6666666  0.7333334  0.1252792  )
       280           N   tau( 280) = (  0.6666666  0.7333334  0.4586126  )
       281           N   tau( 281) = (  0.6666666  0.7333334  0.7919459  )
       282           N   tau( 282) = (  0.6666666  0.9333334  0.1252792  )
       283           N   tau( 283) = (  0.6666666  0.9333334  0.4586126  )
       284           N   tau( 284) = (  0.6666666  0.9333334  0.7919459  )
       285           N   tau( 285) = (  0.8666666  0.1333334  0.1252792  )
       286           N   tau( 286) = (  0.8666666  0.1333334  0.4586126  )
       287           N   tau( 287) = (  0.8666666  0.1333334  0.7919459  )
       288           N   tau( 288) = (  0.8666666  0.3333334  0.1252792  )
       289           N   tau( 289) = (  0.8666666  0.3333334  0.4586126  )
       290           N   tau( 290) = (  0.8666666  0.3333334  0.7919459  )
       291           N   tau( 291) = (  0.8666666  0.5333334  0.1252792  )
       292           N   tau( 292) = (  0.8666666  0.5333334  0.4586126  )
       293           N   tau( 293) = (  0.8666666  0.5333334  0.7919459  )
       294           N   tau( 294) = (  0.8666666  0.7333334  0.1252792  )
       295           N   tau( 295) = (  0.8666666  0.7333334  0.4586126  )
       296           N   tau( 296) = (  0.8666666  0.7333334  0.7919459  )
       297           N   tau( 297) = (  0.8666666  0.9333334  0.1252792  )
       298           N   tau( 298) = (  0.8666666  0.9333334  0.4586126  )
       299           N   tau( 299) = (  0.8666666  0.9333334  0.7919459  )

     number of k points=     6  Gaussian smearing, width (Ry)=  0.0100
                       cart. coord. in units 2pi/alat
        k(    1) = (   0.0000000   0.0000000   0.0000000), wk =   0.2500000
        k(    2) = (   0.0000000   0.0000000  -0.5112854), wk =   0.2500000
        k(    3) = (   0.0000000  -0.5773503   0.0000000), wk =   0.5000000
        k(    4) = (   0.0000000  -0.5773503  -0.5112854), wk =   0.5000000
        k(    5) = (  -0.5000000  -0.2886751   0.0000000), wk =   0.2500000
        k(    6) = (  -0.5000000  -0.2886751  -0.5112854), wk =   0.2500000

                       cryst. coord.
        k(    1) = (   0.0000000   0.0000000   0.0000000), wk =   0.2500000
        k(    2) = (   0.0000000   0.0000000  -0.5000000), wk =   0.2500000
        k(    3) = (   0.0000000  -0.5000000   0.0000000), wk =   0.5000000
        k(    4) = (   0.0000000  -0.5000000  -0.5000000), wk =   0.5000000
        k(    5) = (  -0.5000000  -0.0000000   0.0000000), wk =   0.2500000
        k(    6) = (  -0.5000000  -0.0000000  -0.5000000), wk =   0.2500000

     Dense  grid:  2698283 G-vectors     FFT dimensions: ( 192, 192, 180)

     Smooth grid:  1930731 G-vectors     FFT dimensions: ( 180, 180, 160)

     Dynamical RAM for                 wfc:      99.05 MB

     Dynamical RAM for     wfc (w. buffer):     297.16 MB

     Dynamical RAM for           str. fact:       1.37 MB

     Dynamical RAM for           local pot:       0.00 MB

     Dynamical RAM for          nlocal pot:     238.24 MB

     Dynamical RAM for                qrad:       3.00 MB

     Dynamical RAM for          rho,v,vnew:       4.59 MB

     Dynamical RAM for               rhoin:       1.53 MB

     Dynamical RAM for            rho*nmix:      10.98 MB

     Dynamical RAM for           G-vectors:       2.82 MB

     Dynamical RAM for          h,s,v(r/c):    1907.96 MB

     Dynamical RAM for          <psi|beta>:      95.60 MB

     Dynamical RAM for                 psi:     396.21 MB

     Dynamical RAM for                hpsi:     396.21 MB

     Dynamical RAM for                spsi:     396.21 MB

     Dynamical RAM for      wfcinit/wfcrot:     257.74 MB

     Dynamical RAM for           addusdens:      77.31 MB

     Dynamical RAM for          addusforce:     145.94 MB

     Dynamical RAM for         addusstress:      46.20 MB

     Estimated static dynamical RAM per process >     554.99 MB

     Estimated max dynamical RAM per process >       3.67 GB

     Estimated total dynamical RAM >     659.33 GB

     Atomic positions and unit cell read from directory:
     ./GaN.save/
     Atomic positions from file used, from input discarded
 

     Check: negative core charge=   -0.000003

     The initial density is read from file :
     ./GaN.save/charge-density


     starting charge    2688.0000, renormalised to    2689.0000


     %%%%%%%%%%%%%%%%%%%%%%%%%%%%%%%%%%%%%%%%%%%%%%%%%%%%%%%%%%%%%%%%%%%%%%%%
     %                                                                      %
     % You are using vdW-DF, which was implemented by the Thonhauser group. %
     % Please cite the following two papers that made this development      %
     % possible and the two reviews that describe the various versions:     %
     %                                                                      %
     %   T. Thonhauser et al., PRL 115, 136402 (2015).                      %
     %   T. Thonhauser et al., PRB 76, 125112 (2007).                       %
     %   K. Berland et al., Rep. Prog. Phys. 78, 066501 (2015).             %
     %   D.C. Langreth et al., J. Phys.: Condens. Matter 21, 084203 (2009). %
     %                                                                      %
     % If you are calculating stress with vdW-DF, please also cite:         %
     %                                                                      %
     %   R. Sabatini et al., J. Phys.: Condens. Matter 24, 424209 (2012).   %
     %                                                                      %
     %%%%%%%%%%%%%%%%%%%%%%%%%%%%%%%%%%%%%%%%%%%%%%%%%%%%%%%%%%%%%%%%%%%%%%%%

     %%%%%%%%%%%%%%%%%%%%%%%%%%%%%%%%%%%%%%%%%%%%%%%%%%%%%%%%%%%%%%%%%%%%%%%%
     %                                                                      %
     %  vdW-DF NEWS:                                                        %
     %                                                                      %
     %  * vdW-DF3 is now available. DOI: 10.1021/acs.jctc.0c00471           %
     %    use with input_dft = 'vdW-DF3-opt1' or 'vdW-DF3-opt2'             %
     %                                                                      %
     %  * Unscreened and range-separated vdW-DF hybrid functionals          %
     %    DOI: 10.1063/1.4986522 and 10.1088/1361-648X/ac2ad2               %
     %    use with input_dft = 'vdW-DF-cx0' (etc) and 'vdW-DF-ahcx'         %
     %                                                                      %
     %%%%%%%%%%%%%%%%%%%%%%%%%%%%%%%%%%%%%%%%%%%%%%%%%%%%%%%%%%%%%%%%%%%%%%%%


     Carrying out vdW-DF run using the following parameters:
     Nqs    =  20  Npoints =  1024  r_max =  100.000
     q_mesh =  0.00001000  0.04494208  0.09755937  0.15916263
               0.23128650  0.31572767  0.41458969  0.53033537
               0.66584808  0.82450364  1.01025438  1.22772762
               1.48234092  1.78043706  2.12944203  2.53805004
               3.01644009  3.57652955  4.23227104  5.00000000


     -----------------------------------------------
     Non-local corr. energy    =      81.33970667 Ry
     -----------------------------------------------

     Wavefunctions not found or not readable, recomputing them from scratch
     Starting wfcs are 1941 randomized atomic wfcs
     Checking if some PAW data can be deallocated... 
       PAW data deallocated on  105 nodes for type:  1
       PAW data deallocated on   74 nodes for type:  2

     total cpu time spent up to now is      127.9 secs

     Self-consistent Calculation

     iteration #  1     ecut=    70.00 Ry     beta= 0.70
     Davidson diagonalization with overlap

---- Real-time Memory Report at c_bands before calling an iterative solver
          1264 MiB given to the printing process from OS
             0 MiB allocation reported by mallinfo(arena+hblkhd)
       1934866 MiB available memory on the node where the printing process lives
------------------
     ethr =  1.00E-05,  avg # of iterations = 30.5


     -----------------------------------------------
     Non-local corr. energy    =      81.23803503 Ry
     -----------------------------------------------


     total cpu time spent up to now is     4151.1 secs

     total energy              =  -46558.26891124 Ry
     estimated scf accuracy    <       0.11458925 Ry

     iteration #  2     ecut=    70.00 Ry     beta= 0.70
     Davidson diagonalization with overlap

---- Real-time Memory Report at c_bands before calling an iterative solver
          3692 MiB given to the printing process from OS
             0 MiB allocation reported by mallinfo(arena+hblkhd)
       1937212 MiB available memory on the node where the printing process lives
------------------
     ethr =  4.26E-06,  avg # of iterations = 13.3


     -----------------------------------------------
     Non-local corr. energy    =      81.24524253 Ry
     -----------------------------------------------


     total cpu time spent up to now is     7146.2 secs

     total energy              =  -46558.07452929 Ry
     estimated scf accuracy    <       1.80026951 Ry

     iteration #  3     ecut=    70.00 Ry     beta= 0.70
     Davidson diagonalization with overlap

---- Real-time Memory Report at c_bands before calling an iterative solver
          3692 MiB given to the printing process from OS
             0 MiB allocation reported by mallinfo(arena+hblkhd)
       1930120 MiB available memory on the node where the printing process lives
------------------
     ethr =  4.26E-06,  avg # of iterations = 12.8


     -----------------------------------------------
     Non-local corr. energy    =      81.26493553 Ry
     -----------------------------------------------


     total cpu time spent up to now is     9745.9 secs

     total energy              =  -46558.33910210 Ry
     estimated scf accuracy    <       0.04724146 Ry

     iteration #  4     ecut=    70.00 Ry     beta= 0.70
     Davidson diagonalization with overlap

---- Real-time Memory Report at c_bands before calling an iterative solver
          3692 MiB given to the printing process from OS
             0 MiB allocation reported by mallinfo(arena+hblkhd)
       1928017 MiB available memory on the node where the printing process lives
------------------
     ethr =  1.76E-06,  avg # of iterations = 16.3


     -----------------------------------------------
     Non-local corr. energy    =      81.27926815 Ry
     -----------------------------------------------


     total cpu time spent up to now is    11561.9 secs

     total energy              =  -46558.33533573 Ry
     estimated scf accuracy    <       0.26020847 Ry

     iteration #  5     ecut=    70.00 Ry     beta= 0.70
     Davidson diagonalization with overlap

---- Real-time Memory Report at c_bands before calling an iterative solver
          3692 MiB given to the printing process from OS
             0 MiB allocation reported by mallinfo(arena+hblkhd)
       1923035 MiB available memory on the node where the printing process lives
------------------
     ethr =  1.76E-06,  avg # of iterations = 14.5


     -----------------------------------------------
     Non-local corr. energy    =      81.28472524 Ry
     -----------------------------------------------


     total cpu time spent up to now is    13046.8 secs

     total energy              =  -46558.34476081 Ry
     estimated scf accuracy    <       0.00994508 Ry

     iteration #  6     ecut=    70.00 Ry     beta= 0.70
     Davidson diagonalization with overlap

---- Real-time Memory Report at c_bands before calling an iterative solver
          3692 MiB given to the printing process from OS
             0 MiB allocation reported by mallinfo(arena+hblkhd)
       1930094 MiB available memory on the node where the printing process lives
------------------
     ethr =  3.70E-07,  avg # of iterations = 15.7


     -----------------------------------------------
     Non-local corr. energy    =      81.29469349 Ry
     -----------------------------------------------


     total cpu time spent up to now is    14564.6 secs

     total energy              =  -46558.34450178 Ry
     estimated scf accuracy    <       0.01720454 Ry

     iteration #  7     ecut=    70.00 Ry     beta= 0.70
     Davidson diagonalization with overlap

---- Real-time Memory Report at c_bands before calling an iterative solver
          3692 MiB given to the printing process from OS
             0 MiB allocation reported by mallinfo(arena+hblkhd)
       1923180 MiB available memory on the node where the printing process lives
------------------
     ethr =  3.70E-07,  avg # of iterations = 12.8


     -----------------------------------------------
     Non-local corr. energy    =      81.31777152 Ry
     -----------------------------------------------


     total cpu time spent up to now is    15794.0 secs

     total energy              =  -46558.34461020 Ry
     estimated scf accuracy    <       0.00270940 Ry

     iteration #  8     ecut=    70.00 Ry     beta= 0.70
     Davidson diagonalization with overlap

---- Real-time Memory Report at c_bands before calling an iterative solver
          3692 MiB given to the printing process from OS
             0 MiB allocation reported by mallinfo(arena+hblkhd)
       1922528 MiB available memory on the node where the printing process lives
------------------
     ethr =  1.01E-07,  avg # of iterations = 15.5


     -----------------------------------------------
     Non-local corr. energy    =      81.31960527 Ry
     -----------------------------------------------


     total cpu time spent up to now is    18121.1 secs

     total energy              =  -46558.34499657 Ry
     estimated scf accuracy    <       0.00107152 Ry

     iteration #  9     ecut=    70.00 Ry     beta= 0.70
     Davidson diagonalization with overlap

---- Real-time Memory Report at c_bands before calling an iterative solver
          3692 MiB given to the printing process from OS
             0 MiB allocation reported by mallinfo(arena+hblkhd)
       1921235 MiB available memory on the node where the printing process lives
------------------
     ethr =  3.98E-08,  avg # of iterations = 14.0


     -----------------------------------------------
     Non-local corr. energy    =      81.31712559 Ry
     -----------------------------------------------


     total cpu time spent up to now is    19816.7 secs

     total energy              =  -46558.34507341 Ry
     estimated scf accuracy    <       0.00050151 Ry

     iteration # 10     ecut=    70.00 Ry     beta= 0.70
     Davidson diagonalization with overlap

---- Real-time Memory Report at c_bands before calling an iterative solver
          3692 MiB given to the printing process from OS
             0 MiB allocation reported by mallinfo(arena+hblkhd)
       1923487 MiB available memory on the node where the printing process lives
------------------
     ethr =  1.87E-08,  avg # of iterations = 14.3


     -----------------------------------------------
     Non-local corr. energy    =      81.31144163 Ry
     -----------------------------------------------


     total cpu time spent up to now is    21200.0 secs

     total energy              =  -46558.34506569 Ry
     estimated scf accuracy    <       0.00016023 Ry

     iteration # 11     ecut=    70.00 Ry     beta= 0.70
     Davidson diagonalization with overlap

---- Real-time Memory Report at c_bands before calling an iterative solver
          3692 MiB given to the printing process from OS
             0 MiB allocation reported by mallinfo(arena+hblkhd)
       1925079 MiB available memory on the node where the printing process lives
------------------
     ethr =  5.96E-09,  avg # of iterations = 13.7


     -----------------------------------------------
     Non-local corr. energy    =      81.31051836 Ry
     -----------------------------------------------


     total cpu time spent up to now is    22738.9 secs

     total energy              =  -46558.34508760 Ry
     estimated scf accuracy    <       0.00002372 Ry

     iteration # 12     ecut=    70.00 Ry     beta= 0.70
     Davidson diagonalization with overlap

---- Real-time Memory Report at c_bands before calling an iterative solver
          3692 MiB given to the printing process from OS
             0 MiB allocation reported by mallinfo(arena+hblkhd)
       1924109 MiB available memory on the node where the printing process lives
------------------
     ethr =  8.82E-10,  avg # of iterations =  5.8


     -----------------------------------------------
     Non-local corr. energy    =      81.30806790 Ry
     -----------------------------------------------


     total cpu time spent up to now is    23933.4 secs

     total energy              =  -46558.34510364 Ry
     estimated scf accuracy    <       0.00002301 Ry

     iteration # 13     ecut=    70.00 Ry     beta= 0.70
     Davidson diagonalization with overlap

---- Real-time Memory Report at c_bands before calling an iterative solver
          3692 MiB given to the printing process from OS
             0 MiB allocation reported by mallinfo(arena+hblkhd)
       1922588 MiB available memory on the node where the printing process lives
------------------
     ethr =  8.56E-10,  avg # of iterations =  9.3


     -----------------------------------------------
     Non-local corr. energy    =      81.30877222 Ry
     -----------------------------------------------


     total cpu time spent up to now is    24900.8 secs

     total energy              =  -46558.34510482 Ry
     estimated scf accuracy    <       0.00000108 Ry

     iteration # 14     ecut=    70.00 Ry     beta= 0.70
     Davidson diagonalization with overlap

---- Real-time Memory Report at c_bands before calling an iterative solver
          3692 MiB given to the printing process from OS
             0 MiB allocation reported by mallinfo(arena+hblkhd)
       1922097 MiB available memory on the node where the printing process lives
------------------
     c_bands:  3 eigenvalues not converged
     c_bands:  3 eigenvalues not converged
     ethr =  4.00E-11,  avg # of iterations = 40.0


     -----------------------------------------------
     Non-local corr. energy    =      81.30888830 Ry
     -----------------------------------------------


     total cpu time spent up to now is    27927.9 secs

     total energy              =  -46558.34510546 Ry
     estimated scf accuracy    <       0.00000099 Ry

     iteration # 15     ecut=    70.00 Ry     beta= 0.70
     Davidson diagonalization with overlap

---- Real-time Memory Report at c_bands before calling an iterative solver
          3692 MiB given to the printing process from OS
             0 MiB allocation reported by mallinfo(arena+hblkhd)
       1923337 MiB available memory on the node where the printing process lives
------------------
     c_bands:  1 eigenvalues not converged
     ethr =  3.66E-11,  avg # of iterations = 14.2


     -----------------------------------------------
     Non-local corr. energy    =      81.30913463 Ry
     -----------------------------------------------


     total cpu time spent up to now is    30134.6 secs

     total energy              =  -46558.34510557 Ry
     estimated scf accuracy    <       0.00000026 Ry

     iteration # 16     ecut=    70.00 Ry     beta= 0.70
     Davidson diagonalization with overlap

---- Real-time Memory Report at c_bands before calling an iterative solver
          3692 MiB given to the printing process from OS
             0 MiB allocation reported by mallinfo(arena+hblkhd)
       1921126 MiB available memory on the node where the printing process lives
------------------
     c_bands:  1 eigenvalues not converged
     ethr =  9.69E-12,  avg # of iterations = 14.5


     -----------------------------------------------
     Non-local corr. energy    =      81.30909061 Ry
     -----------------------------------------------


     total cpu time spent up to now is    32159.0 secs

     total energy              =  -46558.34510557 Ry
     estimated scf accuracy    <       0.00000042 Ry

     iteration # 17     ecut=    70.00 Ry     beta= 0.70
     Davidson diagonalization with overlap

---- Real-time Memory Report at c_bands before calling an iterative solver
          3692 MiB given to the printing process from OS
             0 MiB allocation reported by mallinfo(arena+hblkhd)
       1924005 MiB available memory on the node where the printing process lives
------------------
     ethr =  9.69E-12,  avg # of iterations = 14.3


     -----------------------------------------------
     Non-local corr. energy    =      81.30916596 Ry
     -----------------------------------------------


     total cpu time spent up to now is    33534.5 secs

     End of self-consistent calculation

          k = 0.0000 0.0000 0.0000 (241213 PWs)   bands (ev):

    -6.9835  -6.7926  -6.7786  -6.7728  -6.7727  -6.7577  -6.7301  -6.7300
    -6.6831  -6.6550  -6.6386  -6.6362  -6.6360  -6.6152  -6.6150  -6.5990
    -6.5980  -6.5964  -6.5960  -6.5936  -6.5912  -6.5798  -6.5794  -6.5780
    -6.5696  -6.5685  -6.5683  -6.5634  -6.5616  -6.5608  -6.5606  -6.5594
    -6.5461  -6.5460  -6.5450  -6.5428  -6.5422  -6.5394  -6.5349  -6.5345
    -6.5343  -6.5338  -6.5315  -6.5286  -6.5279  -6.5264  -6.5236  -6.5231
    -6.5223  -6.5194  -6.5193  -6.5176  -6.5176  -6.5167  -6.5164  -6.5162
    -6.5135  -6.5096  -6.5084  -6.5082  -6.5060  -6.5053  -6.5024  -6.5017
    -6.4988  -6.4982  -6.4941  -6.4940  -6.4834  -6.4828  -6.4815  -6.4807
    -6.4788  -6.4787  -6.4750  -6.4750  -6.4714  -6.4699  -6.4697  -6.4646
    -6.4626  -6.4625  -6.4608  -6.4608  -6.4603  -6.4603  -6.4535  -6.4532
    -6.4526  -6.4513  -6.4509  -6.4492  -6.4487  -6.4431  -6.4429  -6.4420
    -6.4407  -6.4400  -6.4400  -6.4342  -6.4338  -6.4335  -6.4330  -6.4306
    -6.4281  -6.4277  -6.4191  -6.4160  -6.4157  -6.4148  -6.4130  -6.4125
    -6.4119  -6.4057  -6.4054  -6.4007  -6.3996  -6.3990  -6.3860  -6.3845
    -6.3833  -6.3537  -6.3170  -6.3168  -6.3129  -6.2736  -6.2733  -6.2727
    -6.2694  -6.2689  -6.2490  -6.2475  -6.2462  -6.2385  -6.2344  -6.2337
    -6.2203  -6.2139  -6.2135  -6.2030  -6.2022  -6.1928  -6.1923  -6.1843
    -6.1842  -6.0766  -5.6337  -5.6154  -5.6028  -5.6024  -5.4509  -5.4509
    -5.4385  -5.4346  -5.4345  -5.4316  -5.4304  -5.4273  -5.4273  -5.4246
    -5.4240  -5.4240  -5.4216  -5.4216  -5.4202  -5.4202  -5.4155  -5.4153
    -5.4145  -5.4145  -5.4109  -5.4085  -5.4085  -5.4084  -5.4055  -5.4055
    -5.4016  -5.4010  -5.4010  -5.3984  -5.3983  -5.3978  -5.3962  -5.3962
    -5.3943  -5.3943  -5.3925  -5.3924  -5.3924  -5.3902  -5.3870  -5.3837
    -5.3836  -5.3825  -5.3822  -5.3805  -5.3805  -5.3794  -5.3790  -5.3790
    -5.3768  -5.3766  -5.3766  -5.3730  -5.3729  -5.3729  -5.3710  -5.3692
    -5.3692  -5.3691  -5.3681  -5.3681  -5.3654  -5.3654  -5.3644  -5.3639
    -5.3639  -5.3633  -5.3633  -5.3627  -5.3618  -5.3617  -5.3606  -5.3606
    -5.3579  -5.3564  -5.3563  -5.3536  -5.3535  -5.3534  -5.3523  -5.3522
    -5.3521  -5.3512  -5.3494  -5.3491  -5.3490  -5.3470  -5.3469  -5.3460
    -5.3458  -5.3457  -5.3448  -5.3436  -5.3436  -5.3421  -5.3420  -5.3419
    -5.3403  -5.3399  -5.3399  -5.3386  -5.3382  -5.3375  -5.3375  -5.3333
    -5.3333  -5.3331  -5.3302  -5.3301  -5.3300  -5.3278  -5.3278  -5.3272
    -5.3260  -5.3245  -5.3245  -5.3237  -5.3237  -5.3235  -5.3229  -5.3217
    -5.3217  -5.3210  -5.3197  -5.3196  -5.3189  -5.3189  -5.3165  -5.3153
    -5.3152  -5.3146  -5.3135  -5.3135  -5.3114  -5.3114  -5.3110  -5.3110
    -5.3107  -5.3069  -5.3065  -5.3064  -5.3060  -5.3060  -5.3058  -5.3041
    -5.3025  -5.3025  -5.3014  -5.3014  -5.3000  -5.2994  -5.2994  -5.2977
    -5.2975  -5.2975  -5.2972  -5.2972  -5.2954  -5.2949  -5.2949  -5.2926
    -5.2925  -5.2915  -5.2908  -5.2897  -5.2897  -5.2886  -5.2885  -5.2883
    -5.2876  -5.2871  -5.2871  -5.2853  -5.2850  -5.2840  -5.2840  -5.2829
    -5.2828  -5.2828  -5.2823  -5.2822  -5.2809  -5.2809  -5.2793  -5.2791
    -5.2791  -5.2775  -5.2758  -5.2758  -5.2757  -5.2741  -5.2740  -5.2728
    -5.2721  -5.2720  -5.2715  -5.2705  -5.2704  -5.2692  -5.2691  -5.2690
    -5.2679  -5.2669  -5.2663  -5.2659  -5.2659  -5.2651  -5.2640  -5.2634
    -5.2633  -5.2629  -5.2629  -5.2624  -5.2620  -5.2620  -5.2618  -5.2617
    -5.2613  -5.2589  -5.2589  -5.2580  -5.2580  -5.2561  -5.2561  -5.2553
    -5.2542  -5.2542  -5.2533  -5.2531  -5.2531  -5.2523  -5.2523  -5.2513
    -5.2505  -5.2496  -5.2495  -5.2494  -5.2494  -5.2484  -5.2476  -5.2463
    -5.2462  -5.2462  -5.2460  -5.2460  -5.2443  -5.2438  -5.2438  -5.2422
    -5.2421  -5.2411  -5.2411  -5.2405  -5.2383  -5.2383  -5.2374  -5.2366
    -5.2366  -5.2362  -5.2361  -5.2343  -5.2343  -5.2338  -5.2338  -5.2333
    -5.2319  -5.2310  -5.2300  -5.2299  -5.2290  -5.2290  -5.2289  -5.2286
    -5.2286  -5.2278  -5.2278  -5.2271  -5.2261  -5.2261  -5.2258  -5.2258
    -5.2254  -5.2240  -5.2240  -5.2238  -5.2220  -5.2219  -5.2216  -5.2205
    -5.2194  -5.2194  -5.2193  -5.2183  -5.2182  -5.2166  -5.2166  -5.2162
    -5.2158  -5.2158  -5.2157  -5.2155  -5.2143  -5.2130  -5.2129  -5.2116
    -5.2115  -5.2106  -5.2105  -5.2104  -5.2095  -5.2095  -5.2080  -5.2060
    -5.2060  -5.2054  -5.2052  -5.2049  -5.2049  -5.2027  -5.2027  -5.2026
    -5.2020  -5.2020  -5.2012  -5.2004  -5.1992  -5.1992  -5.1985  -5.1969
    -5.1965  -5.1965  -5.1950  -5.1947  -5.1946  -5.1937  -5.1933  -5.1933
    -5.1927  -5.1925  -5.1913  -5.1913  -5.1896  -5.1892  -5.1892  -5.1889
    -5.1888  -5.1871  -5.1871  -5.1866  -5.1861  -5.1849  -5.1848  -5.1843
    -5.1839  -5.1836  -5.1829  -5.1829  -5.1828  -5.1827  -5.1810  -5.1810
    -5.1796  -5.1796  -5.1793  -5.1786  -5.1786  -5.1777  -5.1777  -5.1773
    -5.1770  -5.1759  -5.1759  -5.1743  -5.1743  -5.1735  -5.1735  -5.1735
    -5.1725  -5.1717  -5.1713  -5.1708  -5.1708  -5.1702  -5.1702  -5.1665
    -5.1664  -5.1655  -5.1653  -5.1652  -5.1630  -5.1615  -5.1612  -5.1612
    -5.1589  -5.1588  -5.1588  -5.1573  -5.1561  -5.1561  -5.1559  -5.1558
    -5.1555  -5.1555  -5.1543  -5.1543  -5.1531  -5.1531  -5.1511  -5.1510
    -5.1505  -5.1501  -5.1500  -5.1495  -5.1489  -5.1487  -5.1487  -5.1475
    -5.1475  -5.1462  -5.1449  -5.1449  -5.1438  -5.1424  -5.1422  -5.1421
    -5.1408  -5.1408  -5.1400  -5.1399  -5.1392  -5.1392  -5.1360  -5.1357
    -5.1356  -5.1347  -5.1322  -5.1321  -5.1318  -5.1311  -5.1311  -5.1310
    -5.1295  -5.1295  -5.1281  -5.1270  -5.1251  -5.1251  -5.1243  -5.1243
    -5.1235  -5.1221  -5.1220  -5.1211  -5.1178  -5.1164  -5.1163  -5.1147
    -5.1147  -5.1107  -5.1107  -5.1104  -5.1104  -5.1098  -5.1098  -5.1095
    -5.1056  -5.1047  -5.1047  -5.1044  -5.1032  -5.1026  -5.1026  -5.1001
    -5.0980  -5.0979  -5.0977  -5.0976  -5.0931  -5.0931  -5.0924  -5.0920
    -5.0920  -5.0902  -5.0892  -5.0891  -5.0890  -5.0880  -5.0879  -5.0867
    -5.0866  -5.0842  -5.0842  -5.0821  -5.0820  -5.0804  -5.0803  -5.0772
    -5.0765  -5.0764  -5.0724  -5.0718  -5.0717  -5.0699  -5.0672  -5.0672
    -5.0641  -5.0633  -5.0633  -5.0633  -5.0628  -5.0627  -5.0607  -5.0588
    -5.0569  -5.0567  -5.0565  -5.0550  -5.0549  -5.0527  -5.0513  -5.0481
    -5.0481  -5.0454  -5.0454  -5.0443  -5.0438  -5.0438  -5.0395  -5.0394
    -5.0367  -5.0366  -5.0352  -5.0352  -5.0304  -5.0250  -5.0246  -5.0207
    -5.0205  -5.0154  -5.0152  -5.0119  -5.0119  -5.0065  -5.0024  -4.9977
    -4.9977  -4.9931  -4.9931  -4.9696  -4.9686  -4.9686  -4.9601  -4.9601
    -4.9409  -4.9192  -4.9187  -4.9186  -4.9134  -4.9123  -4.9123  -4.8983
    -4.8902  -4.8901  -4.8554  -4.8554  -4.8388  -4.8361  -4.8360  -4.8248
    -4.8034  -4.8006  -4.8005  -4.7826  -4.7825  -4.7737  -4.7724  -4.7723
    -4.7524  -4.7523  -4.7366  -4.7364  -4.7295  -4.7259  -4.7143  -4.7143
    -4.7082  -4.7080  -4.6923  -4.6895  -4.6894  -4.6777  -4.6757  -4.6589
    -4.6588  -4.6545  -4.6495  -4.6495  -4.6412  -4.6397  -4.6396  -4.6382
    -4.6337  -4.6336  -4.6205  -4.6171  -4.6169  -4.6094  -4.6078  -4.6078
    -4.6069  -4.6068  -4.5958  -4.5956  -4.5897  -4.5858  -4.4246  -4.4244
    -4.4199  -4.4197  -4.4170  -4.4080  -4.3789  -4.3703  -4.1785  -4.1782
    -4.1763  -4.1761  -4.1690  -4.1688  -4.1578  -4.1576  -4.1466  -4.1465
    -4.1445  -4.1329  -4.1222  -4.1044  -4.1043  -4.1026  -4.0967  -4.0888
    -4.0887  -4.0724  -4.0723  -4.0626  -4.0626  -4.0602  -4.0001  -4.0000
    -3.9867  -3.9867  -3.9248  -3.9130  -3.9003  -3.9001  -3.8988  -3.8734
    -3.8734  -3.8712  -3.8521  -3.8520  -3.8410  -3.8108  -3.8107  -3.6618
    -3.6023  -3.5238  -3.5237  -3.4983  -3.4981  -3.4922  -3.4908  -3.4907
    -3.4898  -3.4897  -3.4889  -3.4888  -3.4878  -3.4854  -3.4819  -3.4779
    -3.4777  -3.4736  -3.4650  -3.4168  -3.4167  -3.4021  -3.3988  -3.3881
    -3.3879  -3.3776  -3.3746  -3.3745  -3.3680  -3.3680  -3.3605  -3.3518
    -3.3421  -3.3421  -3.3324  -3.3322  -3.3241  -3.3239  -3.3012  -3.2907
[...]
Ga           -4.8679571487       12.1797294389       13.2177862480
Ga            4.8359276699        0.9362191626        2.6413283424
Ga            4.8653420997        0.9396654760        7.9236571879
Ga            4.8631586060        0.9353001114       13.2176311082
Ga            3.2287546871        3.7199244254        2.6413283424
Ga            3.2464464969        3.7436749121        7.9236571879
Ga            3.2415742334        3.7439666334       13.2176311082
Ga            1.6224541552        6.5522242201        2.6396739289
Ga            1.6225470171        6.5545818464        7.9275314027
Ga            1.6224881134        6.5528146029       13.2180519426
Ga            0.0006573814        9.3665825786        2.6390870419
Ga           -0.0004306068        9.3659544283        7.9277660548
Ga           -0.0009036952        9.3656812906       13.2174736760
Ga           -1.6257500655       12.1782789638        2.6396739289
Ga           -1.6236618703       12.1771805714        7.9275314027
Ga           -1.6252217999       12.1780131811       13.2180519426
Ga            8.1116861343        0.9356389486        2.6401769087
Ga            8.1108295573        0.9375744211        7.9266807297
Ga            8.1089515540        0.9374361688       13.2196358817
Ga            6.4787336219        3.7404971298        2.6330798419
Ga            6.4882799453        3.7460087022        7.9252255318
Ga            6.4865054808        3.7449842146       13.2209946471
Ga            4.8661314393        6.5571045794        2.6401769087
Ga            4.8673793191        6.5553950256        7.9266807297
Ga            4.8663205876        6.5538377532       13.2196358817
Ga            3.2442585183        9.3663888178        2.6392719778
Ga            3.2453849796        9.3658881216        7.9279636952
Ga            3.2458047317        9.3656275514       13.2176139363
Ga            1.6222901482       12.1757204434        2.6392719778
Ga            1.6224197632       12.1769463356        7.9279636952
Ga            1.6224039788       12.1774401367       13.2176139363
Ga           11.3545730529        0.9351227657        2.6403281240
Ga           11.3562482899        0.9372684654        7.9267513339
Ga           11.3582442055        0.9370628216       13.2195217936
Ga            9.7332670996        3.7455531421        2.6373286549
Ga            9.7333417480        3.7470324729        7.9266883120
Ga            9.7333314242        3.7464994600       13.2181875653
Ga            8.1103789958        6.5564777929        2.6373286549
Ga            8.1116974580        6.5558027749        7.9266883120
Ga            8.1112306935        6.5560603406       13.2181875653
Ga            6.4871278711        9.3657851239        2.6403281240
Ga            6.4898237200        9.3661630719        7.9267513339
Ga            6.4906435850        9.3679944074       13.2195217936
Ga            4.8697352807       12.1777460145        2.6398932753
Ga            4.8681757581       12.1768456238        7.9277913521
Ga            4.8697395518       12.1777484804       13.2181230289
Ga           14.6297974550        0.9365480363        2.6413891366
Ga           14.6029324805        0.9397722607        7.9237102178
Ga           14.6047457067        0.9356271234       13.2176102217
Ga           12.9892021354        3.7404411522        2.6329171666
Ga           12.9798102142        3.7462333370        7.9251117884
Ga           12.9816186619        3.7451657792       13.2209714789
Ga           11.3570410840        6.5569892563        2.6371074301
Ga           11.3558538597        6.5563038121        7.9264723385
Ga           11.3563019581        6.5565625218       13.2180362030
Ga            9.7339194006        9.3787562419        2.6329171666
Ga            9.7342396193        9.3677265071        7.9251117884
Ga            9.7342193109        9.3698264478       13.2209714789
Ga            8.1259743927       12.2015000240        2.6413891366
Ga            8.1153341656       12.1766221614        7.9237102178
Ga            8.1126509846       12.1802650300       13.2176102217
Ga            0.0177835005        1.8626861972        5.2528738140
Ga            0.0040131292        1.8705861144       10.5630057024
Ga            0.0103487162        1.8670979462       15.9008809066
Ga           -1.6192625048        4.6815931318        5.2792655438
Ga           -1.6212948300        4.6817474525       10.5721659907
Ga           -1.6116323238        4.6744042936       15.8704209608
Ga           -3.2436511077        7.4934843489        5.2830842691
Ga           -3.2440298481        7.4932656830       10.5731660154
Ga           -3.2432570652        7.4937118495       15.8621508322
Ga           -4.8666260329       10.3061917531        5.2792655438
Ga           -4.8675085498       10.3043545474       10.5721659907
Ga           -4.8690366589       10.3163941028       15.8704209608
Ga           -6.4893480463       13.1333686482        5.2528738140
Ga           -6.4893917029       13.1174931982       10.5630057024
Ga           -6.4892447518       13.1247240616       15.9008809066
Ga            3.2268446006        1.8630222776        5.2533653068
Ga            3.2407195142        1.8710329628       10.5632896843
Ga            3.2343612368        1.8673620096       15.9006469286
Ga            1.6227919647        4.6773169172        5.2838488713
Ga            1.6228862301        4.6818961742       10.5694368074
Ga            1.6230067851        4.6768096063       15.8628677208
Ga            0.0008697419        7.4926641940        5.2834529970
Ga            0.0001745066        7.4925621914       10.5728144019
Ga            0.0002446153        7.4914894431       15.8618081797
Ga           -1.6221009578       10.3037319052        5.2834529970
Ga           -1.6225369123       10.3031808150       10.5728144019
Ga           -1.6234308853       10.3037779051       15.8618081797
Ga           -3.2493021086       13.1160313916        5.2838488713
Ga           -3.2452892230       13.1138233993       10.5694368074
Ga           -3.2496340424       13.1164710870       15.8628677208
Ga            6.4858331636        1.8707363787        5.2790985237
Ga            6.4871136324        1.8724644886       10.5723566768
Ga            6.4764750657        1.8682169804       15.8708181081
Ga            4.8630194896        4.6815321135        5.2790985237
Ga            4.8651563111        4.6817769771       10.5723566768
Ga            4.8561585777        4.6746874622       15.8708181081
Ga            3.2439505451        7.4921368733        5.2832541726
Ga            3.2446382697        7.4920491676       10.5726264887
Ga            3.2445707452        7.4909858762       15.8615642553
Ga            1.6219359777       10.3026323624        5.2832102160
Ga            1.6219487838       10.3026397560       10.5727306156
Ga            1.6219156327       10.3026206162       15.8604066739
Ga           -0.0010172294       13.1125859278        5.2832541726
Ga           -0.0007493225       13.1132253676       10.5726264887
Ga           -0.0017039220       13.1136985353       15.8615642553
Ga            9.7337155833        1.8718836943        5.2832500167
Ga            9.7337732666        1.8723462660       10.5732520261
Ga            9.7337171189        1.8714025833       15.8622633404
Ga            8.1091730121        4.6818359004        5.2800593459
Ga            8.1101938968        4.6824253085       10.5727773235
Ga            8.1075802439        4.6809163153       15.8624106827
Ga            6.4879543038        7.4937071398        5.2832500167
Ga            6.4883837444        7.4935258091       10.5732520261
Ga            6.4875384173        7.4939490251       15.8622633404
Ga            4.8673344804       10.3034223510        5.2833791166
Ga            4.8678465590       10.3029301310       10.5726196986
Ga            4.8686398472       10.3035332693       15.8615070559
Ga            3.2453193793       13.1128349169        5.2833791166
Ga            3.2451491435       13.1135245000       10.5726196986
Ga            3.2460681207       13.1139099386       15.8615070559
Ga           12.9812571117        1.8710563607        5.2796027155
Ga           12.9801062755        1.8727446001       10.5724644765
Ga           12.9906738679        1.8678669260       15.8706057924
Ga           11.3583122030        4.6819354434        5.2802061710
Ga           11.3574323613        4.6824997338       10.5730012550
Ga           11.3599272993        4.6809452135       15.8626248821
Ga            9.7338288143        7.4956232088        5.2802061710
Ga            9.7338775833        7.4945790984       10.5730012550
Ga            9.7337787982        7.4975170383       15.8626248821
Ga            8.1110085761       10.3065742700        5.2796027155
Ga            8.1118952163       10.3047334969       10.5724644765
Ga            8.1129548228       10.3163241374       15.8706057924
Ga            6.4944225536       13.1157637988        5.2839132983
Ga            6.4906789605       13.1136024343       10.5694855112
Ga            6.4949004416       13.1160397075       15.8627567936
N             1.6223936766        0.9366879549        4.8207686969
N             1.6223532634        0.9366646224        9.9057168760
N             1.6221993598        0.9365757661       15.1974572608
N            -0.0032305224        3.7594715858        4.6393327188
N            -0.0009813440        3.7503304347        9.9194080052
N             0.0038380714        3.7525081312       15.1926732186
N            -1.6227886349        6.5615742778        4.6352311774
N            -1.6225896265        6.5575288462        9.9195815183
N            -1.6223193420        6.5564432269       15.2069506948
N            -3.2402740730        9.3631412372        4.6352311774
N            -3.2436780153        9.3653362993        9.9195815183
N            -3.2444830470        9.3661131822       15.2069506948
N            -4.8571871320       12.1667710515        4.6393327188
N            -4.8639790119       12.1732894727        9.9194080052
N            -4.8596833636       12.1763743606       15.1926732186
N             4.8794677866        0.9329191210        4.6390073473
N             4.8707238973        0.9357542978        9.9191393389
N             4.8703966617        0.9306843831       15.1925148129
N             3.2476668256        3.7592812933        4.6390073473
N             3.2457502161        3.7502912747        9.9191393389
N             3.2411959234        3.7525428377       15.1925148129
N             1.6223548736        6.5608428166        4.6349437217
N             1.6223634616        6.5592501848        9.9192995085
N             1.6223669973        6.5606862342       15.2059692026
N             0.0012844071        9.3669445920        4.6330577403
N             0.0003594470        9.3664105660        9.9199375759
N             0.0003902914        9.3664283741       15.2066235266
N            -1.6183357828       12.1738836852        4.6349437217
N            -1.6197107484       12.1746874385        9.9192995085
N            -1.6184653253       12.1739724758       15.2059692026
N             8.1161250152        0.9345381388        4.6351028604
N             8.1125389817        0.9364256307        9.9194491207
N             8.1115601776        0.9367140130       15.2068026622
N             6.4910283465        3.7475954923        4.6319848023
N             6.4900961370        3.7470572809        9.9185223861
N             6.4877462247        3.7457005584       15.2082175541
N             4.8673975505        6.5614991679        4.6351028604
N             4.8672391497        6.5574498258        9.9194491207
N             4.8669994941        6.5564579655       15.2068026622
N             3.2433153683        9.3668793344        4.6332120621
N             3.2442702490        9.3663662363        9.9200977682
N             3.2441644684        9.3664006890       15.2067421921
N             1.6222433729       12.1746583933        4.6332120621
N             1.6222764573       12.1757418932        9.9200977682
N             1.6222534039       12.1756330582       15.2067421921
N            11.3511556803        0.9345791652        4.6352063862
N            11.3548431102        0.9364973859        9.9194986306
N            11.3556652434        0.9366254715       15.2066816231
N             9.7337023086        3.7464162700        4.6323904499
N             9.7337611480        3.7466639862        9.9198131253
N             9.7337233805        3.7467851424       15.2072742670
N             8.1113440910        6.5564231309        4.6323904499
N             8.1115880392        6.5563502293        9.9198131253
N             8.1116740799        6.5562569436       15.2072742670
N             6.4849484129        9.3630973927        4.6352063862
N             6.4884533558        9.3653316902        9.9194986306
N             6.4889753477        9.3659796357       15.2066816231
N             4.8629224054       12.1738125992        4.6351362537
N             4.8644801178       12.1747119448        9.9195104405
N             4.8631801477       12.1739614067       15.2060331016
N            14.5875458216        0.9328687415        4.6390610243
N            14.5966753075        0.9356834957        9.9191615101
N            14.5970786029        0.9305392701       15.1925243559
N            12.9762049246        3.7475565979        4.6318510639
N            12.9771722068        3.7470517326        9.9183981168
N            12.9796670226        3.7454906016       15.2081875363
N            11.3560043889        6.5563907201        4.6322028662
N            11.3558335307        6.5562920751        9.9196354451
N            11.3556478468        6.5561848704       15.2071544527
N             9.7335829520        9.3639426044        4.6318510639
N             9.7336293669        9.3650327280        9.9183981168
N             9.7335247957        9.3679738673       15.2081875363
N             8.1016622132       12.1667486836        4.6390610243
N             8.1086646048       12.1732476732        9.9191615101
N             8.1044112225       12.1761690500       15.1925243559
N            -0.1547995105        1.9622053885        1.9343329741
N            -0.0175627438        1.8835159060        7.2877657399
N            -0.0002791662        1.8734729495       12.5529596120
N            -1.6291837169        4.7056569694        1.9915371420
N            -1.6260965232        4.6880841128        7.2763501714
N            -1.6236423401        4.6840162973       12.5604526047
N            -3.2438796542        7.4933523975        1.9874821889
N            -3.2450342043        7.4926858177        7.2771970232
N            -3.2442249120        7.4931530628       12.5632895393
N            -4.8507467442       10.2855678125        1.9915371420
N            -4.8644216876       10.2970278290        7.2763501714
N            -4.8667174276       10.3011871217       12.5604526047
N            -6.4894534040       12.9341477808        1.9343329741
N            -6.4889821115       13.0923430483        7.2877657399
N            -6.4890377781       13.1123325439       12.5529596120
N             3.3985193538        1.9621387426        1.9340182362
N             3.2622726150        1.8834766513        7.2881398643
N             3.2447441909        1.8733566109       12.5532611786
N             1.6217320326        4.6974046431        1.9873427369
N             1.6223208873        4.6877366062        7.2805350536
N             1.6222023711        4.6860456814       12.5554544014
N             0.0011637179        7.4986015619        1.9881857668
N            -0.0001524248        7.4946040726        7.2776170902
N            -0.0001781327        7.4935262687       12.5626453915
N            -1.6168120584       10.3010178119        1.9881857668
N            -1.6209320571       10.3018767436        7.2776170902
N            -1.6218783165       10.3023933819       12.5626453915
N            -3.2324355937       13.1050696005        1.9873427369
N            -3.2405139319       13.1104135821        7.2805350536
N            -3.2420375739       13.1111564065       12.5554544014
N             6.5115592687        1.8677054929        1.9918677557
N             6.4954797735        1.8743098151        7.2762838354
N             6.4906103401        1.8741098726       12.5605892699
N             4.8732577180        4.7053270170        1.9918677557
N             4.8709374812        4.6880996045        7.2762838354
N             4.8683296092        4.6839825228       12.5605892699
N             3.2433796128        7.4986047483        1.9879640275
N             3.2448597301        7.4946736677        7.2774361838
N             3.2448625444        7.4935726321       12.5624803434
N             1.6223738064       10.3028851429        1.9870013113
N             1.6224061967       10.3029038435        7.2770138692
N             1.6223796860       10.3028885376       12.5631238115
N             0.0042986485       13.1088575483        1.9879640275
N             0.0016342915       13.1121049078        7.2774361838
N             0.0006821739       13.1126578629       12.5624803434
N             9.7334025192        1.8725039693        1.9875699611
N             9.7336339953        1.8739291952        7.2773378348
N             9.7336586177        1.8730041420       12.5633403814
N             8.1122128762        4.6835909668        1.9880180897
N             8.1125117596        4.6837635272        7.2754915257
N             8.1111935650        4.6830024672       12.5633281240
N             6.4883349457        7.4931258808        1.9875699611
N             6.4896849656        7.4926137321        7.2773378348
N             6.4888961572        7.4930975822       12.5633403814
N             4.8611070139       10.3009142946        1.9879272977
N             4.8654821409       10.3018685122        7.2775216205
N             4.8664075533       10.3024128479       12.5624529505
N             3.2400336054       13.1086958010        1.9879272977
N             3.2430475457       13.1120076633        7.2775216205
N             3.2439816604       13.1125369261       12.5624529505
N            12.9548659735        1.8676532340        1.9917570692
N            12.9720222975        1.8742397380        7.2766432087
N            12.9768149534        1.8741094661       12.5607042188
N            11.3550917454        4.6835825580        1.9882417468
N            11.3548849393        4.6837895845        7.2756221901
N            11.3562060552        4.6830263150       12.5635281023
N             9.7336450286        7.4920106535        1.9882417468
N             9.7337209157        7.4917280409        7.2756221901
N             9.7337204630        7.4932537955       12.5635281023
N             8.0948658129       10.2854204372        1.9917570692
N             8.1091480547       10.2969849976        7.2766432087
N             8.1114315639       10.3012006954       12.5607042188
N             6.4761745925       13.1052283335        1.9872684103
N             6.4851530595       13.1104120538        7.2805765424
N             6.4866637762       13.1112842666       12.5554892131



     Writing config-only to output data dir ./GaN.save/
     NEW-OLD atomic charge density approx. for the potential

     Check: negative core charge=   -0.000003


     -----------------------------------------------
     Non-local corr. energy    =      81.30957894 Ry
     -----------------------------------------------


     total cpu time spent up to now is    34971.4 secs

     Self-consistent Calculation

     iteration #  1     ecut=    70.00 Ry     beta= 0.70
     Davidson diagonalization with overlap

---- Real-time Memory Report at c_bands before calling an iterative solver
          3692 MiB given to the printing process from OS
             0 MiB allocation reported by mallinfo(arena+hblkhd)
       1929197 MiB available memory on the node where the printing process lives
------------------
