
     Program PWSCF v.7.1 starts on 24Apr2024 at  7:49:39 

     This program is part of the open-source Quantum ESPRESSO suite
     for quantum simulation of materials; please cite
         "P. Giannozzi et al., J. Phys.:Condens. Matter 21 395502 (2009);
         "P. Giannozzi et al., J. Phys.:Condens. Matter 29 465901 (2017);
         "P. Giannozzi et al., J. Chem. Phys. 152 154105 (2020);
          URL http://www.quantum-espresso.org", 
     in publications or presentations arising from this work. More details at
     http://www.quantum-espresso.org/quote

     Parallel version (MPI & OpenMP), running on     128 processor cores
     Number of MPI processes:               128
     Threads/MPI process:                     1

     MPI processes distributed on     1 nodes
     2013585 MiB available memory on the printing compute node when the environment starts
 
     Reading input from espresso.pwi
Warning: card &CELL ignored
Warning: card    CELL_DYNAMICS    = 'BFGS' ignored
Warning: card / ignored

     Current dimensions of program PWSCF are:
     Max number of different atomic species (ntypx) = 10
     Max number of k-points (npk) =  40000
     Max angular momentum in pseudopotentials (lmaxx) =  4
     file Ga.pbe-dn-kjpaw_psl.1.0.0.UPF: wavefunction(s)  4S renormalized
     file N.pbe-n-kjpaw_psl.1.0.0.UPF: wavefunction(s)  2S renormalized

     **************************************************************************
     Initializing libbeef V0.1.2 with the BEEF-vdW functional.
     Citation: Wellendorff et al., PRB 85, 235149 (2012).
     **************************************************************************


     IMPORTANT: XC functional enforced from input :
     Exchange-correlation= BEEF-VDW
                           (   1   4  43  14   2   0   0)
     Any further DFT definition will be discarded
     Please, verify this is what you really want

 
     K-points division:     npool     =       2
     R & G space division:  proc/nbgrp/npool/nimage =      64
     Subspace diagonalization in iterative solution of the eigenvalue problem:
     a serial algorithm will be used

 
     Parallelization info
     --------------------
     sticks:   dense  smooth     PW     G-vecs:    dense   smooth      PW
     Min         354     283     73                42160    30167    3987
     Max         356     285     74                42163    30170    3996
     Sum       22693   18145   4705              2698283  1930731  255309
 
     Using Slab Decomposition
 


     bravais-lattice index     =            4
     lattice parameter (alat)  =      30.6565  a.u.
     unit-cell volume          =   24400.9461 (a.u.)^3
     number of atoms/cell      =          299
     number of atomic types    =            2
     number of electrons       =      2690.00
     number of Kohn-Sham states=         1614
     kinetic-energy cutoff     =      70.0000  Ry
     charge density cutoff     =     350.0000  Ry
     scf convergence threshold =      1.0E-07
     mixing beta               =       0.7000
     number of iterations used =            8  plain     mixing
     energy convergence thresh.=      1.0E-04
     force convergence thresh. =      1.0E-03
     Exchange-correlation= BEEF-VDW
                           (   1   4  43  14   2   0   0)
     nstep                     =           50


     celldm(1)=  30.656540  celldm(2)=   0.000000  celldm(3)=   0.977927
     celldm(4)=   0.000000  celldm(5)=   0.000000  celldm(6)=   0.000000

     crystal axes: (cart. coord. in units of alat)
               a(1) = (   1.000000   0.000000   0.000000 )  
               a(2) = (  -0.500000   0.866025   0.000000 )  
               a(3) = (   0.000000   0.000000   0.977927 )  

     reciprocal axes: (cart. coord. in units 2 pi/alat)
               b(1) = (  1.000000  0.577350 -0.000000 )  
               b(2) = (  0.000000  1.154701  0.000000 )  
               b(3) = (  0.000000 -0.000000  1.022571 )  


     PseudoPot. # 1 for Ga read from file:
     //group///packages/espresso/pseudo/psl_1.0.0/pslibrary.1.0.0/pbe/PSEUDOPOTENTIALS/Ga.pbe-dn-kjpaw_psl.1.0.0.UPF
     MD5 check sum: cd2a01e492f15b435d17032472d8505c
     Pseudo is Projector augmented-wave + core cor, Zval = 13.0
     Generated using 'atomic' code by A. Dal Corso  v.7.1
     Shape of augmentation charge: PSQ
     Using radial grid of 1205 points,  6 beta functions with: 
                l(1) =   0
                l(2) =   0
                l(3) =   1
                l(4) =   1
                l(5) =   2
                l(6) =   2
     Q(r) pseudized with 0 coefficients 


     PseudoPot. # 2 for N  read from file:
     //group///packages/espresso/pseudo/psl_1.0.0/pslibrary.1.0.0/pbe/PSEUDOPOTENTIALS/N.pbe-n-kjpaw_psl.1.0.0.UPF
     MD5 check sum: f77f775694dac7e2c3fe1c82443d1a16
     Pseudo is Projector augmented-wave + core cor, Zval =  5.0
     Generated using 'atomic' code by A. Dal Corso  v.7.1
     Shape of augmentation charge: PSQ
     Using radial grid of 1085 points,  4 beta functions with: 
                l(1) =   0
                l(2) =   0
                l(3) =   1
                l(4) =   1
     Q(r) pseudized with 0 coefficients 


     atomic species   valence    mass     pseudopotential
        Ga            13.00    69.72300     Ga( 1.00)
        N              5.00    14.00700     N ( 1.00)

      2 Sym. Ops. (no inversion) found


                                    s                        frac. trans.

      isym =  1     identity                                     

 cryst.   s( 1) = (     1          0          0      )
                  (     0          1          0      )
                  (     0          0          1      )

 cart.    s( 1) = (  1.0000000  0.0000000  0.0000000 )
                  (  0.0000000  1.0000000  0.0000000 )
                  (  0.0000000  0.0000000  1.0000000 )


      isym =  2     inv. 180 deg rotation - cryst. axis [0,1,0]  

 cryst.   s( 2) = (     1          1          0      )
                  (     0         -1          0      )
                  (     0          0          1      )

 cart.    s( 2) = (  0.5000000  0.8660254  0.0000000 )
                  (  0.8660254 -0.5000000  0.0000000 )
                  (  0.0000000  0.0000000  1.0000000 )


     point group C_s (m)    
     there are  2 classes
     the character table:

       E     s    
A'     1.00  1.00
A''    1.00 -1.00

     the symmetry operations in each class and the name of the first element:

     E        1
          identity                                               
     s        2
          inv. 180 deg rotation - cryst. axis [0,1,0]            

   Cartesian axes

     site n.     atom                  positions (alat units)
         1           Ga  tau(   1) = (   0.1000001   0.0577350   0.4886906  )
         2           Ga  tau(   2) = (   0.1000001   0.0577350   0.8146665  )
         3           Ga  tau(   3) = (   0.0000001   0.2309401   0.1627148  )
         4           Ga  tau(   4) = (   0.0000001   0.2309401   0.4886906  )
         5           Ga  tau(   5) = (   0.0000001   0.2309401   0.8146665  )
         6           Ga  tau(   6) = (  -0.0999999   0.4041451   0.1627148  )
         7           Ga  tau(   7) = (  -0.0999999   0.4041451   0.4886906  )
         8           Ga  tau(   8) = (  -0.0999999   0.4041451   0.8146665  )
         9           Ga  tau(   9) = (  -0.1999999   0.5773502   0.1627148  )
        10           Ga  tau(  10) = (  -0.1999999   0.5773502   0.4886906  )
        11           Ga  tau(  11) = (  -0.1999999   0.5773502   0.8146665  )
        12           Ga  tau(  12) = (  -0.2999999   0.7505553   0.1627148  )
        13           Ga  tau(  13) = (  -0.2999999   0.7505553   0.4886906  )
        14           Ga  tau(  14) = (  -0.2999999   0.7505553   0.8146665  )
        15           Ga  tau(  15) = (   0.3000001   0.0577350   0.1627148  )
        16           Ga  tau(  16) = (   0.3000001   0.0577350   0.4886906  )
        17           Ga  tau(  17) = (   0.3000001   0.0577350   0.8146665  )
        18           Ga  tau(  18) = (   0.2000001   0.2309401   0.1627148  )
        19           Ga  tau(  19) = (   0.2000001   0.2309401   0.4886906  )
        20           Ga  tau(  20) = (   0.2000001   0.2309401   0.8146665  )
        21           Ga  tau(  21) = (   0.1000001   0.4041451   0.1627148  )
        22           Ga  tau(  22) = (   0.1000001   0.4041451   0.4886906  )
        23           Ga  tau(  23) = (   0.1000001   0.4041451   0.8146665  )
        24           Ga  tau(  24) = (   0.0000001   0.5773502   0.1627148  )
        25           Ga  tau(  25) = (   0.0000001   0.5773502   0.4886906  )
        26           Ga  tau(  26) = (   0.0000001   0.5773502   0.8146665  )
        27           Ga  tau(  27) = (  -0.0999999   0.7505553   0.1627148  )
        28           Ga  tau(  28) = (  -0.0999999   0.7505553   0.4886906  )
        29           Ga  tau(  29) = (  -0.0999999   0.7505553   0.8146665  )
        30           Ga  tau(  30) = (   0.5000001   0.0577350   0.1627148  )
        31           Ga  tau(  31) = (   0.5000001   0.0577350   0.4886906  )
        32           Ga  tau(  32) = (   0.5000001   0.0577350   0.8146665  )
        33           Ga  tau(  33) = (   0.4000001   0.2309401   0.1627148  )
        34           Ga  tau(  34) = (   0.4000001   0.2309401   0.4886906  )
        35           Ga  tau(  35) = (   0.4000001   0.2309401   0.8146665  )
        36           Ga  tau(  36) = (   0.3000001   0.4041451   0.1627148  )
        37           Ga  tau(  37) = (   0.3000001   0.4041451   0.4886906  )
        38           Ga  tau(  38) = (   0.3000001   0.4041451   0.8146665  )
        39           Ga  tau(  39) = (   0.2000001   0.5773502   0.1627148  )
        40           Ga  tau(  40) = (   0.2000001   0.5773502   0.4886906  )
        41           Ga  tau(  41) = (   0.2000001   0.5773502   0.8146665  )
        42           Ga  tau(  42) = (   0.1000001   0.7505553   0.1627148  )
        43           Ga  tau(  43) = (   0.1000001   0.7505553   0.4886906  )
        44           Ga  tau(  44) = (   0.1000001   0.7505553   0.8146665  )
        45           Ga  tau(  45) = (   0.7000001   0.0577350   0.1627148  )
        46           Ga  tau(  46) = (   0.7000001   0.0577350   0.4886906  )
        47           Ga  tau(  47) = (   0.7000001   0.0577350   0.8146665  )
        48           Ga  tau(  48) = (   0.6000001   0.2309401   0.1627148  )
        49           Ga  tau(  49) = (   0.6000001   0.2309401   0.4886906  )
        50           Ga  tau(  50) = (   0.6000001   0.2309401   0.8146665  )
        51           Ga  tau(  51) = (   0.5000001   0.4041451   0.1627148  )
        52           Ga  tau(  52) = (   0.5000001   0.4041451   0.4886906  )
        53           Ga  tau(  53) = (   0.5000001   0.4041451   0.8146665  )
        54           Ga  tau(  54) = (   0.4000001   0.5773502   0.1627148  )
        55           Ga  tau(  55) = (   0.4000001   0.5773502   0.4886906  )
        56           Ga  tau(  56) = (   0.4000001   0.5773502   0.8146665  )
        57           Ga  tau(  57) = (   0.3000001   0.7505553   0.1627148  )
        58           Ga  tau(  58) = (   0.3000001   0.7505553   0.4886906  )
        59           Ga  tau(  59) = (   0.3000001   0.7505553   0.8146665  )
        60           Ga  tau(  60) = (   0.9000001   0.0577350   0.1627148  )
        61           Ga  tau(  61) = (   0.9000001   0.0577350   0.4886906  )
        62           Ga  tau(  62) = (   0.9000001   0.0577350   0.8146665  )
        63           Ga  tau(  63) = (   0.8000001   0.2309401   0.1627148  )
        64           Ga  tau(  64) = (   0.8000001   0.2309401   0.4886906  )
        65           Ga  tau(  65) = (   0.8000001   0.2309401   0.8146665  )
        66           Ga  tau(  66) = (   0.7000001   0.4041451   0.1627148  )
        67           Ga  tau(  67) = (   0.7000001   0.4041451   0.4886906  )
        68           Ga  tau(  68) = (   0.7000001   0.4041451   0.8146665  )
        69           Ga  tau(  69) = (   0.6000001   0.5773502   0.1627148  )
        70           Ga  tau(  70) = (   0.6000001   0.5773502   0.4886906  )
        71           Ga  tau(  71) = (   0.6000001   0.5773502   0.8146665  )
        72           Ga  tau(  72) = (   0.5000001   0.7505553   0.1627148  )
        73           Ga  tau(  73) = (   0.5000001   0.7505553   0.4886906  )
        74           Ga  tau(  74) = (   0.5000001   0.7505553   0.8146665  )
        75           Ga  tau(  75) = (  -0.0000001   0.1154701   0.3257027  )
        76           Ga  tau(  76) = (  -0.0000001   0.1154701   0.6516786  )
        77           Ga  tau(  77) = (  -0.0000001   0.1154701   0.9776544  )
        78           Ga  tau(  78) = (  -0.1000001   0.2886752   0.3257027  )
        79           Ga  tau(  79) = (  -0.1000001   0.2886752   0.6516786  )
        80           Ga  tau(  80) = (  -0.1000001   0.2886752   0.9776544  )
        81           Ga  tau(  81) = (  -0.2000001   0.4618803   0.3257027  )
        82           Ga  tau(  82) = (  -0.2000001   0.4618803   0.6516786  )
        83           Ga  tau(  83) = (  -0.2000001   0.4618803   0.9776544  )
        84           Ga  tau(  84) = (  -0.3000001   0.6350854   0.3257027  )
        85           Ga  tau(  85) = (  -0.3000001   0.6350854   0.6516786  )
        86           Ga  tau(  86) = (  -0.3000001   0.6350854   0.9776544  )
        87           Ga  tau(  87) = (  -0.4000001   0.8082905   0.3257027  )
        88           Ga  tau(  88) = (  -0.4000001   0.8082905   0.6516786  )
        89           Ga  tau(  89) = (  -0.4000001   0.8082905   0.9776544  )
        90           Ga  tau(  90) = (   0.1999999   0.1154701   0.3257027  )
        91           Ga  tau(  91) = (   0.1999999   0.1154701   0.6516786  )
        92           Ga  tau(  92) = (   0.1999999   0.1154701   0.9776544  )
        93           Ga  tau(  93) = (   0.0999999   0.2886752   0.3257027  )
        94           Ga  tau(  94) = (   0.0999999   0.2886752   0.6516786  )
        95           Ga  tau(  95) = (   0.0999999   0.2886752   0.9776544  )
        96           Ga  tau(  96) = (  -0.0000001   0.4618803   0.3257027  )
        97           Ga  tau(  97) = (  -0.0000001   0.4618803   0.6516786  )
        98           Ga  tau(  98) = (  -0.0000001   0.4618803   0.9776544  )
        99           Ga  tau(  99) = (  -0.1000001   0.6350854   0.3257027  )
       100           Ga  tau( 100) = (  -0.1000001   0.6350854   0.6516786  )
       101           Ga  tau( 101) = (  -0.1000001   0.6350854   0.9776544  )
       102           Ga  tau( 102) = (  -0.2000001   0.8082905   0.3257027  )
       103           Ga  tau( 103) = (  -0.2000001   0.8082905   0.6516786  )
       104           Ga  tau( 104) = (  -0.2000001   0.8082905   0.9776544  )
       105           Ga  tau( 105) = (   0.3999999   0.1154701   0.3257027  )
       106           Ga  tau( 106) = (   0.3999999   0.1154701   0.6516786  )
       107           Ga  tau( 107) = (   0.3999999   0.1154701   0.9776544  )
       108           Ga  tau( 108) = (   0.2999999   0.2886752   0.3257027  )
       109           Ga  tau( 109) = (   0.2999999   0.2886752   0.6516786  )
       110           Ga  tau( 110) = (   0.2999999   0.2886752   0.9776544  )
       111           Ga  tau( 111) = (   0.1999999   0.4618803   0.3257027  )
       112           Ga  tau( 112) = (   0.1999999   0.4618803   0.6516786  )
       113           Ga  tau( 113) = (   0.1999999   0.4618803   0.9776544  )
       114           Ga  tau( 114) = (   0.0999999   0.6350854   0.3257027  )
       115           Ga  tau( 115) = (   0.0999999   0.6350854   0.6516786  )
       116           Ga  tau( 116) = (   0.0999999   0.6350854   0.9776544  )
       117           Ga  tau( 117) = (  -0.0000001   0.8082905   0.3257027  )
       118           Ga  tau( 118) = (  -0.0000001   0.8082905   0.6516786  )
       119           Ga  tau( 119) = (  -0.0000001   0.8082905   0.9776544  )
       120           Ga  tau( 120) = (   0.5999999   0.1154701   0.3257027  )
       121           Ga  tau( 121) = (   0.5999999   0.1154701   0.6516786  )
       122           Ga  tau( 122) = (   0.5999999   0.1154701   0.9776544  )
       123           Ga  tau( 123) = (   0.4999999   0.2886752   0.3257027  )
       124           Ga  tau( 124) = (   0.4999999   0.2886752   0.6516786  )
       125           Ga  tau( 125) = (   0.4999999   0.2886752   0.9776544  )
       126           Ga  tau( 126) = (   0.3999999   0.4618803   0.3257027  )
       127           Ga  tau( 127) = (   0.3999999   0.4618803   0.6516786  )
       128           Ga  tau( 128) = (   0.3999999   0.4618803   0.9776544  )
       129           Ga  tau( 129) = (   0.2999999   0.6350854   0.3257027  )
       130           Ga  tau( 130) = (   0.2999999   0.6350854   0.6516786  )
       131           Ga  tau( 131) = (   0.2999999   0.6350854   0.9776544  )
       132           Ga  tau( 132) = (   0.1999999   0.8082905   0.3257027  )
       133           Ga  tau( 133) = (   0.1999999   0.8082905   0.6516786  )
       134           Ga  tau( 134) = (   0.1999999   0.8082905   0.9776544  )
       135           Ga  tau( 135) = (   0.7999999   0.1154701   0.3257027  )
       136           Ga  tau( 136) = (   0.7999999   0.1154701   0.6516786  )
       137           Ga  tau( 137) = (   0.7999999   0.1154701   0.9776544  )
       138           Ga  tau( 138) = (   0.6999999   0.2886752   0.3257027  )
       139           Ga  tau( 139) = (   0.6999999   0.2886752   0.6516786  )
       140           Ga  tau( 140) = (   0.6999999   0.2886752   0.9776544  )
       141           Ga  tau( 141) = (   0.5999999   0.4618803   0.3257027  )
       142           Ga  tau( 142) = (   0.5999999   0.4618803   0.6516786  )
       143           Ga  tau( 143) = (   0.5999999   0.4618803   0.9776544  )
       144           Ga  tau( 144) = (   0.4999999   0.6350854   0.3257027  )
       145           Ga  tau( 145) = (   0.4999999   0.6350854   0.6516786  )
       146           Ga  tau( 146) = (   0.4999999   0.6350854   0.9776544  )
       147           Ga  tau( 147) = (   0.3999999   0.8082905   0.3257027  )
       148           Ga  tau( 148) = (   0.3999999   0.8082905   0.6516786  )
       149           Ga  tau( 149) = (   0.3999999   0.8082905   0.9776544  )
       150           N   tau( 150) = (   0.1000001   0.0577350   0.2855019  )
       151           N   tau( 151) = (   0.1000001   0.0577350   0.6114777  )
       152           N   tau( 152) = (   0.1000001   0.0577350   0.9374535  )
       153           N   tau( 153) = (   0.0000001   0.2309401   0.2855019  )
       154           N   tau( 154) = (   0.0000001   0.2309401   0.6114777  )
       155           N   tau( 155) = (   0.0000001   0.2309401   0.9374535  )
       156           N   tau( 156) = (  -0.0999999   0.4041451   0.2855019  )
       157           N   tau( 157) = (  -0.0999999   0.4041451   0.6114777  )
       158           N   tau( 158) = (  -0.0999999   0.4041451   0.9374535  )
       159           N   tau( 159) = (  -0.1999999   0.5773502   0.2855019  )
       160           N   tau( 160) = (  -0.1999999   0.5773502   0.6114777  )
       161           N   tau( 161) = (  -0.1999999   0.5773502   0.9374535  )
       162           N   tau( 162) = (  -0.2999999   0.7505553   0.2855019  )
       163           N   tau( 163) = (  -0.2999999   0.7505553   0.6114777  )
       164           N   tau( 164) = (  -0.2999999   0.7505553   0.9374535  )
       165           N   tau( 165) = (   0.3000001   0.0577350   0.2855019  )
       166           N   tau( 166) = (   0.3000001   0.0577350   0.6114777  )
       167           N   tau( 167) = (   0.3000001   0.0577350   0.9374535  )
       168           N   tau( 168) = (   0.2000001   0.2309401   0.2855019  )
       169           N   tau( 169) = (   0.2000001   0.2309401   0.6114777  )
       170           N   tau( 170) = (   0.2000001   0.2309401   0.9374535  )
       171           N   tau( 171) = (   0.1000001   0.4041451   0.2855019  )
       172           N   tau( 172) = (   0.1000001   0.4041451   0.6114777  )
       173           N   tau( 173) = (   0.1000001   0.4041451   0.9374535  )
       174           N   tau( 174) = (   0.0000001   0.5773502   0.2855019  )
       175           N   tau( 175) = (   0.0000001   0.5773502   0.6114777  )
       176           N   tau( 176) = (   0.0000001   0.5773502   0.9374535  )
       177           N   tau( 177) = (  -0.0999999   0.7505553   0.2855019  )
       178           N   tau( 178) = (  -0.0999999   0.7505553   0.6114777  )
       179           N   tau( 179) = (  -0.0999999   0.7505553   0.9374535  )
       180           N   tau( 180) = (   0.5000001   0.0577350   0.2855019  )
       181           N   tau( 181) = (   0.5000001   0.0577350   0.6114777  )
       182           N   tau( 182) = (   0.5000001   0.0577350   0.9374535  )
       183           N   tau( 183) = (   0.4000001   0.2309401   0.2855019  )
       184           N   tau( 184) = (   0.4000001   0.2309401   0.6114777  )
       185           N   tau( 185) = (   0.4000001   0.2309401   0.9374535  )
       186           N   tau( 186) = (   0.3000001   0.4041451   0.2855019  )
       187           N   tau( 187) = (   0.3000001   0.4041451   0.6114777  )
       188           N   tau( 188) = (   0.3000001   0.4041451   0.9374535  )
       189           N   tau( 189) = (   0.2000001   0.5773502   0.2855019  )
       190           N   tau( 190) = (   0.2000001   0.5773502   0.6114777  )
       191           N   tau( 191) = (   0.2000001   0.5773502   0.9374535  )
       192           N   tau( 192) = (   0.1000001   0.7505553   0.2855019  )
       193           N   tau( 193) = (   0.1000001   0.7505553   0.6114777  )
       194           N   tau( 194) = (   0.1000001   0.7505553   0.9374535  )
       195           N   tau( 195) = (   0.7000001   0.0577350   0.2855019  )
       196           N   tau( 196) = (   0.7000001   0.0577350   0.6114777  )
       197           N   tau( 197) = (   0.7000001   0.0577350   0.9374535  )
       198           N   tau( 198) = (   0.6000001   0.2309401   0.2855019  )
       199           N   tau( 199) = (   0.6000001   0.2309401   0.6114777  )
       200           N   tau( 200) = (   0.6000001   0.2309401   0.9374535  )
       201           N   tau( 201) = (   0.5000001   0.4041451   0.2855019  )
       202           N   tau( 202) = (   0.5000001   0.4041451   0.6114777  )
       203           N   tau( 203) = (   0.5000001   0.4041451   0.9374535  )
       204           N   tau( 204) = (   0.4000001   0.5773502   0.2855019  )
       205           N   tau( 205) = (   0.4000001   0.5773502   0.6114777  )
       206           N   tau( 206) = (   0.4000001   0.5773502   0.9374535  )
       207           N   tau( 207) = (   0.3000001   0.7505553   0.2855019  )
       208           N   tau( 208) = (   0.3000001   0.7505553   0.6114777  )
       209           N   tau( 209) = (   0.3000001   0.7505553   0.9374535  )
       210           N   tau( 210) = (   0.9000001   0.0577350   0.2855019  )
       211           N   tau( 211) = (   0.9000001   0.0577350   0.6114777  )
       212           N   tau( 212) = (   0.9000001   0.0577350   0.9374535  )
       213           N   tau( 213) = (   0.8000001   0.2309401   0.2855019  )
       214           N   tau( 214) = (   0.8000001   0.2309401   0.6114777  )
       215           N   tau( 215) = (   0.8000001   0.2309401   0.9374535  )
       216           N   tau( 216) = (   0.7000001   0.4041451   0.2855019  )
       217           N   tau( 217) = (   0.7000001   0.4041451   0.6114777  )
       218           N   tau( 218) = (   0.7000001   0.4041451   0.9374535  )
       219           N   tau( 219) = (   0.6000001   0.5773502   0.2855019  )
       220           N   tau( 220) = (   0.6000001   0.5773502   0.6114777  )
       221           N   tau( 221) = (   0.6000001   0.5773502   0.9374535  )
       222           N   tau( 222) = (   0.5000001   0.7505553   0.2855019  )
       223           N   tau( 223) = (   0.5000001   0.7505553   0.6114777  )
       224           N   tau( 224) = (   0.5000001   0.7505553   0.9374535  )
       225           N   tau( 225) = (  -0.0000001   0.1154701   0.1225140  )
       226           N   tau( 226) = (  -0.0000001   0.1154701   0.4484898  )
       227           N   tau( 227) = (  -0.0000001   0.1154701   0.7744656  )
       228           N   tau( 228) = (  -0.1000001   0.2886752   0.1225140  )
       229           N   tau( 229) = (  -0.1000001   0.2886752   0.4484898  )
       230           N   tau( 230) = (  -0.1000001   0.2886752   0.7744656  )
       231           N   tau( 231) = (  -0.2000001   0.4618803   0.1225140  )
       232           N   tau( 232) = (  -0.2000001   0.4618803   0.4484898  )
       233           N   tau( 233) = (  -0.2000001   0.4618803   0.7744656  )
       234           N   tau( 234) = (  -0.3000001   0.6350854   0.1225140  )
       235           N   tau( 235) = (  -0.3000001   0.6350854   0.4484898  )
       236           N   tau( 236) = (  -0.3000001   0.6350854   0.7744656  )
       237           N   tau( 237) = (  -0.4000001   0.8082905   0.1225140  )
       238           N   tau( 238) = (  -0.4000001   0.8082905   0.4484898  )
       239           N   tau( 239) = (  -0.4000001   0.8082905   0.7744656  )
       240           N   tau( 240) = (   0.1999999   0.1154701   0.1225140  )
       241           N   tau( 241) = (   0.1999999   0.1154701   0.4484898  )
       242           N   tau( 242) = (   0.1999999   0.1154701   0.7744656  )
       243           N   tau( 243) = (   0.0999999   0.2886752   0.1225140  )
       244           N   tau( 244) = (   0.0999999   0.2886752   0.4484898  )
       245           N   tau( 245) = (   0.0999999   0.2886752   0.7744656  )
       246           N   tau( 246) = (  -0.0000001   0.4618803   0.1225140  )
       247           N   tau( 247) = (  -0.0000001   0.4618803   0.4484898  )
       248           N   tau( 248) = (  -0.0000001   0.4618803   0.7744656  )
       249           N   tau( 249) = (  -0.1000001   0.6350854   0.1225140  )
       250           N   tau( 250) = (  -0.1000001   0.6350854   0.4484898  )
       251           N   tau( 251) = (  -0.1000001   0.6350854   0.7744656  )
       252           N   tau( 252) = (  -0.2000001   0.8082905   0.1225140  )
       253           N   tau( 253) = (  -0.2000001   0.8082905   0.4484898  )
       254           N   tau( 254) = (  -0.2000001   0.8082905   0.7744656  )
       255           N   tau( 255) = (   0.3999999   0.1154701   0.1225140  )
       256           N   tau( 256) = (   0.3999999   0.1154701   0.4484898  )
       257           N   tau( 257) = (   0.3999999   0.1154701   0.7744656  )
       258           N   tau( 258) = (   0.2999999   0.2886752   0.1225140  )
       259           N   tau( 259) = (   0.2999999   0.2886752   0.4484898  )
       260           N   tau( 260) = (   0.2999999   0.2886752   0.7744656  )
       261           N   tau( 261) = (   0.1999999   0.4618803   0.1225140  )
       262           N   tau( 262) = (   0.1999999   0.4618803   0.4484898  )
       263           N   tau( 263) = (   0.1999999   0.4618803   0.7744656  )
       264           N   tau( 264) = (   0.0999999   0.6350854   0.1225140  )
       265           N   tau( 265) = (   0.0999999   0.6350854   0.4484898  )
       266           N   tau( 266) = (   0.0999999   0.6350854   0.7744656  )
       267           N   tau( 267) = (  -0.0000001   0.8082905   0.1225140  )
       268           N   tau( 268) = (  -0.0000001   0.8082905   0.4484898  )
       269           N   tau( 269) = (  -0.0000001   0.8082905   0.7744656  )
       270           N   tau( 270) = (   0.5999999   0.1154701   0.1225140  )
       271           N   tau( 271) = (   0.5999999   0.1154701   0.4484898  )
       272           N   tau( 272) = (   0.5999999   0.1154701   0.7744656  )
       273           N   tau( 273) = (   0.4999999   0.2886752   0.1225140  )
       274           N   tau( 274) = (   0.4999999   0.2886752   0.4484898  )
       275           N   tau( 275) = (   0.4999999   0.2886752   0.7744656  )
       276           N   tau( 276) = (   0.3999999   0.4618803   0.1225140  )
       277           N   tau( 277) = (   0.3999999   0.4618803   0.4484898  )
       278           N   tau( 278) = (   0.3999999   0.4618803   0.7744656  )
       279           N   tau( 279) = (   0.2999999   0.6350854   0.1225140  )
       280           N   tau( 280) = (   0.2999999   0.6350854   0.4484898  )
       281           N   tau( 281) = (   0.2999999   0.6350854   0.7744656  )
       282           N   tau( 282) = (   0.1999999   0.8082905   0.1225140  )
       283           N   tau( 283) = (   0.1999999   0.8082905   0.4484898  )
       284           N   tau( 284) = (   0.1999999   0.8082905   0.7744656  )
       285           N   tau( 285) = (   0.7999999   0.1154701   0.1225140  )
       286           N   tau( 286) = (   0.7999999   0.1154701   0.4484898  )
       287           N   tau( 287) = (   0.7999999   0.1154701   0.7744656  )
       288           N   tau( 288) = (   0.6999999   0.2886752   0.1225140  )
       289           N   tau( 289) = (   0.6999999   0.2886752   0.4484898  )
       290           N   tau( 290) = (   0.6999999   0.2886752   0.7744656  )
       291           N   tau( 291) = (   0.5999999   0.4618803   0.1225140  )
       292           N   tau( 292) = (   0.5999999   0.4618803   0.4484898  )
       293           N   tau( 293) = (   0.5999999   0.4618803   0.7744656  )
       294           N   tau( 294) = (   0.4999999   0.6350854   0.1225140  )
       295           N   tau( 295) = (   0.4999999   0.6350854   0.4484898  )
       296           N   tau( 296) = (   0.4999999   0.6350854   0.7744656  )
       297           N   tau( 297) = (   0.3999999   0.8082905   0.1225140  )
       298           N   tau( 298) = (   0.3999999   0.8082905   0.4484898  )
       299           N   tau( 299) = (   0.3999999   0.8082905   0.7744656  )

   Crystallographic axes

     site n.     atom                  positions (cryst. coord.)
         1           Ga  tau(   1) = (  0.1333334  0.0666666  0.4997208  )
         2           Ga  tau(   2) = (  0.1333334  0.0666666  0.8330541  )
         3           Ga  tau(   3) = (  0.1333334  0.2666666  0.1663874  )
         4           Ga  tau(   4) = (  0.1333334  0.2666666  0.4997208  )
         5           Ga  tau(   5) = (  0.1333334  0.2666666  0.8330541  )
         6           Ga  tau(   6) = (  0.1333334  0.4666666  0.1663874  )
         7           Ga  tau(   7) = (  0.1333334  0.4666666  0.4997208  )
         8           Ga  tau(   8) = (  0.1333334  0.4666666  0.8330541  )
         9           Ga  tau(   9) = (  0.1333334  0.6666666  0.1663874  )
        10           Ga  tau(  10) = (  0.1333334  0.6666666  0.4997208  )
        11           Ga  tau(  11) = (  0.1333334  0.6666666  0.8330541  )
        12           Ga  tau(  12) = (  0.1333334  0.8666666  0.1663874  )
        13           Ga  tau(  13) = (  0.1333334  0.8666666  0.4997208  )
        14           Ga  tau(  14) = (  0.1333334  0.8666666  0.8330541  )
        15           Ga  tau(  15) = (  0.3333334  0.0666666  0.1663874  )
        16           Ga  tau(  16) = (  0.3333334  0.0666666  0.4997208  )
        17           Ga  tau(  17) = (  0.3333334  0.0666666  0.8330541  )
        18           Ga  tau(  18) = (  0.3333334  0.2666666  0.1663874  )
        19           Ga  tau(  19) = (  0.3333334  0.2666666  0.4997208  )
        20           Ga  tau(  20) = (  0.3333334  0.2666666  0.8330541  )
        21           Ga  tau(  21) = (  0.3333334  0.4666666  0.1663874  )
        22           Ga  tau(  22) = (  0.3333334  0.4666666  0.4997208  )
        23           Ga  tau(  23) = (  0.3333334  0.4666666  0.8330541  )
        24           Ga  tau(  24) = (  0.3333334  0.6666666  0.1663874  )
        25           Ga  tau(  25) = (  0.3333334  0.6666666  0.4997208  )
        26           Ga  tau(  26) = (  0.3333334  0.6666666  0.8330541  )
        27           Ga  tau(  27) = (  0.3333334  0.8666666  0.1663874  )
        28           Ga  tau(  28) = (  0.3333334  0.8666666  0.4997208  )
        29           Ga  tau(  29) = (  0.3333334  0.8666666  0.8330541  )
        30           Ga  tau(  30) = (  0.5333334  0.0666666  0.1663874  )
        31           Ga  tau(  31) = (  0.5333334  0.0666666  0.4997208  )
        32           Ga  tau(  32) = (  0.5333334  0.0666666  0.8330541  )
        33           Ga  tau(  33) = (  0.5333334  0.2666666  0.1663874  )
        34           Ga  tau(  34) = (  0.5333334  0.2666666  0.4997208  )
        35           Ga  tau(  35) = (  0.5333334  0.2666666  0.8330541  )
        36           Ga  tau(  36) = (  0.5333334  0.4666666  0.1663874  )
        37           Ga  tau(  37) = (  0.5333334  0.4666666  0.4997208  )
        38           Ga  tau(  38) = (  0.5333334  0.4666666  0.8330541  )
        39           Ga  tau(  39) = (  0.5333334  0.6666666  0.1663874  )
        40           Ga  tau(  40) = (  0.5333334  0.6666666  0.4997208  )
        41           Ga  tau(  41) = (  0.5333334  0.6666666  0.8330541  )
        42           Ga  tau(  42) = (  0.5333334  0.8666666  0.1663874  )
        43           Ga  tau(  43) = (  0.5333334  0.8666666  0.4997208  )
        44           Ga  tau(  44) = (  0.5333334  0.8666666  0.8330541  )
        45           Ga  tau(  45) = (  0.7333334  0.0666666  0.1663874  )
        46           Ga  tau(  46) = (  0.7333334  0.0666666  0.4997208  )
        47           Ga  tau(  47) = (  0.7333334  0.0666666  0.8330541  )
        48           Ga  tau(  48) = (  0.7333334  0.2666666  0.1663874  )
        49           Ga  tau(  49) = (  0.7333334  0.2666666  0.4997208  )
        50           Ga  tau(  50) = (  0.7333334  0.2666666  0.8330541  )
        51           Ga  tau(  51) = (  0.7333334  0.4666666  0.1663874  )
        52           Ga  tau(  52) = (  0.7333334  0.4666666  0.4997208  )
        53           Ga  tau(  53) = (  0.7333334  0.4666666  0.8330541  )
        54           Ga  tau(  54) = (  0.7333334  0.6666666  0.1663874  )
        55           Ga  tau(  55) = (  0.7333334  0.6666666  0.4997208  )
        56           Ga  tau(  56) = (  0.7333334  0.6666666  0.8330541  )
        57           Ga  tau(  57) = (  0.7333334  0.8666666  0.1663874  )
        58           Ga  tau(  58) = (  0.7333334  0.8666666  0.4997208  )
        59           Ga  tau(  59) = (  0.7333334  0.8666666  0.8330541  )
        60           Ga  tau(  60) = (  0.9333334  0.0666666  0.1663874  )
        61           Ga  tau(  61) = (  0.9333334  0.0666666  0.4997208  )
        62           Ga  tau(  62) = (  0.9333334  0.0666666  0.8330541  )
        63           Ga  tau(  63) = (  0.9333334  0.2666666  0.1663874  )
        64           Ga  tau(  64) = (  0.9333334  0.2666666  0.4997208  )
        65           Ga  tau(  65) = (  0.9333334  0.2666666  0.8330541  )
        66           Ga  tau(  66) = (  0.9333334  0.4666666  0.1663874  )
        67           Ga  tau(  67) = (  0.9333334  0.4666666  0.4997208  )
        68           Ga  tau(  68) = (  0.9333334  0.4666666  0.8330541  )
        69           Ga  tau(  69) = (  0.9333334  0.6666666  0.1663874  )
        70           Ga  tau(  70) = (  0.9333334  0.6666666  0.4997208  )
        71           Ga  tau(  71) = (  0.9333334  0.6666666  0.8330541  )
        72           Ga  tau(  72) = (  0.9333334  0.8666666  0.1663874  )
        73           Ga  tau(  73) = (  0.9333334  0.8666666  0.4997208  )
        74           Ga  tau(  74) = (  0.9333334  0.8666666  0.8330541  )
        75           Ga  tau(  75) = (  0.0666666  0.1333334  0.3330541  )
        76           Ga  tau(  76) = (  0.0666666  0.1333334  0.6663874  )
        77           Ga  tau(  77) = (  0.0666666  0.1333334  0.9997208  )
        78           Ga  tau(  78) = (  0.0666666  0.3333334  0.3330541  )
        79           Ga  tau(  79) = (  0.0666666  0.3333334  0.6663874  )
        80           Ga  tau(  80) = (  0.0666666  0.3333334  0.9997208  )
        81           Ga  tau(  81) = (  0.0666666  0.5333334  0.3330541  )
        82           Ga  tau(  82) = (  0.0666666  0.5333334  0.6663874  )
        83           Ga  tau(  83) = (  0.0666666  0.5333334  0.9997208  )
        84           Ga  tau(  84) = (  0.0666666  0.7333334  0.3330541  )
        85           Ga  tau(  85) = (  0.0666666  0.7333334  0.6663874  )
        86           Ga  tau(  86) = (  0.0666666  0.7333334  0.9997208  )
        87           Ga  tau(  87) = (  0.0666666  0.9333334  0.3330541  )
        88           Ga  tau(  88) = (  0.0666666  0.9333334  0.6663874  )
        89           Ga  tau(  89) = (  0.0666666  0.9333334  0.9997208  )
        90           Ga  tau(  90) = (  0.2666666  0.1333334  0.3330541  )
        91           Ga  tau(  91) = (  0.2666666  0.1333334  0.6663874  )
        92           Ga  tau(  92) = (  0.2666666  0.1333334  0.9997208  )
        93           Ga  tau(  93) = (  0.2666666  0.3333334  0.3330541  )
        94           Ga  tau(  94) = (  0.2666666  0.3333334  0.6663874  )
        95           Ga  tau(  95) = (  0.2666666  0.3333334  0.9997208  )
        96           Ga  tau(  96) = (  0.2666666  0.5333334  0.3330541  )
        97           Ga  tau(  97) = (  0.2666666  0.5333334  0.6663874  )
        98           Ga  tau(  98) = (  0.2666666  0.5333334  0.9997208  )
        99           Ga  tau(  99) = (  0.2666666  0.7333334  0.3330541  )
       100           Ga  tau( 100) = (  0.2666666  0.7333334  0.6663874  )
       101           Ga  tau( 101) = (  0.2666666  0.7333334  0.9997208  )
       102           Ga  tau( 102) = (  0.2666666  0.9333334  0.3330541  )
       103           Ga  tau( 103) = (  0.2666666  0.9333334  0.6663874  )
       104           Ga  tau( 104) = (  0.2666666  0.9333334  0.9997208  )
       105           Ga  tau( 105) = (  0.4666666  0.1333334  0.3330541  )
       106           Ga  tau( 106) = (  0.4666666  0.1333334  0.6663874  )
       107           Ga  tau( 107) = (  0.4666666  0.1333334  0.9997208  )
       108           Ga  tau( 108) = (  0.4666666  0.3333334  0.3330541  )
       109           Ga  tau( 109) = (  0.4666666  0.3333334  0.6663874  )
       110           Ga  tau( 110) = (  0.4666666  0.3333334  0.9997208  )
       111           Ga  tau( 111) = (  0.4666666  0.5333334  0.3330541  )
       112           Ga  tau( 112) = (  0.4666666  0.5333334  0.6663874  )
       113           Ga  tau( 113) = (  0.4666666  0.5333334  0.9997208  )
       114           Ga  tau( 114) = (  0.4666666  0.7333334  0.3330541  )
       115           Ga  tau( 115) = (  0.4666666  0.7333334  0.6663874  )
       116           Ga  tau( 116) = (  0.4666666  0.7333334  0.9997208  )
       117           Ga  tau( 117) = (  0.4666666  0.9333334  0.3330541  )
       118           Ga  tau( 118) = (  0.4666666  0.9333334  0.6663874  )
       119           Ga  tau( 119) = (  0.4666666  0.9333334  0.9997208  )
       120           Ga  tau( 120) = (  0.6666666  0.1333334  0.3330541  )
       121           Ga  tau( 121) = (  0.6666666  0.1333334  0.6663874  )
       122           Ga  tau( 122) = (  0.6666666  0.1333334  0.9997208  )
       123           Ga  tau( 123) = (  0.6666666  0.3333334  0.3330541  )
       124           Ga  tau( 124) = (  0.6666666  0.3333334  0.6663874  )
       125           Ga  tau( 125) = (  0.6666666  0.3333334  0.9997208  )
       126           Ga  tau( 126) = (  0.6666666  0.5333334  0.3330541  )
       127           Ga  tau( 127) = (  0.6666666  0.5333334  0.6663874  )
       128           Ga  tau( 128) = (  0.6666666  0.5333334  0.9997208  )
       129           Ga  tau( 129) = (  0.6666666  0.7333334  0.3330541  )
       130           Ga  tau( 130) = (  0.6666666  0.7333334  0.6663874  )
       131           Ga  tau( 131) = (  0.6666666  0.7333334  0.9997208  )
       132           Ga  tau( 132) = (  0.6666666  0.9333334  0.3330541  )
       133           Ga  tau( 133) = (  0.6666666  0.9333334  0.6663874  )
       134           Ga  tau( 134) = (  0.6666666  0.9333334  0.9997208  )
       135           Ga  tau( 135) = (  0.8666666  0.1333334  0.3330541  )
       136           Ga  tau( 136) = (  0.8666666  0.1333334  0.6663874  )
       137           Ga  tau( 137) = (  0.8666666  0.1333334  0.9997208  )
       138           Ga  tau( 138) = (  0.8666666  0.3333334  0.3330541  )
       139           Ga  tau( 139) = (  0.8666666  0.3333334  0.6663874  )
       140           Ga  tau( 140) = (  0.8666666  0.3333334  0.9997208  )
       141           Ga  tau( 141) = (  0.8666666  0.5333334  0.3330541  )
       142           Ga  tau( 142) = (  0.8666666  0.5333334  0.6663874  )
       143           Ga  tau( 143) = (  0.8666666  0.5333334  0.9997208  )
       144           Ga  tau( 144) = (  0.8666666  0.7333334  0.3330541  )
       145           Ga  tau( 145) = (  0.8666666  0.7333334  0.6663874  )
       146           Ga  tau( 146) = (  0.8666666  0.7333334  0.9997208  )
       147           Ga  tau( 147) = (  0.8666666  0.9333334  0.3330541  )
       148           Ga  tau( 148) = (  0.8666666  0.9333334  0.6663874  )
       149           Ga  tau( 149) = (  0.8666666  0.9333334  0.9997208  )
       150           N   tau( 150) = (  0.1333334  0.0666666  0.2919459  )
       151           N   tau( 151) = (  0.1333334  0.0666666  0.6252792  )
       152           N   tau( 152) = (  0.1333334  0.0666666  0.9586126  )
       153           N   tau( 153) = (  0.1333334  0.2666666  0.2919459  )
       154           N   tau( 154) = (  0.1333334  0.2666666  0.6252792  )
       155           N   tau( 155) = (  0.1333334  0.2666666  0.9586126  )
       156           N   tau( 156) = (  0.1333334  0.4666666  0.2919459  )
       157           N   tau( 157) = (  0.1333334  0.4666666  0.6252792  )
       158           N   tau( 158) = (  0.1333334  0.4666666  0.9586126  )
       159           N   tau( 159) = (  0.1333334  0.6666666  0.2919459  )
       160           N   tau( 160) = (  0.1333334  0.6666666  0.6252792  )
       161           N   tau( 161) = (  0.1333334  0.6666666  0.9586126  )
       162           N   tau( 162) = (  0.1333334  0.8666666  0.2919459  )
       163           N   tau( 163) = (  0.1333334  0.8666666  0.6252792  )
       164           N   tau( 164) = (  0.1333334  0.8666666  0.9586126  )
       165           N   tau( 165) = (  0.3333334  0.0666666  0.2919459  )
       166           N   tau( 166) = (  0.3333334  0.0666666  0.6252792  )
       167           N   tau( 167) = (  0.3333334  0.0666666  0.9586126  )
       168           N   tau( 168) = (  0.3333334  0.2666666  0.2919459  )
       169           N   tau( 169) = (  0.3333334  0.2666666  0.6252792  )
       170           N   tau( 170) = (  0.3333334  0.2666666  0.9586126  )
       171           N   tau( 171) = (  0.3333334  0.4666666  0.2919459  )
       172           N   tau( 172) = (  0.3333334  0.4666666  0.6252792  )
       173           N   tau( 173) = (  0.3333334  0.4666666  0.9586126  )
       174           N   tau( 174) = (  0.3333334  0.6666666  0.2919459  )
       175           N   tau( 175) = (  0.3333334  0.6666666  0.6252792  )
       176           N   tau( 176) = (  0.3333334  0.6666666  0.9586126  )
       177           N   tau( 177) = (  0.3333334  0.8666666  0.2919459  )
       178           N   tau( 178) = (  0.3333334  0.8666666  0.6252792  )
       179           N   tau( 179) = (  0.3333334  0.8666666  0.9586126  )
       180           N   tau( 180) = (  0.5333334  0.0666666  0.2919459  )
       181           N   tau( 181) = (  0.5333334  0.0666666  0.6252792  )
       182           N   tau( 182) = (  0.5333334  0.0666666  0.9586126  )
       183           N   tau( 183) = (  0.5333334  0.2666666  0.2919459  )
       184           N   tau( 184) = (  0.5333334  0.2666666  0.6252792  )
       185           N   tau( 185) = (  0.5333334  0.2666666  0.9586126  )
       186           N   tau( 186) = (  0.5333334  0.4666666  0.2919459  )
       187           N   tau( 187) = (  0.5333334  0.4666666  0.6252792  )
       188           N   tau( 188) = (  0.5333334  0.4666666  0.9586126  )
       189           N   tau( 189) = (  0.5333334  0.6666666  0.2919459  )
       190           N   tau( 190) = (  0.5333334  0.6666666  0.6252792  )
       191           N   tau( 191) = (  0.5333334  0.6666666  0.9586126  )
       192           N   tau( 192) = (  0.5333334  0.8666666  0.2919459  )
       193           N   tau( 193) = (  0.5333334  0.8666666  0.6252792  )
       194           N   tau( 194) = (  0.5333334  0.8666666  0.9586126  )
       195           N   tau( 195) = (  0.7333334  0.0666666  0.2919459  )
       196           N   tau( 196) = (  0.7333334  0.0666666  0.6252792  )
       197           N   tau( 197) = (  0.7333334  0.0666666  0.9586126  )
       198           N   tau( 198) = (  0.7333334  0.2666666  0.2919459  )
       199           N   tau( 199) = (  0.7333334  0.2666666  0.6252792  )
       200           N   tau( 200) = (  0.7333334  0.2666666  0.9586126  )
       201           N   tau( 201) = (  0.7333334  0.4666666  0.2919459  )
       202           N   tau( 202) = (  0.7333334  0.4666666  0.6252792  )
       203           N   tau( 203) = (  0.7333334  0.4666666  0.9586126  )
       204           N   tau( 204) = (  0.7333334  0.6666666  0.2919459  )
       205           N   tau( 205) = (  0.7333334  0.6666666  0.6252792  )
       206           N   tau( 206) = (  0.7333334  0.6666666  0.9586126  )
       207           N   tau( 207) = (  0.7333334  0.8666666  0.2919459  )
       208           N   tau( 208) = (  0.7333334  0.8666666  0.6252792  )
       209           N   tau( 209) = (  0.7333334  0.8666666  0.9586126  )
       210           N   tau( 210) = (  0.9333334  0.0666666  0.2919459  )
       211           N   tau( 211) = (  0.9333334  0.0666666  0.6252792  )
       212           N   tau( 212) = (  0.9333334  0.0666666  0.9586126  )
       213           N   tau( 213) = (  0.9333334  0.2666666  0.2919459  )
       214           N   tau( 214) = (  0.9333334  0.2666666  0.6252792  )
       215           N   tau( 215) = (  0.9333334  0.2666666  0.9586126  )
       216           N   tau( 216) = (  0.9333334  0.4666666  0.2919459  )
       217           N   tau( 217) = (  0.9333334  0.4666666  0.6252792  )
       218           N   tau( 218) = (  0.9333334  0.4666666  0.9586126  )
       219           N   tau( 219) = (  0.9333334  0.6666666  0.2919459  )
       220           N   tau( 220) = (  0.9333334  0.6666666  0.6252792  )
       221           N   tau( 221) = (  0.9333334  0.6666666  0.9586126  )
       222           N   tau( 222) = (  0.9333334  0.8666666  0.2919459  )
       223           N   tau( 223) = (  0.9333334  0.8666666  0.6252792  )
       224           N   tau( 224) = (  0.9333334  0.8666666  0.9586126  )
       225           N   tau( 225) = (  0.0666666  0.1333334  0.1252792  )
       226           N   tau( 226) = (  0.0666666  0.1333334  0.4586126  )
       227           N   tau( 227) = (  0.0666666  0.1333334  0.7919459  )
       228           N   tau( 228) = (  0.0666666  0.3333334  0.1252792  )
       229           N   tau( 229) = (  0.0666666  0.3333334  0.4586126  )
       230           N   tau( 230) = (  0.0666666  0.3333334  0.7919459  )
       231           N   tau( 231) = (  0.0666666  0.5333334  0.1252792  )
       232           N   tau( 232) = (  0.0666666  0.5333334  0.4586126  )
       233           N   tau( 233) = (  0.0666666  0.5333334  0.7919459  )
       234           N   tau( 234) = (  0.0666666  0.7333334  0.1252792  )
       235           N   tau( 235) = (  0.0666666  0.7333334  0.4586126  )
       236           N   tau( 236) = (  0.0666666  0.7333334  0.7919459  )
       237           N   tau( 237) = (  0.0666666  0.9333334  0.1252792  )
       238           N   tau( 238) = (  0.0666666  0.9333334  0.4586126  )
       239           N   tau( 239) = (  0.0666666  0.9333334  0.7919459  )
       240           N   tau( 240) = (  0.2666666  0.1333334  0.1252792  )
       241           N   tau( 241) = (  0.2666666  0.1333334  0.4586126  )
       242           N   tau( 242) = (  0.2666666  0.1333334  0.7919459  )
       243           N   tau( 243) = (  0.2666666  0.3333334  0.1252792  )
       244           N   tau( 244) = (  0.2666666  0.3333334  0.4586126  )
       245           N   tau( 245) = (  0.2666666  0.3333334  0.7919459  )
       246           N   tau( 246) = (  0.2666666  0.5333334  0.1252792  )
       247           N   tau( 247) = (  0.2666666  0.5333334  0.4586126  )
       248           N   tau( 248) = (  0.2666666  0.5333334  0.7919459  )
       249           N   tau( 249) = (  0.2666666  0.7333334  0.1252792  )
       250           N   tau( 250) = (  0.2666666  0.7333334  0.4586126  )
       251           N   tau( 251) = (  0.2666666  0.7333334  0.7919459  )
       252           N   tau( 252) = (  0.2666666  0.9333334  0.1252792  )
       253           N   tau( 253) = (  0.2666666  0.9333334  0.4586126  )
       254           N   tau( 254) = (  0.2666666  0.9333334  0.7919459  )
       255           N   tau( 255) = (  0.4666666  0.1333334  0.1252792  )
       256           N   tau( 256) = (  0.4666666  0.1333334  0.4586126  )
       257           N   tau( 257) = (  0.4666666  0.1333334  0.7919459  )
       258           N   tau( 258) = (  0.4666666  0.3333334  0.1252792  )
       259           N   tau( 259) = (  0.4666666  0.3333334  0.4586126  )
       260           N   tau( 260) = (  0.4666666  0.3333334  0.7919459  )
       261           N   tau( 261) = (  0.4666666  0.5333334  0.1252792  )
       262           N   tau( 262) = (  0.4666666  0.5333334  0.4586126  )
       263           N   tau( 263) = (  0.4666666  0.5333334  0.7919459  )
       264           N   tau( 264) = (  0.4666666  0.7333334  0.1252792  )
       265           N   tau( 265) = (  0.4666666  0.7333334  0.4586126  )
       266           N   tau( 266) = (  0.4666666  0.7333334  0.7919459  )
       267           N   tau( 267) = (  0.4666666  0.9333334  0.1252792  )
       268           N   tau( 268) = (  0.4666666  0.9333334  0.4586126  )
       269           N   tau( 269) = (  0.4666666  0.9333334  0.7919459  )
       270           N   tau( 270) = (  0.6666666  0.1333334  0.1252792  )
       271           N   tau( 271) = (  0.6666666  0.1333334  0.4586126  )
       272           N   tau( 272) = (  0.6666666  0.1333334  0.7919459  )
       273           N   tau( 273) = (  0.6666666  0.3333334  0.1252792  )
       274           N   tau( 274) = (  0.6666666  0.3333334  0.4586126  )
       275           N   tau( 275) = (  0.6666666  0.3333334  0.7919459  )
       276           N   tau( 276) = (  0.6666666  0.5333334  0.1252792  )
       277           N   tau( 277) = (  0.6666666  0.5333334  0.4586126  )
       278           N   tau( 278) = (  0.6666666  0.5333334  0.7919459  )
       279           N   tau( 279) = (  0.6666666  0.7333334  0.1252792  )
       280           N   tau( 280) = (  0.6666666  0.7333334  0.4586126  )
       281           N   tau( 281) = (  0.6666666  0.7333334  0.7919459  )
       282           N   tau( 282) = (  0.6666666  0.9333334  0.1252792  )
       283           N   tau( 283) = (  0.6666666  0.9333334  0.4586126  )
       284           N   tau( 284) = (  0.6666666  0.9333334  0.7919459  )
       285           N   tau( 285) = (  0.8666666  0.1333334  0.1252792  )
       286           N   tau( 286) = (  0.8666666  0.1333334  0.4586126  )
       287           N   tau( 287) = (  0.8666666  0.1333334  0.7919459  )
       288           N   tau( 288) = (  0.8666666  0.3333334  0.1252792  )
       289           N   tau( 289) = (  0.8666666  0.3333334  0.4586126  )
       290           N   tau( 290) = (  0.8666666  0.3333334  0.7919459  )
       291           N   tau( 291) = (  0.8666666  0.5333334  0.1252792  )
       292           N   tau( 292) = (  0.8666666  0.5333334  0.4586126  )
       293           N   tau( 293) = (  0.8666666  0.5333334  0.7919459  )
       294           N   tau( 294) = (  0.8666666  0.7333334  0.1252792  )
       295           N   tau( 295) = (  0.8666666  0.7333334  0.4586126  )
       296           N   tau( 296) = (  0.8666666  0.7333334  0.7919459  )
       297           N   tau( 297) = (  0.8666666  0.9333334  0.1252792  )
       298           N   tau( 298) = (  0.8666666  0.9333334  0.4586126  )
       299           N   tau( 299) = (  0.8666666  0.9333334  0.7919459  )

     number of k points=     6  Gaussian smearing, width (Ry)=  0.0100
                       cart. coord. in units 2pi/alat
        k(    1) = (   0.0000000   0.0000000   0.0000000), wk =   0.2500000
        k(    2) = (   0.0000000   0.0000000  -0.5112854), wk =   0.2500000
        k(    3) = (   0.0000000  -0.5773503   0.0000000), wk =   0.5000000
        k(    4) = (   0.0000000  -0.5773503  -0.5112854), wk =   0.5000000
        k(    5) = (  -0.5000000  -0.2886751   0.0000000), wk =   0.2500000
        k(    6) = (  -0.5000000  -0.2886751  -0.5112854), wk =   0.2500000

                       cryst. coord.
        k(    1) = (   0.0000000   0.0000000   0.0000000), wk =   0.2500000
        k(    2) = (   0.0000000   0.0000000  -0.5000000), wk =   0.2500000
        k(    3) = (   0.0000000  -0.5000000   0.0000000), wk =   0.5000000
        k(    4) = (   0.0000000  -0.5000000  -0.5000000), wk =   0.5000000
        k(    5) = (  -0.5000000  -0.0000000   0.0000000), wk =   0.2500000
        k(    6) = (  -0.5000000  -0.0000000  -0.5000000), wk =   0.2500000

     Dense  grid:  2698283 G-vectors     FFT dimensions: ( 192, 192, 180)

     Smooth grid:  1930731 G-vectors     FFT dimensions: ( 180, 180, 160)

     Dynamical RAM for                 wfc:      92.85 MB

     Dynamical RAM for     wfc (w. buffer):     371.39 MB

     Dynamical RAM for           str. fact:       1.29 MB

     Dynamical RAM for           local pot:       0.00 MB

     Dynamical RAM for          nlocal pot:     223.31 MB

     Dynamical RAM for                qrad:       3.00 MB

     Dynamical RAM for          rho,v,vnew:       4.46 MB

     Dynamical RAM for               rhoin:       1.49 MB

     Dynamical RAM for            rho*nmix:      10.29 MB

     Dynamical RAM for           G-vectors:       2.64 MB

     Dynamical RAM for          h,s,v(r/c):    1907.96 MB

     Dynamical RAM for          <psi|beta>:      95.60 MB

     Dynamical RAM for                 psi:     371.39 MB

     Dynamical RAM for                hpsi:     371.39 MB

     Dynamical RAM for                spsi:     371.39 MB

     Dynamical RAM for      wfcinit/wfcrot:     245.33 MB

     Dynamical RAM for           addusdens:     108.40 MB

     Dynamical RAM for          addusforce:     204.85 MB

     Dynamical RAM for         addusstress:      64.82 MB

     Estimated static dynamical RAM per process >     613.73 MB

     Estimated max dynamical RAM per process >       3.65 GB

     Estimated total dynamical RAM >     467.07 GB

     Atomic positions and unit cell read from directory:
     ./GaN.save/
     Atomic positions from file used, from input discarded
 

     Check: negative core charge=   -0.000003

     The initial density is read from file :
     ./GaN.save/charge-density


     starting charge    2689.0000, renormalised to    2690.0000


     %%%%%%%%%%%%%%%%%%%%%%%%%%%%%%%%%%%%%%%%%%%%%%%%%%%%%%%%%%%%%%%%%%%%%%%%
     %                                                                      %
     % You are using vdW-DF, which was implemented by the Thonhauser group. %
     % Please cite the following two papers that made this development      %
     % possible and the two reviews that describe the various versions:     %
     %                                                                      %
     %   T. Thonhauser et al., PRL 115, 136402 (2015).                      %
     %   T. Thonhauser et al., PRB 76, 125112 (2007).                       %
     %   K. Berland et al., Rep. Prog. Phys. 78, 066501 (2015).             %
     %   D.C. Langreth et al., J. Phys.: Condens. Matter 21, 084203 (2009). %
     %                                                                      %
     % If you are calculating stress with vdW-DF, please also cite:         %
     %                                                                      %
     %   R. Sabatini et al., J. Phys.: Condens. Matter 24, 424209 (2012).   %
     %                                                                      %
     %%%%%%%%%%%%%%%%%%%%%%%%%%%%%%%%%%%%%%%%%%%%%%%%%%%%%%%%%%%%%%%%%%%%%%%%

     %%%%%%%%%%%%%%%%%%%%%%%%%%%%%%%%%%%%%%%%%%%%%%%%%%%%%%%%%%%%%%%%%%%%%%%%
     %                                                                      %
     %  vdW-DF NEWS:                                                        %
     %                                                                      %
     %  * vdW-DF3 is now available. DOI: 10.1021/acs.jctc.0c00471           %
     %    use with input_dft = 'vdW-DF3-opt1' or 'vdW-DF3-opt2'             %
     %                                                                      %
     %  * Unscreened and range-separated vdW-DF hybrid functionals          %
     %    DOI: 10.1063/1.4986522 and 10.1088/1361-648X/ac2ad2               %
     %    use with input_dft = 'vdW-DF-cx0' (etc) and 'vdW-DF-ahcx'         %
     %                                                                      %
     %%%%%%%%%%%%%%%%%%%%%%%%%%%%%%%%%%%%%%%%%%%%%%%%%%%%%%%%%%%%%%%%%%%%%%%%


     Carrying out vdW-DF run using the following parameters:
     Nqs    =  20  Npoints =  1024  r_max =  100.000
     q_mesh =  0.00001000  0.04494208  0.09755937  0.15916263
               0.23128650  0.31572767  0.41458969  0.53033537
               0.66584808  0.82450364  1.01025438  1.22772762
               1.48234092  1.78043706  2.12944203  2.53805004
               3.01644009  3.57652955  4.23227104  5.00000000


     -----------------------------------------------
     Non-local corr. energy    =      81.34027930 Ry
     -----------------------------------------------

     Wavefunctions not found or not readable, recomputing them from scratch
     Starting wfcs are 1941 randomized atomic wfcs
     Checking if some PAW data can be deallocated... 
       PAW data deallocated on   75 nodes for type:  1
       PAW data deallocated on   53 nodes for type:  2

     total cpu time spent up to now is      172.4 secs

     Self-consistent Calculation

     iteration #  1     ecut=    70.00 Ry     beta= 0.70
     Davidson diagonalization with overlap

---- Real-time Memory Report at c_bands before calling an iterative solver
          1308 MiB given to the printing process from OS
             0 MiB allocation reported by mallinfo(arena+hblkhd)
       1920580 MiB available memory on the node where the printing process lives
------------------
     ethr =  1.00E-05,  avg # of iterations = 30.0


     -----------------------------------------------
     Non-local corr. energy    =      81.23775713 Ry
     -----------------------------------------------


     total cpu time spent up to now is     5776.0 secs

     total energy              =  -46557.54807535 Ry
     estimated scf accuracy    <       0.12573511 Ry

     iteration #  2     ecut=    70.00 Ry     beta= 0.70
     Davidson diagonalization with overlap

---- Real-time Memory Report at c_bands before calling an iterative solver
          3655 MiB given to the printing process from OS
             0 MiB allocation reported by mallinfo(arena+hblkhd)
       1924152 MiB available memory on the node where the printing process lives
------------------
     ethr =  4.67E-06,  avg # of iterations = 13.3


     -----------------------------------------------
     Non-local corr. energy    =      81.23996954 Ry
     -----------------------------------------------


     total cpu time spent up to now is    10058.2 secs

     total energy              =  -46557.07878807 Ry
     estimated scf accuracy    <       4.83298299 Ry

     iteration #  3     ecut=    70.00 Ry     beta= 0.70
     Davidson diagonalization with overlap

---- Real-time Memory Report at c_bands before calling an iterative solver
          3655 MiB given to the printing process from OS
             0 MiB allocation reported by mallinfo(arena+hblkhd)
       1901161 MiB available memory on the node where the printing process lives
------------------
     ethr =  4.67E-06,  avg # of iterations = 12.8


     -----------------------------------------------
     Non-local corr. energy    =      81.26929838 Ry
     -----------------------------------------------


     total cpu time spent up to now is    13891.2 secs

     total energy              =  -46557.63187332 Ry
     estimated scf accuracy    <       0.05958590 Ry

     iteration #  4     ecut=    70.00 Ry     beta= 0.70
     Davidson diagonalization with overlap

---- Real-time Memory Report at c_bands before calling an iterative solver
          3655 MiB given to the printing process from OS
             0 MiB allocation reported by mallinfo(arena+hblkhd)
       1901287 MiB available memory on the node where the printing process lives
------------------
     ethr =  2.22E-06,  avg # of iterations = 15.7


     -----------------------------------------------
     Non-local corr. energy    =      81.28264924 Ry
     -----------------------------------------------


     total cpu time spent up to now is    16441.0 secs

     total energy              =  -46557.63270418 Ry
     estimated scf accuracy    <       0.02926703 Ry

     iteration #  5     ecut=    70.00 Ry     beta= 0.70
     Davidson diagonalization with overlap

---- Real-time Memory Report at c_bands before calling an iterative solver
          3655 MiB given to the printing process from OS
             0 MiB allocation reported by mallinfo(arena+hblkhd)
       1901274 MiB available memory on the node where the printing process lives
------------------
     ethr =  1.09E-06,  avg # of iterations = 15.3


     -----------------------------------------------
     Non-local corr. energy    =      81.30200463 Ry
     -----------------------------------------------


     total cpu time spent up to now is    18385.7 secs

     total energy              =  -46557.63062792 Ry
     estimated scf accuracy    <       0.02050126 Ry

     iteration #  6     ecut=    70.00 Ry     beta= 0.70
     Davidson diagonalization with overlap

---- Real-time Memory Report at c_bands before calling an iterative solver
          3655 MiB given to the printing process from OS
             0 MiB allocation reported by mallinfo(arena+hblkhd)
       1901259 MiB available memory on the node where the printing process lives
------------------
     ethr =  7.62E-07,  avg # of iterations = 14.7


     -----------------------------------------------
     Non-local corr. energy    =      81.32670993 Ry
     -----------------------------------------------


     total cpu time spent up to now is    20412.8 secs

     total energy              =  -46557.62853245 Ry
     estimated scf accuracy    <       0.00820223 Ry

     iteration #  7     ecut=    70.00 Ry     beta= 0.70
     Davidson diagonalization with overlap

---- Real-time Memory Report at c_bands before calling an iterative solver
          3655 MiB given to the printing process from OS
             0 MiB allocation reported by mallinfo(arena+hblkhd)
       1901242 MiB available memory on the node where the printing process lives
------------------
     ethr =  3.05E-07,  avg # of iterations = 13.5


     -----------------------------------------------
     Non-local corr. energy    =      81.32449625 Ry
     -----------------------------------------------


     total cpu time spent up to now is    23076.1 secs

     total energy              =  -46557.63004531 Ry
     estimated scf accuracy    <       0.00099658 Ry

     iteration #  8     ecut=    70.00 Ry     beta= 0.70
     Davidson diagonalization with overlap

---- Real-time Memory Report at c_bands before calling an iterative solver
          3655 MiB given to the printing process from OS
             0 MiB allocation reported by mallinfo(arena+hblkhd)
       1901091 MiB available memory on the node where the printing process lives
------------------
     ethr =  3.70E-08,  avg # of iterations = 15.5


     -----------------------------------------------
     Non-local corr. energy    =      81.31546045 Ry
     -----------------------------------------------


     total cpu time spent up to now is    25680.3 secs

     total energy              =  -46557.62998153 Ry
     estimated scf accuracy    <       0.00092779 Ry

     iteration #  9     ecut=    70.00 Ry     beta= 0.70
     Davidson diagonalization with overlap

---- Real-time Memory Report at c_bands before calling an iterative solver
          3655 MiB given to the printing process from OS
             0 MiB allocation reported by mallinfo(arena+hblkhd)
       1900960 MiB available memory on the node where the printing process lives
------------------
     ethr =  3.45E-08,  avg # of iterations = 15.2


     -----------------------------------------------
     Non-local corr. energy    =      81.30861876 Ry
     -----------------------------------------------


     total cpu time spent up to now is    28291.2 secs

     total energy              =  -46557.63005322 Ry
     estimated scf accuracy    <       0.00007300 Ry

     iteration # 10     ecut=    70.00 Ry     beta= 0.70
     Davidson diagonalization with overlap

---- Real-time Memory Report at c_bands before calling an iterative solver
          3655 MiB given to the printing process from OS
             0 MiB allocation reported by mallinfo(arena+hblkhd)
       1900951 MiB available memory on the node where the printing process lives
------------------
     c_bands:  5 eigenvalues not converged
     c_bands:  3 eigenvalues not converged
     ethr =  2.71E-09,  avg # of iterations = 16.3


     -----------------------------------------------
     Non-local corr. energy    =      81.30623523 Ry
     -----------------------------------------------


     total cpu time spent up to now is    30343.7 secs

     total energy              =  -46557.63009931 Ry
     estimated scf accuracy    <       0.00013031 Ry

     iteration # 11     ecut=    70.00 Ry     beta= 0.70
     Davidson diagonalization with overlap

---- Real-time Memory Report at c_bands before calling an iterative solver
          3655 MiB given to the printing process from OS
             0 MiB allocation reported by mallinfo(arena+hblkhd)
       1900112 MiB available memory on the node where the printing process lives
------------------
     c_bands:  1 eigenvalues not converged
     ethr =  2.71E-09,  avg # of iterations = 15.0


     -----------------------------------------------
     Non-local corr. energy    =      81.30503498 Ry
     -----------------------------------------------


     total cpu time spent up to now is    32498.6 secs

     total energy              =  -46557.63008586 Ry
     estimated scf accuracy    <       0.00007792 Ry

     iteration # 12     ecut=    70.00 Ry     beta= 0.70
     Davidson diagonalization with overlap

---- Real-time Memory Report at c_bands before calling an iterative solver
          3655 MiB given to the printing process from OS
             0 MiB allocation reported by mallinfo(arena+hblkhd)
       1900104 MiB available memory on the node where the printing process lives
------------------
     ethr =  2.71E-09,  avg # of iterations = 12.2


     -----------------------------------------------
     Non-local corr. energy    =      81.30661085 Ry
     -----------------------------------------------


     total cpu time spent up to now is    34495.2 secs

     total energy              =  -46557.63008965 Ry
     estimated scf accuracy    <       0.00000988 Ry

     iteration # 13     ecut=    70.00 Ry     beta= 0.70
     Davidson diagonalization with overlap

---- Real-time Memory Report at c_bands before calling an iterative solver
          3655 MiB given to the printing process from OS
             0 MiB allocation reported by mallinfo(arena+hblkhd)
       1900093 MiB available memory on the node where the printing process lives
------------------
     ethr =  3.67E-10,  avg # of iterations = 14.3


     -----------------------------------------------
     Non-local corr. energy    =      81.30674251 Ry
     -----------------------------------------------


     total cpu time spent up to now is    37892.7 secs

     total energy              =  -46557.63009152 Ry
     estimated scf accuracy    <       0.00000056 Ry

     iteration # 14     ecut=    70.00 Ry     beta= 0.70
     Davidson diagonalization with overlap

---- Real-time Memory Report at c_bands before calling an iterative solver
          3655 MiB given to the printing process from OS
             0 MiB allocation reported by mallinfo(arena+hblkhd)
       1900084 MiB available memory on the node where the printing process lives
------------------
     ethr =  2.08E-11,  avg # of iterations = 13.3


     -----------------------------------------------
     Non-local corr. energy    =      81.30680695 Ry
     -----------------------------------------------


     total cpu time spent up to now is    42347.3 secs

     total energy              =  -46557.63009173 Ry
     estimated scf accuracy    <       0.00000030 Ry

     iteration # 15     ecut=    70.00 Ry     beta= 0.70
     Davidson diagonalization with overlap

---- Real-time Memory Report at c_bands before calling an iterative solver
          3655 MiB given to the printing process from OS
             0 MiB allocation reported by mallinfo(arena+hblkhd)
       1900002 MiB available memory on the node where the printing process lives
------------------
     ethr =  1.11E-11,  avg # of iterations = 14.2


     -----------------------------------------------
     Non-local corr. energy    =      81.30684218 Ry
     -----------------------------------------------


     total cpu time spent up to now is    45096.2 secs

     End of self-consistent calculation

          k = 0.0000 0.0000 0.0000 (241213 PWs)   bands (ev):

    -7.0102  -6.8273  -6.8038  -6.8037  -6.8033  -6.7787  -6.7537  -6.7536
    -6.7023  -6.6883  -6.6682  -6.6653  -6.6651  -6.6416  -6.6409  -6.6389
    -6.6384  -6.6314  -6.6276  -6.6207  -6.6202  -6.6145  -6.6140  -6.6138
    -6.6074  -6.6041  -6.6035  -6.5991  -6.5940  -6.5934  -6.5933  -6.5900
    -6.5794  -6.5794  -6.5790  -6.5782  -6.5780  -6.5746  -6.5722  -6.5718
    -6.5690  -6.5685  -6.5625  -6.5608  -6.5604  -6.5598  -6.5596  -6.5594
    -6.5558  -6.5547  -6.5546  -6.5523  -6.5511  -6.5483  -6.5437  -6.5434
    -6.5360  -6.5356  -6.5355  -6.5331  -6.5326  -6.5321  -6.5286  -6.5280
    -6.5234  -6.5227  -6.5185  -6.5148  -6.5104  -6.5100  -6.5031  -6.5024
    -6.4978  -6.4977  -6.4963  -6.4961  -6.4893  -6.4885  -6.4856  -6.4805
    -6.4778  -6.4775  -6.4772  -6.4748  -6.4743  -6.4740  -6.4689  -6.4682
    -6.4665  -6.4661  -6.4617  -6.4616  -6.4599  -6.4598  -6.4524  -6.4523
    -6.4515  -6.4502  -6.4495  -6.4488  -6.4451  -6.4449  -6.4402  -6.4370
    -6.4365  -6.4318  -6.4250  -6.4249  -6.4218  -6.4212  -6.4181  -6.4149
    -6.4148  -6.4123  -6.4123  -6.4099  -6.4079  -6.4076  -6.3802  -6.3773
    -6.3755  -6.3176  -6.2797  -6.2783  -6.2782  -6.2405  -6.2348  -6.2344
    -6.2317  -6.2312  -6.2147  -6.2135  -6.2101  -6.1948  -6.1945  -6.1930
    -6.1820  -6.1679  -6.1676  -6.1468  -6.1466  -6.1306  -6.1257  -6.1162
    -6.1158  -5.9721  -5.4983  -5.4983  -5.4844  -5.4811  -5.4811  -5.4771
    -5.4750  -5.4739  -5.4739  -5.4684  -5.4671  -5.4671  -5.4662  -5.4662
    -5.4650  -5.4649  -5.4612  -5.4602  -5.4602  -5.4592  -5.4588  -5.4556
    -5.4530  -5.4514  -5.4514  -5.4491  -5.4490  -5.4453  -5.4435  -5.4435
    -5.4401  -5.4400  -5.4399  -5.4384  -5.4384  -5.4358  -5.4357  -5.4351
    -5.4351  -5.4332  -5.4301  -5.4271  -5.4264  -5.4263  -5.4246  -5.4245
    -5.4224  -5.4203  -5.4202  -5.4201  -5.4193  -5.4192  -5.4154  -5.4147
    -5.4147  -5.4110  -5.4093  -5.4093  -5.4087  -5.4082  -5.4075  -5.4075
    -5.4070  -5.4057  -5.4050  -5.4049  -5.4023  -5.4023  -5.4013  -5.4013
    -5.4012  -5.4008  -5.3991  -5.3991  -5.3968  -5.3968  -5.3964  -5.3963
    -5.3957  -5.3932  -5.3906  -5.3906  -5.3904  -5.3887  -5.3873  -5.3873
    -5.3866  -5.3865  -5.3853  -5.3842  -5.3842  -5.3837  -5.3836  -5.3821
    -5.3798  -5.3796  -5.3762  -5.3762  -5.3755  -5.3748  -5.3747  -5.3744
    -5.3744  -5.3727  -5.3726  -5.3712  -5.3698  -5.3690  -5.3689  -5.3666
    -5.3666  -5.3646  -5.3627  -5.3625  -5.3624  -5.3610  -5.3596  -5.3582
    -5.3581  -5.3566  -5.3566  -5.3557  -5.3556  -5.3555  -5.3555  -5.3540
    -5.3540  -5.3532  -5.3500  -5.3500  -5.3492  -5.3485  -5.3484  -5.3466
    -5.3466  -5.3450  -5.3441  -5.3433  -5.3433  -5.3426  -5.3425  -5.3416
    -5.3401  -5.3398  -5.3398  -5.3385  -5.3385  -5.3372  -5.3370  -5.3357
    -5.3336  -5.3336  -5.3324  -5.3324  -5.3321  -5.3306  -5.3296  -5.3295
    -5.3293  -5.3293  -5.3271  -5.3263  -5.3263  -5.3236  -5.3236  -5.3232
    -5.3229  -5.3229  -5.3225  -5.3208  -5.3208  -5.3201  -5.3186  -5.3176
    -5.3175  -5.3175  -5.3156  -5.3156  -5.3148  -5.3148  -5.3139  -5.3134
    -5.3134  -5.3125  -5.3116  -5.3116  -5.3103  -5.3103  -5.3097  -5.3096
    -5.3092  -5.3087  -5.3087  -5.3063  -5.3063  -5.3057  -5.3057  -5.3037
    -5.3024  -5.3019  -5.3019  -5.3016  -5.3016  -5.2991  -5.2989  -5.2988
    -5.2979  -5.2979  -5.2974  -5.2959  -5.2952  -5.2952  -5.2951  -5.2935
    -5.2934  -5.2932  -5.2924  -5.2923  -5.2919  -5.2918  -5.2914  -5.2892
    -5.2888  -5.2888  -5.2880  -5.2857  -5.2856  -5.2856  -5.2850  -5.2849
    -5.2848  -5.2838  -5.2838  -5.2828  -5.2828  -5.2827  -5.2816  -5.2808
    -5.2808  -5.2800  -5.2800  -5.2783  -5.2783  -5.2782  -5.2778  -5.2762
    -5.2762  -5.2758  -5.2748  -5.2748  -5.2744  -5.2727  -5.2727  -5.2719
    -5.2719  -5.2703  -5.2698  -5.2681  -5.2668  -5.2668  -5.2661  -5.2657
    -5.2647  -5.2647  -5.2639  -5.2639  -5.2636  -5.2635  -5.2629  -5.2629
    -5.2622  -5.2619  -5.2593  -5.2580  -5.2574  -5.2574  -5.2562  -5.2561
    -5.2559  -5.2541  -5.2537  -5.2536  -5.2536  -5.2531  -5.2531  -5.2525
    -5.2524  -5.2521  -5.2505  -5.2505  -5.2499  -5.2493  -5.2493  -5.2491
    -5.2487  -5.2479  -5.2479  -5.2451  -5.2442  -5.2439  -5.2439  -5.2424
    -5.2423  -5.2401  -5.2400  -5.2394  -5.2376  -5.2376  -5.2367  -5.2357
    -5.2356  -5.2356  -5.2341  -5.2341  -5.2330  -5.2320  -5.2319  -5.2307
    -5.2306  -5.2303  -5.2299  -5.2299  -5.2294  -5.2278  -5.2273  -5.2272
    -5.2264  -5.2257  -5.2256  -5.2255  -5.2254  -5.2245  -5.2245  -5.2227
    -5.2217  -5.2217  -5.2206  -5.2194  -5.2193  -5.2193  -5.2179  -5.2178
    -5.2166  -5.2166  -5.2145  -5.2130  -5.2110  -5.2110  -5.2096  -5.2095
    -5.2090  -5.2090  -5.2086  -5.2076  -5.2075  -5.2067  -5.2053  -5.2048
    -5.2035  -5.2035  -5.2006  -5.2006  -5.1990  -5.1990  -5.1980  -5.1979
    -5.1973  -5.1963  -5.1954  -5.1954  -5.1952  -5.1943  -5.1927  -5.1926
    -5.1918  -5.1908  -5.1908  -5.1902  -5.1900  -5.1899  -5.1879  -5.1879
    -5.1858  -5.1857  -5.1849  -5.1845  -5.1835  -5.1819  -5.1818  -5.1817
    -5.1797  -5.1797  -5.1786  -5.1786  -5.1780  -5.1777  -5.1753  -5.1752
    -5.1725  -5.1724  -5.1699  -5.1697  -5.1669  -5.1669  -5.1656  -5.1642
    -5.1642  -5.1638  -5.1637  -5.1615  -5.1606  -5.1600  -5.1599  -5.1593
    -5.1593  -5.1592  -5.1575  -5.1574  -5.1553  -5.1542  -5.1542  -5.1495
    -5.1495  -5.1493  -5.1491  -5.1481  -5.1481  -5.1474  -5.1470  -5.1470
    -5.1433  -5.1417  -5.1417  -5.1397  -5.1394  -5.1379  -5.1378  -5.1349
    -5.1349  -5.1340  -5.1335  -5.1325  -5.1324  -5.1316  -5.1305  -5.1303
    -5.1302  -5.1287  -5.1286  -5.1262  -5.1262  -5.1247  -5.1227  -5.1227
    -5.1198  -5.1188  -5.1188  -5.1187  -5.1166  -5.1165  -5.1164  -5.1132
    -5.1132  -5.1126  -5.1126  -5.1103  -5.1102  -5.1065  -5.1065  -5.1059
    -5.1011  -5.1006  -5.1005  -5.0990  -5.0989  -5.0985  -5.0972  -5.0948
    -5.0948  -5.0930  -5.0929  -5.0921  -5.0903  -5.0903  -5.0880  -5.0874
    -5.0854  -5.0854  -5.0849  -5.0846  -5.0839  -5.0839  -5.0822  -5.0822
    -5.0783  -5.0783  -5.0771  -5.0771  -5.0762  -5.0735  -5.0734  -5.0732
    -5.0661  -5.0660  -5.0659  -5.0616  -5.0615  -5.0613  -5.0606  -5.0576
    -5.0574  -5.0532  -5.0525  -5.0525  -5.0504  -5.0491  -5.0491  -5.0481
    -5.0443  -5.0442  -5.0424  -5.0424  -5.0418  -5.0406  -5.0355  -5.0355
    -5.0297  -5.0292  -5.0288  -5.0287  -5.0240  -5.0238  -5.0235  -5.0208
    -5.0200  -5.0198  -5.0128  -5.0116  -5.0116  -5.0108  -5.0107  -5.0052
    -5.0052  -4.9997  -4.9869  -4.9869  -4.9806  -4.9804  -4.9724  -4.9724
    -4.9577  -4.9576  -4.9540  -4.9396  -4.9364  -4.9364  -4.9342  -4.9341
    -4.9328  -4.9094  -4.9093  -4.9026  -4.9025  -4.8958  -4.8603  -4.8230
    -4.8229  -4.8218  -4.7741  -4.7740  -4.7730  -4.7529  -4.7529  -4.7037
    -4.6995  -4.6992  -4.6784  -4.6502  -4.6501  -4.6339  -4.6339  -4.6326
    -4.6217  -4.6127  -4.6124  -4.5846  -4.5846  -4.5778  -4.5675  -4.5673
    -4.5617  -4.5462  -4.5462  -4.5218  -4.5218  -4.5188  -4.5101  -4.5036
    -4.5036  -4.4945  -4.4921  -4.4913  -4.4811  -4.4811  -4.4744  -4.4743
    -4.4683  -4.4682  -4.4666  -4.4511  -4.4509  -4.4478  -4.4476  -4.4464
    -4.4463  -4.4430  -4.4368  -4.4367  -4.4313  -4.4247  -4.4247  -4.4233
    -4.4164  -4.4162  -4.4123  -4.4062  -4.3909  -4.3771  -4.1931  -4.1930
    -4.1912  -4.1912  -4.1848  -4.1767  -4.1726  -4.1724  -4.1627  -4.1460
    -4.1459  -4.1387  -4.1348  -4.1276  -4.1183  -4.1152  -4.1151  -4.1020
    -4.1019  -4.0941  -4.0941  -4.0809  -4.0809  -4.0722  -4.0017  -4.0015
    -3.9824  -3.9823  -3.9429  -3.9045  -3.9044  -3.8986  -3.8794  -3.8750
    -3.8749  -3.8590  -3.8301  -3.8301  -3.8266  -3.7863  -3.7861  -3.6490
    -3.6187  -3.5579  -3.5578  -3.5223  -3.5220  -3.5186  -3.5143  -3.5143
    -3.5130  -3.5127  -3.5096  -3.5095  -3.5092  -3.5048  -3.5001  -3.4952
    -3.4950  -3.4870  -3.4864  -3.4408  -3.4407  -3.4330  -3.4228  -3.4018
    -3.4016  -3.4011  -3.3914  -3.3914  -3.3791  -3.3791  -3.3736  -3.3553
    -3.3450  -3.3449  -3.3367  -3.3364  -3.3276  -3.3273  -3.3045  -3.2835
    -3.2835  -3.2762  -3.2760  -3.2727  -3.2727  -3.2671  -3.2646  -3.1803
    -3.1802  -3.1802  -3.1761  -3.1690  -3.1690  -3.1614  -3.1029  -3.1028
    -3.0898  -3.0897  -3.0721  -3.0627  -3.0626  -3.0583  -3.0448  -3.0386
    -3.0385  -2.9873  -2.9476  -2.9475  -2.9316  -2.8918  -2.8917  -2.8610
    -2.8437  -2.8436  -2.8227  -2.2258  -2.1603  -2.1328  -2.1320   1.9615
     2.3700   2.4066   2.4068   2.4372   2.4372   2.4431   2.4432   2.4456
     2.4502   2.4672   2.4703   2.4712   2.4806   2.4813   2.4854   2.4936
     2.4937   2.5015   2.5016   2.5036   2.5036   2.5068   2.5147   2.5792
     2.5799   2.5830   2.6259   2.6265   2.6275   2.6472   2.6806   2.6816
     2.6824   2.7182   2.7184   2.7370   2.8366   2.8403   2.8404   2.8656
     2.8656   2.8690   2.8765   2.8766   2.8897   2.8936   2.8971   2.8972
     2.9445   2.9449   2.9578   2.9580   2.9978   3.0024   3.0025   3.0129
     3.0245   3.0401   3.0402   3.0644   3.1270   3.1270   3.1386   3.1458
     3.1593   3.1596   3.1633   3.1635   3.1649   3.1708   3.1713   3.1949
     3.2063   3.2064   3.2328   3.2513   3.2702   3.2733   3.2734   3.3363
     3.3366   3.3767   3.3768   3.4518   3.4591   3.5278   3.5331   3.5422
     3.5695   3.5696   3.5785   3.5785   3.5989   3.5990   3.6459   3.6462
     3.6677   3.6893   3.6894   3.7222   3.7223   3.7318   3.8277   3.8331
     3.8337   3.8643   3.8929   3.8931   3.8938   3.9018   3.9019   3.9019
     3.9290   3.9606   3.9606   3.9839   3.9858   3.9859   4.0378   4.0455
     4.0456   4.4007   4.4385   4.4388   4.4527   4.4531   4.4572   4.4701
[...]
N             3.2430722761        9.3670520281        4.6340405204
N             3.2441278529        9.3665134586        9.9205304363
N             3.2440643310        9.3664915105       15.2073651064
N             1.6222713840       12.1743615223        4.6340405204
N             1.6223327575       12.1755449634        9.9205304363
N             1.6222819890       12.1755009259       15.2073651064
N            11.3502137668        0.9347113154        4.6365405935
N            11.3541789143        0.9363501237        9.9194015676
N            11.3554658845        0.9368854744       15.2072128574
N             9.7336521888        3.7463306777        4.6321738485
N             9.7337651629        3.7469331180        9.9198874795
N             9.7336985333        3.7467920183       15.2083803218
N             8.1112449060        6.5564225221        4.6321738485
N             8.1118231216        6.5562191404        9.9198874795
N             8.1116676109        6.5562319873       15.2083803218
N             6.4845919016        9.3622155965        4.6365405935
N             6.4879937249        9.3648301108        9.9194015676
N             6.4891008374        9.3656769844       15.2072128574
N             4.8626995578       12.1736839380        4.6354005438
N             4.8632708915       12.1740137977        9.9187328083
N             4.8617213133       12.1731191483       15.2066483360
N            14.5886992703        0.9340844413        4.6373506912
N            14.5944657201        0.9347816655        9.9207702164
N            14.5944639618        0.9282144705       15.1878261712
N            12.9761649455        3.7475431429        4.6309045099
N            12.9766316415        3.7473968882        9.9175107623
N            12.9804518527        3.7450948824       15.2099828378
N            11.3560599441        6.5564227950        4.6320101518
N            11.3556326832        6.5561761157        9.9197424300
N            11.3556394271        6.5561800093       15.2082786484
N             9.7335513101        9.3639147089        4.6309045099
N             9.7336579978        9.3643920069        9.9175107623
N             9.7335745079        9.3688514098       15.2099828378
N             8.1032917644       12.1671397495        4.6373506912
N             8.1067788032       12.1717850294        9.9207702164
N             8.1010905663       12.1750671041       15.1878261712
N            -0.1513594728        1.9595608982        1.9336426746
N            -0.0241546095        1.8874605150        7.2949392489
N            -0.0003608137        1.8735125951       12.5497759585
N            -1.6327619874        4.7160480012        1.9943107992
N            -1.6270828207        4.6896177404        7.2760847321
N            -1.6250666456        4.6846103187       12.5596733013
N            -3.2433914088        7.4936342861        1.9885828175
N            -3.2453179473        7.4925219986        7.2779696588
N            -3.2443814777        7.4930626696       12.5635092855
N            -4.8435369819       10.2772734235        1.9943107992
N            -4.8635866759       10.2954068566        7.2760847321
N            -4.8669151427       10.2996566262       12.5596733013
N            -6.4900235809       12.9384491860        1.9336426746
N            -6.4888619128       13.0846620207        7.2949392489
N            -6.4890442678       13.1122420123       12.5497759585
N             3.3941226917        1.9596003286        1.9331132370
N             3.2688188923        1.8872561463        7.2953372597
N             3.2448235354        1.8734024205       12.5500602452
N             1.6217856398        4.6960716890        1.9864027811
N             1.6223862261        4.6871117054        7.2799010493
N             1.6222136792        4.6873004146       12.5535646270
N             0.0013660917        7.4997053060        1.9894152612
N            -0.0001215653        7.4951085896        7.2777651826
N            -0.0002697584        7.4936005192       12.5627847090
N            -1.6157550011       10.3006412007        1.9894152612
N            -1.6204797027       10.3016512101        7.2777651826
N            -1.6218598266       10.3022769064       12.5627847090
N            -3.2335631622       13.1057825028        1.9864027811
N            -3.2410224424       13.1107826175        7.2799010493
N            -3.2409452890       13.1105388329       12.5535646270
N             6.5223483370        1.8656672932        1.9945489228
N             6.4973594968        1.8745229456        7.2760486478
N             6.4918730852        1.8751144031       12.5598164642
N             4.8768871194        4.7156897241        1.9945489228
N             4.8720619193        4.6896209274        7.2760486478
N             4.8698309308        4.6845738269       12.5598164642
N             3.2429513401        7.4996267291        1.9892438156
N             3.2448363272        7.4951628397        7.2776143994
N             3.2449567708        7.4936256181       12.5626429942
N             1.6223418629       10.3028667004        1.9876625524
N             1.6224122004       10.3029073097        7.2776933732
N             1.6223619317       10.3028782871       12.5636315789
N             0.0049695735       13.1079756629        1.9892438156
N             0.0020462254       13.1118400543        7.2776143994
N             0.0007751742       13.1127129723       12.5626429942
N             9.7332329392        1.8718704802        1.9886829265
N             9.7336722521        1.8743199404        7.2780854451
N             9.7337277550        1.8732576143       12.5635212155
N             8.1127747425        4.6839153604        1.9893329800
N             8.1131543713        4.6841345392        7.2747775388
N             8.1114603199        4.6831564782       12.5640156629
N             6.4877015381        7.4932957647        1.9886829265
N             6.4900424892        7.4924514907        7.2780854451
N             6.4891502393        7.4930307208       12.5635212155
N             4.8600452402       10.3006309371        1.9892147899
N             4.8651010986       10.3016896267        7.2776838023
N             4.8664556619       10.3023163518       12.5626071671
N             3.2392573238       13.1079179568        1.9892147899
N             3.2427021051       13.1117671137        7.2776838023
N             3.2439221466       13.1126268374       12.5626071671
N            12.9436508662        1.8655448856        1.9943694895
N            12.9701936453        1.8744445869        7.2763812995
N            12.9756344670        1.8751199595       12.5599121276
N            11.3544499184        4.6838796059        1.9895695400
N            11.3543345305        4.6841517317        7.2749392197
N            11.3560709918        4.6831451829       12.5642753204
N             9.7335813661        7.4913062910        1.9895695400
N             9.7337593400        7.4910702993        7.2749392197
N             9.7337558738        7.4930773933       12.5642753204
N             8.0874323760       10.2767620435        1.9943694895
N             8.1084111329       10.2952989139        7.2763812995
N             8.1117164335       10.2996731174       12.5599121276
N             6.4770075548       13.1057092445        1.9861810510
N             6.4857627846       13.1107640788        7.2799805851
N             6.4856302536       13.1106875620       12.5535752000



     Writing config-only to output data dir ./GaN.save/
     NEW-OLD atomic charge density approx. for the potential

     Check: negative core charge=   -0.000003


     -----------------------------------------------
     Non-local corr. energy    =      81.30991080 Ry
     -----------------------------------------------


     total cpu time spent up to now is   130843.6 secs

     Self-consistent Calculation

     iteration #  1     ecut=    70.00 Ry     beta= 0.70
     Davidson diagonalization with overlap

---- Real-time Memory Report at c_bands before calling an iterative solver
          3655 MiB given to the printing process from OS
             0 MiB allocation reported by mallinfo(arena+hblkhd)
       1908034 MiB available memory on the node where the printing process lives
------------------
     ethr =  1.00E-06,  avg # of iterations =  2.0

     Threshold (ethr) on eigenvalues was too large:
     Diagonalizing with lowered threshold

     Davidson diagonalization with overlap

---- Real-time Memory Report at c_bands before calling an iterative solver
          3655 MiB given to the printing process from OS
             0 MiB allocation reported by mallinfo(arena+hblkhd)
       1908502 MiB available memory on the node where the printing process lives
------------------
     ethr =  1.25E-08,  avg # of iterations = 12.7


     -----------------------------------------------
     Non-local corr. energy    =      81.30988112 Ry
     -----------------------------------------------


     total cpu time spent up to now is   133221.6 secs

     total energy              =  -46557.63751015 Ry
     estimated scf accuracy    <       0.00036744 Ry

     iteration #  2     ecut=    70.00 Ry     beta= 0.70
     Davidson diagonalization with overlap

---- Real-time Memory Report at c_bands before calling an iterative solver
          3655 MiB given to the printing process from OS
             0 MiB allocation reported by mallinfo(arena+hblkhd)
       1898346 MiB available memory on the node where the printing process lives
------------------
     ethr =  1.37E-08,  avg # of iterations = 13.3


     -----------------------------------------------
     Non-local corr. energy    =      81.30991521 Ry
     -----------------------------------------------


     total cpu time spent up to now is   135780.8 secs

     total energy              =  -46557.63760082 Ry
     estimated scf accuracy    <       0.00009490 Ry

     iteration #  3     ecut=    70.00 Ry     beta= 0.70
     Davidson diagonalization with overlap

---- Real-time Memory Report at c_bands before calling an iterative solver
          3655 MiB given to the printing process from OS
             0 MiB allocation reported by mallinfo(arena+hblkhd)
       1898339 MiB available memory on the node where the printing process lives
------------------
     ethr =  3.53E-09,  avg # of iterations = 15.5


     -----------------------------------------------
     Non-local corr. energy    =      81.30989840 Ry
     -----------------------------------------------


     total cpu time spent up to now is   139118.6 secs

     total energy              =  -46557.63761014 Ry
     estimated scf accuracy    <       0.00007307 Ry

     iteration #  4     ecut=    70.00 Ry     beta= 0.70
     Davidson diagonalization with overlap

---- Real-time Memory Report at c_bands before calling an iterative solver
          3655 MiB given to the printing process from OS
             0 MiB allocation reported by mallinfo(arena+hblkhd)
       1898255 MiB available memory on the node where the printing process lives
------------------
     ethr =  2.72E-09,  avg # of iterations = 15.0


     -----------------------------------------------
     Non-local corr. energy    =      81.30989643 Ry
     -----------------------------------------------


     total cpu time spent up to now is   141811.9 secs

     total energy              =  -46557.63761940 Ry
     estimated scf accuracy    <       0.00002952 Ry

     iteration #  5     ecut=    70.00 Ry     beta= 0.70
     Davidson diagonalization with overlap

---- Real-time Memory Report at c_bands before calling an iterative solver
          3655 MiB given to the printing process from OS
             0 MiB allocation reported by mallinfo(arena+hblkhd)
       1898240 MiB available memory on the node where the printing process lives
------------------
     ethr =  1.10E-09,  avg # of iterations =  3.3


     -----------------------------------------------
     Non-local corr. energy    =      81.30988894 Ry
     -----------------------------------------------


     total cpu time spent up to now is   142417.9 secs

     total energy              =  -46557.63762350 Ry
     estimated scf accuracy    <       0.00002225 Ry

     iteration #  6     ecut=    70.00 Ry     beta= 0.70
     Davidson diagonalization with overlap

---- Real-time Memory Report at c_bands before calling an iterative solver
          3655 MiB given to the printing process from OS
             0 MiB allocation reported by mallinfo(arena+hblkhd)
       1898228 MiB available memory on the node where the printing process lives
------------------
     ethr =  8.27E-10,  avg # of iterations =  2.3


     -----------------------------------------------
     Non-local corr. energy    =      81.30988277 Ry
     -----------------------------------------------


     total cpu time spent up to now is   142950.1 secs

     total energy              =  -46557.63762612 Ry
     estimated scf accuracy    <       0.00000938 Ry

     iteration #  7     ecut=    70.00 Ry     beta= 0.70
     Davidson diagonalization with overlap

---- Real-time Memory Report at c_bands before calling an iterative solver
          3655 MiB given to the printing process from OS
             0 MiB allocation reported by mallinfo(arena+hblkhd)
       1898209 MiB available memory on the node where the printing process lives
------------------
     ethr =  3.49E-10,  avg # of iterations = 14.5


     -----------------------------------------------
     Non-local corr. energy    =      81.30988108 Ry
     -----------------------------------------------


     total cpu time spent up to now is   144939.1 secs

     total energy              =  -46557.63762650 Ry
     estimated scf accuracy    <       0.00000070 Ry

     iteration #  8     ecut=    70.00 Ry     beta= 0.70
     Davidson diagonalization with overlap

---- Real-time Memory Report at c_bands before calling an iterative solver
          3655 MiB given to the printing process from OS
             0 MiB allocation reported by mallinfo(arena+hblkhd)
       1898193 MiB available memory on the node where the printing process lives
------------------
     ethr =  2.60E-11,  avg # of iterations = 11.8


     -----------------------------------------------
     Non-local corr. energy    =      81.30987915 Ry
     -----------------------------------------------


     total cpu time spent up to now is   149040.1 secs

     total energy              =  -46557.63762676 Ry
     estimated scf accuracy    <       0.00000013 Ry

     iteration #  9     ecut=    70.00 Ry     beta= 0.70
     Davidson diagonalization with overlap

---- Real-time Memory Report at c_bands before calling an iterative solver
          3655 MiB given to the printing process from OS
             0 MiB allocation reported by mallinfo(arena+hblkhd)
       1898177 MiB available memory on the node where the printing process lives
------------------
     ethr =  4.81E-12,  avg # of iterations = 16.0


     -----------------------------------------------
     Non-local corr. energy    =      81.30987757 Ry
     -----------------------------------------------


     total cpu time spent up to now is   151531.4 secs

     total energy              =  -46557.63762677 Ry
     estimated scf accuracy    <          4.9E-09 Ry

     iteration # 10     ecut=    70.00 Ry     beta= 0.70
     Davidson diagonalization with overlap

---- Real-time Memory Report at c_bands before calling an iterative solver
          3655 MiB given to the printing process from OS
             0 MiB allocation reported by mallinfo(arena+hblkhd)
       1898160 MiB available memory on the node where the printing process lives
------------------
     c_bands:  1 eigenvalues not converged

     Maximum CPU time exceeded

     max_seconds     =  154800.00
     elapsed seconds =  154962.82
     Calculation stopped in k-point loop, point #     2
     Calculation stopped in scf loop at iteration #     9

     Writing config to output data dir ./GaN.save/
 
     init_run     :    163.52s CPU    170.69s WALL (       1 calls)
     electrons    : 147355.08s CPU 148750.60s WALL (       4 calls)
     update_pot   :      8.33s CPU      8.50s WALL (       3 calls)
     forces       :    289.68s CPU    294.15s WALL (       3 calls)
     stress       :   5610.55s CPU   5668.01s WALL (       3 calls)

     Called by init_run:
     wfcinit      :    158.51s CPU    165.10s WALL (       1 calls)
     wfcinit:atom :      0.26s CPU      0.48s WALL (       3 calls)
     wfcinit:wfcr :    156.21s CPU    161.96s WALL (       3 calls)
     potinit      :      1.99s CPU      2.27s WALL (       1 calls)
     hinit0       :      1.04s CPU      1.15s WALL (       1 calls)

     Called by electrons:
     c_bands      : 145658.92s CPU 147028.01s WALL (      52 calls)
     sum_band     :   1590.52s CPU   1614.11s WALL (      51 calls)
     v_of_rho     :     48.34s CPU     51.66s WALL (      54 calls)
     v_h          :      0.47s CPU      0.47s WALL (      54 calls)
     v_xc         :     53.20s CPU     56.78s WALL (      60 calls)
     newd         :     13.58s CPU     19.89s WALL (      54 calls)
     PAW_pot      :     45.87s CPU     46.24s WALL (      57 calls)
     mix_rho      :      2.65s CPU      2.84s WALL (      51 calls)
     vdW_kernel   :      0.24s CPU      0.25s WALL (       1 calls)

     Called by c_bands:
     init_us_2    :     79.01s CPU     80.21s WALL (     338 calls)
     init_us_2:cp :     79.00s CPU     80.21s WALL (     338 calls)
     cegterg      : 131046.72s CPU 132279.81s WALL (     158 calls)

     Called by sum_band:
     sum_band:wei :      0.44s CPU      0.44s WALL (      51 calls)
     sum_band:loo :   1572.86s CPU   1585.03s WALL (      51 calls)
     sum_band:buf :     18.72s CPU     18.96s WALL (     153 calls)
     sum_band:ini :     39.45s CPU     39.91s WALL (     153 calls)
     sum_band:cal :   1148.29s CPU   1156.30s WALL (     162 calls)
     sum_band:bec :      9.93s CPU     10.02s WALL (     162 calls)
     addusdens    :     12.49s CPU     18.77s WALL (      51 calls)
     addusd:skk   :      1.78s CPU      5.20s WALL (     102 calls)
     addusd:dgemm :      7.56s CPU     10.11s WALL (     102 calls)
     addusd:qvan2 :      2.53s CPU      2.56s WALL (     102 calls)

     Called by *egterg:
     cdiaghg      : 108813.93s CPU 109498.34s WALL (    2120 calls)
     cegterg:over :   4548.17s CPU   4666.47s WALL (    1977 calls)
     cegterg:upda :   2896.66s CPU   2940.54s WALL (    1977 calls)
     cegterg:last :   1483.62s CPU   1494.26s WALL (     167 calls)
     h_psi        :   9008.43s CPU   9143.84s WALL (    2138 calls)
     s_psi        :   3210.91s CPU   3264.01s WALL (    2138 calls)
     g_psi        :      8.69s CPU      8.79s WALL (    1977 calls)

     Called by h_psi:
     h_psi:calbec :   3387.87s CPU   3414.06s WALL (    2138 calls)
     vloc_psi     :   2370.09s CPU   2392.78s WALL (    2138 calls)
     add_vuspsi   :   3213.20s CPU   3271.00s WALL (    2138 calls)

     General routines
     calbec       :   5098.41s CPU   5136.39s WALL (    2345 calls)
     fft          :     23.33s CPU     23.62s WALL (    3907 calls)
     ffts         :      0.65s CPU      0.66s WALL (     105 calls)
     fftw         :   2568.56s CPU   2593.85s WALL ( 1708374 calls)
     interpolate  :      0.69s CPU      0.70s WALL (      54 calls)
     davcio       :      0.00s CPU      0.90s WALL (      21 calls)
 
     Parallel routines

     PAW routines
     PAW_pot      :     45.87s CPU     46.24s WALL (      57 calls)
     PAW_symme    :      0.23s CPU      0.24s WALL (     107 calls)
 
     PWSCF        :   1d18h38m CPU   1d19h 3m WALL

 
   This run was terminated on:   2:52:42  26Apr2024            

=------------------------------------------------------------------------------=
   JOB DONE.
=------------------------------------------------------------------------------=
