
     Program PWSCF v.7.1 starts on  1May2024 at 14:41:37 

     This program is part of the open-source Quantum ESPRESSO suite
     for quantum simulation of materials; please cite
         "P. Giannozzi et al., J. Phys.:Condens. Matter 21 395502 (2009);
         "P. Giannozzi et al., J. Phys.:Condens. Matter 29 465901 (2017);
         "P. Giannozzi et al., J. Chem. Phys. 152 154105 (2020);
          URL http://www.quantum-espresso.org", 
     in publications or presentations arising from this work. More details at
     http://www.quantum-espresso.org/quote

     Parallel version (MPI & OpenMP), running on     128 processor cores
     Number of MPI processes:               128
     Threads/MPI process:                     1

     MPI processes distributed on     1 nodes
     1805615 MiB available memory on the printing compute node when the environment starts
 
     Reading input from espresso.pwi
Warning: card &CELL ignored
Warning: card    CELL_DYNAMICS    = 'BFGS' ignored
Warning: card / ignored

     Current dimensions of program PWSCF are:
     Max number of different atomic species (ntypx) = 10
     Max number of k-points (npk) =  40000
     Max angular momentum in pseudopotentials (lmaxx) =  4
     file Ga.pbe-dn-kjpaw_psl.1.0.0.UPF: wavefunction(s)  4S renormalized
     file N.pbe-n-kjpaw_psl.1.0.0.UPF: wavefunction(s)  2S renormalized

     **************************************************************************
     Initializing libbeef V0.1.2 with the BEEF-vdW functional.
     Citation: Wellendorff et al., PRB 85, 235149 (2012).
     **************************************************************************


     IMPORTANT: XC functional enforced from input :
     Exchange-correlation= BEEF-VDW
                           (   1   4  43  14   2   0   0)
     Any further DFT definition will be discarded
     Please, verify this is what you really want

 
     K-points division:     npool     =       2
     R & G space division:  proc/nbgrp/npool/nimage =      64
     Subspace diagonalization in iterative solution of the eigenvalue problem:
     a serial algorithm will be used

 
     Parallelization info
     --------------------
     sticks:   dense  smooth     PW     G-vecs:    dense   smooth      PW
     Min         354     283     73                42160    30167    3987
     Max         356     285     74                42163    30170    3996
     Sum       22693   18145   4705              2698283  1930731  255309
 
     Using Slab Decomposition
 


     bravais-lattice index     =            4
     lattice parameter (alat)  =      30.6565  a.u.
     unit-cell volume          =   24400.9461 (a.u.)^3
     number of atoms/cell      =          299
     number of atomic types    =            2
     number of electrons       =      2690.00
     number of Kohn-Sham states=         1614
     kinetic-energy cutoff     =      70.0000  Ry
     charge density cutoff     =     350.0000  Ry
     scf convergence threshold =      1.0E-07
     mixing beta               =       0.7000
     number of iterations used =            8  plain     mixing
     energy convergence thresh.=      1.0E-04
     force convergence thresh. =      1.0E-03
     Exchange-correlation= BEEF-VDW
                           (   1   4  43  14   2   0   0)
     nstep                     =           50


     celldm(1)=  30.656540  celldm(2)=   0.000000  celldm(3)=   0.977927
     celldm(4)=   0.000000  celldm(5)=   0.000000  celldm(6)=   0.000000

     crystal axes: (cart. coord. in units of alat)
               a(1) = (   1.000000   0.000000   0.000000 )  
               a(2) = (  -0.500000   0.866025   0.000000 )  
               a(3) = (   0.000000   0.000000   0.977927 )  

     reciprocal axes: (cart. coord. in units 2 pi/alat)
               b(1) = (  1.000000  0.577350 -0.000000 )  
               b(2) = (  0.000000  1.154701  0.000000 )  
               b(3) = (  0.000000 -0.000000  1.022571 )  


     PseudoPot. # 1 for Ga read from file:
     //group///packages/espresso/pseudo/psl_1.0.0/pslibrary.1.0.0/pbe/PSEUDOPOTENTIALS/Ga.pbe-dn-kjpaw_psl.1.0.0.UPF
     MD5 check sum: cd2a01e492f15b435d17032472d8505c
     Pseudo is Projector augmented-wave + core cor, Zval = 13.0
     Generated using 'atomic' code by A. Dal Corso  v.7.1
     Shape of augmentation charge: PSQ
     Using radial grid of 1205 points,  6 beta functions with: 
                l(1) =   0
                l(2) =   0
                l(3) =   1
                l(4) =   1
                l(5) =   2
                l(6) =   2
     Q(r) pseudized with 0 coefficients 


     PseudoPot. # 2 for N  read from file:
     //group///packages/espresso/pseudo/psl_1.0.0/pslibrary.1.0.0/pbe/PSEUDOPOTENTIALS/N.pbe-n-kjpaw_psl.1.0.0.UPF
     MD5 check sum: f77f775694dac7e2c3fe1c82443d1a16
     Pseudo is Projector augmented-wave + core cor, Zval =  5.0
     Generated using 'atomic' code by A. Dal Corso  v.7.1
     Shape of augmentation charge: PSQ
     Using radial grid of 1085 points,  4 beta functions with: 
                l(1) =   0
                l(2) =   0
                l(3) =   1
                l(4) =   1
     Q(r) pseudized with 0 coefficients 


     atomic species   valence    mass     pseudopotential
        Ga            13.00    69.72300     Ga( 1.00)
        N              5.00    14.00700     N ( 1.00)

      2 Sym. Ops. (no inversion) found


                                    s                        frac. trans.

      isym =  1     identity                                     

 cryst.   s( 1) = (     1          0          0      )
                  (     0          1          0      )
                  (     0          0          1      )

 cart.    s( 1) = (  1.0000000  0.0000000  0.0000000 )
                  (  0.0000000  1.0000000  0.0000000 )
                  (  0.0000000  0.0000000  1.0000000 )


      isym =  2     inv. 180 deg rotation - cryst. axis [0,1,0]  

 cryst.   s( 2) = (     1          1          0      )
                  (     0         -1          0      )
                  (     0          0          1      )

 cart.    s( 2) = (  0.5000000  0.8660254  0.0000000 )
                  (  0.8660254 -0.5000000  0.0000000 )
                  (  0.0000000  0.0000000  1.0000000 )


     point group C_s (m)    
     there are  2 classes
     the character table:

       E     s    
A'     1.00  1.00
A''    1.00 -1.00

     the symmetry operations in each class and the name of the first element:

     E        1
          identity                                               
     s        2
          inv. 180 deg rotation - cryst. axis [0,1,0]            

   Cartesian axes

     site n.     atom                  positions (alat units)
         1           Ga  tau(   1) = (   0.1000001   0.0577350   0.4886906  )
         2           Ga  tau(   2) = (   0.1000001   0.0577350   0.8146665  )
         3           Ga  tau(   3) = (   0.0000001   0.2309401   0.1627148  )
         4           Ga  tau(   4) = (   0.0000001   0.2309401   0.4886906  )
         5           Ga  tau(   5) = (   0.0000001   0.2309401   0.8146665  )
         6           Ga  tau(   6) = (  -0.0999999   0.4041451   0.1627148  )
         7           Ga  tau(   7) = (  -0.0999999   0.4041451   0.4886906  )
         8           Ga  tau(   8) = (  -0.0999999   0.4041451   0.8146665  )
         9           Ga  tau(   9) = (  -0.1999999   0.5773502   0.1627148  )
        10           Ga  tau(  10) = (  -0.1999999   0.5773502   0.4886906  )
        11           Ga  tau(  11) = (  -0.1999999   0.5773502   0.8146665  )
        12           Ga  tau(  12) = (  -0.2999999   0.7505553   0.1627148  )
        13           Ga  tau(  13) = (  -0.2999999   0.7505553   0.4886906  )
        14           Ga  tau(  14) = (  -0.2999999   0.7505553   0.8146665  )
        15           Ga  tau(  15) = (   0.3000001   0.0577350   0.1627148  )
        16           Ga  tau(  16) = (   0.3000001   0.0577350   0.4886906  )
        17           Ga  tau(  17) = (   0.3000001   0.0577350   0.8146665  )
        18           Ga  tau(  18) = (   0.2000001   0.2309401   0.1627148  )
        19           Ga  tau(  19) = (   0.2000001   0.2309401   0.4886906  )
        20           Ga  tau(  20) = (   0.2000001   0.2309401   0.8146665  )
        21           Ga  tau(  21) = (   0.1000001   0.4041451   0.1627148  )
        22           Ga  tau(  22) = (   0.1000001   0.4041451   0.4886906  )
        23           Ga  tau(  23) = (   0.1000001   0.4041451   0.8146665  )
        24           Ga  tau(  24) = (   0.0000001   0.5773502   0.1627148  )
        25           Ga  tau(  25) = (   0.0000001   0.5773502   0.4886906  )
        26           Ga  tau(  26) = (   0.0000001   0.5773502   0.8146665  )
        27           Ga  tau(  27) = (  -0.0999999   0.7505553   0.1627148  )
        28           Ga  tau(  28) = (  -0.0999999   0.7505553   0.4886906  )
        29           Ga  tau(  29) = (  -0.0999999   0.7505553   0.8146665  )
        30           Ga  tau(  30) = (   0.5000001   0.0577350   0.1627148  )
        31           Ga  tau(  31) = (   0.5000001   0.0577350   0.4886906  )
        32           Ga  tau(  32) = (   0.5000001   0.0577350   0.8146665  )
        33           Ga  tau(  33) = (   0.4000001   0.2309401   0.1627148  )
        34           Ga  tau(  34) = (   0.4000001   0.2309401   0.4886906  )
        35           Ga  tau(  35) = (   0.4000001   0.2309401   0.8146665  )
        36           Ga  tau(  36) = (   0.3000001   0.4041451   0.1627148  )
        37           Ga  tau(  37) = (   0.3000001   0.4041451   0.4886906  )
        38           Ga  tau(  38) = (   0.3000001   0.4041451   0.8146665  )
        39           Ga  tau(  39) = (   0.2000001   0.5773502   0.1627148  )
        40           Ga  tau(  40) = (   0.2000001   0.5773502   0.4886906  )
        41           Ga  tau(  41) = (   0.2000001   0.5773502   0.8146665  )
        42           Ga  tau(  42) = (   0.1000001   0.7505553   0.1627148  )
        43           Ga  tau(  43) = (   0.1000001   0.7505553   0.4886906  )
        44           Ga  tau(  44) = (   0.1000001   0.7505553   0.8146665  )
        45           Ga  tau(  45) = (   0.7000001   0.0577350   0.1627148  )
        46           Ga  tau(  46) = (   0.7000001   0.0577350   0.4886906  )
        47           Ga  tau(  47) = (   0.7000001   0.0577350   0.8146665  )
        48           Ga  tau(  48) = (   0.6000001   0.2309401   0.1627148  )
        49           Ga  tau(  49) = (   0.6000001   0.2309401   0.4886906  )
        50           Ga  tau(  50) = (   0.6000001   0.2309401   0.8146665  )
        51           Ga  tau(  51) = (   0.5000001   0.4041451   0.1627148  )
        52           Ga  tau(  52) = (   0.5000001   0.4041451   0.4886906  )
        53           Ga  tau(  53) = (   0.5000001   0.4041451   0.8146665  )
        54           Ga  tau(  54) = (   0.4000001   0.5773502   0.1627148  )
        55           Ga  tau(  55) = (   0.4000001   0.5773502   0.4886906  )
        56           Ga  tau(  56) = (   0.4000001   0.5773502   0.8146665  )
        57           Ga  tau(  57) = (   0.3000001   0.7505553   0.1627148  )
        58           Ga  tau(  58) = (   0.3000001   0.7505553   0.4886906  )
        59           Ga  tau(  59) = (   0.3000001   0.7505553   0.8146665  )
        60           Ga  tau(  60) = (   0.9000001   0.0577350   0.1627148  )
        61           Ga  tau(  61) = (   0.9000001   0.0577350   0.4886906  )
        62           Ga  tau(  62) = (   0.9000001   0.0577350   0.8146665  )
        63           Ga  tau(  63) = (   0.8000001   0.2309401   0.1627148  )
        64           Ga  tau(  64) = (   0.8000001   0.2309401   0.4886906  )
        65           Ga  tau(  65) = (   0.8000001   0.2309401   0.8146665  )
        66           Ga  tau(  66) = (   0.7000001   0.4041451   0.1627148  )
        67           Ga  tau(  67) = (   0.7000001   0.4041451   0.4886906  )
        68           Ga  tau(  68) = (   0.7000001   0.4041451   0.8146665  )
        69           Ga  tau(  69) = (   0.6000001   0.5773502   0.1627148  )
        70           Ga  tau(  70) = (   0.6000001   0.5773502   0.4886906  )
        71           Ga  tau(  71) = (   0.6000001   0.5773502   0.8146665  )
        72           Ga  tau(  72) = (   0.5000001   0.7505553   0.1627148  )
        73           Ga  tau(  73) = (   0.5000001   0.7505553   0.4886906  )
        74           Ga  tau(  74) = (   0.5000001   0.7505553   0.8146665  )
        75           Ga  tau(  75) = (  -0.0000001   0.1154701   0.3257027  )
        76           Ga  tau(  76) = (  -0.0000001   0.1154701   0.6516786  )
        77           Ga  tau(  77) = (  -0.0000001   0.1154701   0.9776544  )
        78           Ga  tau(  78) = (  -0.1000001   0.2886752   0.3257027  )
        79           Ga  tau(  79) = (  -0.1000001   0.2886752   0.6516786  )
        80           Ga  tau(  80) = (  -0.1000001   0.2886752   0.9776544  )
        81           Ga  tau(  81) = (  -0.2000001   0.4618803   0.3257027  )
        82           Ga  tau(  82) = (  -0.2000001   0.4618803   0.6516786  )
        83           Ga  tau(  83) = (  -0.2000001   0.4618803   0.9776544  )
        84           Ga  tau(  84) = (  -0.3000001   0.6350854   0.3257027  )
        85           Ga  tau(  85) = (  -0.3000001   0.6350854   0.6516786  )
        86           Ga  tau(  86) = (  -0.3000001   0.6350854   0.9776544  )
        87           Ga  tau(  87) = (  -0.4000001   0.8082905   0.3257027  )
        88           Ga  tau(  88) = (  -0.4000001   0.8082905   0.6516786  )
        89           Ga  tau(  89) = (  -0.4000001   0.8082905   0.9776544  )
        90           Ga  tau(  90) = (   0.1999999   0.1154701   0.3257027  )
        91           Ga  tau(  91) = (   0.1999999   0.1154701   0.6516786  )
        92           Ga  tau(  92) = (   0.1999999   0.1154701   0.9776544  )
        93           Ga  tau(  93) = (   0.0999999   0.2886752   0.3257027  )
        94           Ga  tau(  94) = (   0.0999999   0.2886752   0.6516786  )
        95           Ga  tau(  95) = (   0.0999999   0.2886752   0.9776544  )
        96           Ga  tau(  96) = (  -0.0000001   0.4618803   0.3257027  )
        97           Ga  tau(  97) = (  -0.0000001   0.4618803   0.6516786  )
        98           Ga  tau(  98) = (  -0.0000001   0.4618803   0.9776544  )
        99           Ga  tau(  99) = (  -0.1000001   0.6350854   0.3257027  )
       100           Ga  tau( 100) = (  -0.1000001   0.6350854   0.6516786  )
       101           Ga  tau( 101) = (  -0.1000001   0.6350854   0.9776544  )
       102           Ga  tau( 102) = (  -0.2000001   0.8082905   0.3257027  )
       103           Ga  tau( 103) = (  -0.2000001   0.8082905   0.6516786  )
       104           Ga  tau( 104) = (  -0.2000001   0.8082905   0.9776544  )
       105           Ga  tau( 105) = (   0.3999999   0.1154701   0.3257027  )
       106           Ga  tau( 106) = (   0.3999999   0.1154701   0.6516786  )
       107           Ga  tau( 107) = (   0.3999999   0.1154701   0.9776544  )
       108           Ga  tau( 108) = (   0.2999999   0.2886752   0.3257027  )
       109           Ga  tau( 109) = (   0.2999999   0.2886752   0.6516786  )
       110           Ga  tau( 110) = (   0.2999999   0.2886752   0.9776544  )
       111           Ga  tau( 111) = (   0.1999999   0.4618803   0.3257027  )
       112           Ga  tau( 112) = (   0.1999999   0.4618803   0.6516786  )
       113           Ga  tau( 113) = (   0.1999999   0.4618803   0.9776544  )
       114           Ga  tau( 114) = (   0.0999999   0.6350854   0.3257027  )
       115           Ga  tau( 115) = (   0.0999999   0.6350854   0.6516786  )
       116           Ga  tau( 116) = (   0.0999999   0.6350854   0.9776544  )
       117           Ga  tau( 117) = (  -0.0000001   0.8082905   0.3257027  )
       118           Ga  tau( 118) = (  -0.0000001   0.8082905   0.6516786  )
       119           Ga  tau( 119) = (  -0.0000001   0.8082905   0.9776544  )
       120           Ga  tau( 120) = (   0.5999999   0.1154701   0.3257027  )
       121           Ga  tau( 121) = (   0.5999999   0.1154701   0.6516786  )
       122           Ga  tau( 122) = (   0.5999999   0.1154701   0.9776544  )
       123           Ga  tau( 123) = (   0.4999999   0.2886752   0.3257027  )
       124           Ga  tau( 124) = (   0.4999999   0.2886752   0.6516786  )
       125           Ga  tau( 125) = (   0.4999999   0.2886752   0.9776544  )
       126           Ga  tau( 126) = (   0.3999999   0.4618803   0.3257027  )
       127           Ga  tau( 127) = (   0.3999999   0.4618803   0.6516786  )
       128           Ga  tau( 128) = (   0.3999999   0.4618803   0.9776544  )
       129           Ga  tau( 129) = (   0.2999999   0.6350854   0.3257027  )
       130           Ga  tau( 130) = (   0.2999999   0.6350854   0.6516786  )
       131           Ga  tau( 131) = (   0.2999999   0.6350854   0.9776544  )
       132           Ga  tau( 132) = (   0.1999999   0.8082905   0.3257027  )
       133           Ga  tau( 133) = (   0.1999999   0.8082905   0.6516786  )
       134           Ga  tau( 134) = (   0.1999999   0.8082905   0.9776544  )
       135           Ga  tau( 135) = (   0.7999999   0.1154701   0.3257027  )
       136           Ga  tau( 136) = (   0.7999999   0.1154701   0.6516786  )
       137           Ga  tau( 137) = (   0.7999999   0.1154701   0.9776544  )
       138           Ga  tau( 138) = (   0.6999999   0.2886752   0.3257027  )
       139           Ga  tau( 139) = (   0.6999999   0.2886752   0.6516786  )
       140           Ga  tau( 140) = (   0.6999999   0.2886752   0.9776544  )
       141           Ga  tau( 141) = (   0.5999999   0.4618803   0.3257027  )
       142           Ga  tau( 142) = (   0.5999999   0.4618803   0.6516786  )
       143           Ga  tau( 143) = (   0.5999999   0.4618803   0.9776544  )
       144           Ga  tau( 144) = (   0.4999999   0.6350854   0.3257027  )
       145           Ga  tau( 145) = (   0.4999999   0.6350854   0.6516786  )
       146           Ga  tau( 146) = (   0.4999999   0.6350854   0.9776544  )
       147           Ga  tau( 147) = (   0.3999999   0.8082905   0.3257027  )
       148           Ga  tau( 148) = (   0.3999999   0.8082905   0.6516786  )
       149           Ga  tau( 149) = (   0.3999999   0.8082905   0.9776544  )
       150           N   tau( 150) = (   0.1000001   0.0577350   0.2855019  )
       151           N   tau( 151) = (   0.1000001   0.0577350   0.6114777  )
       152           N   tau( 152) = (   0.1000001   0.0577350   0.9374535  )
       153           N   tau( 153) = (   0.0000001   0.2309401   0.2855019  )
       154           N   tau( 154) = (   0.0000001   0.2309401   0.6114777  )
       155           N   tau( 155) = (   0.0000001   0.2309401   0.9374535  )
       156           N   tau( 156) = (  -0.0999999   0.4041451   0.2855019  )
       157           N   tau( 157) = (  -0.0999999   0.4041451   0.6114777  )
       158           N   tau( 158) = (  -0.0999999   0.4041451   0.9374535  )
       159           N   tau( 159) = (  -0.1999999   0.5773502   0.2855019  )
       160           N   tau( 160) = (  -0.1999999   0.5773502   0.6114777  )
       161           N   tau( 161) = (  -0.1999999   0.5773502   0.9374535  )
       162           N   tau( 162) = (  -0.2999999   0.7505553   0.2855019  )
       163           N   tau( 163) = (  -0.2999999   0.7505553   0.6114777  )
       164           N   tau( 164) = (  -0.2999999   0.7505553   0.9374535  )
       165           N   tau( 165) = (   0.3000001   0.0577350   0.2855019  )
       166           N   tau( 166) = (   0.3000001   0.0577350   0.6114777  )
       167           N   tau( 167) = (   0.3000001   0.0577350   0.9374535  )
       168           N   tau( 168) = (   0.2000001   0.2309401   0.2855019  )
       169           N   tau( 169) = (   0.2000001   0.2309401   0.6114777  )
       170           N   tau( 170) = (   0.2000001   0.2309401   0.9374535  )
       171           N   tau( 171) = (   0.1000001   0.4041451   0.2855019  )
       172           N   tau( 172) = (   0.1000001   0.4041451   0.6114777  )
       173           N   tau( 173) = (   0.1000001   0.4041451   0.9374535  )
       174           N   tau( 174) = (   0.0000001   0.5773502   0.2855019  )
       175           N   tau( 175) = (   0.0000001   0.5773502   0.6114777  )
       176           N   tau( 176) = (   0.0000001   0.5773502   0.9374535  )
       177           N   tau( 177) = (  -0.0999999   0.7505553   0.2855019  )
       178           N   tau( 178) = (  -0.0999999   0.7505553   0.6114777  )
       179           N   tau( 179) = (  -0.0999999   0.7505553   0.9374535  )
       180           N   tau( 180) = (   0.5000001   0.0577350   0.2855019  )
       181           N   tau( 181) = (   0.5000001   0.0577350   0.6114777  )
       182           N   tau( 182) = (   0.5000001   0.0577350   0.9374535  )
       183           N   tau( 183) = (   0.4000001   0.2309401   0.2855019  )
       184           N   tau( 184) = (   0.4000001   0.2309401   0.6114777  )
       185           N   tau( 185) = (   0.4000001   0.2309401   0.9374535  )
       186           N   tau( 186) = (   0.3000001   0.4041451   0.2855019  )
       187           N   tau( 187) = (   0.3000001   0.4041451   0.6114777  )
       188           N   tau( 188) = (   0.3000001   0.4041451   0.9374535  )
       189           N   tau( 189) = (   0.2000001   0.5773502   0.2855019  )
       190           N   tau( 190) = (   0.2000001   0.5773502   0.6114777  )
       191           N   tau( 191) = (   0.2000001   0.5773502   0.9374535  )
       192           N   tau( 192) = (   0.1000001   0.7505553   0.2855019  )
       193           N   tau( 193) = (   0.1000001   0.7505553   0.6114777  )
       194           N   tau( 194) = (   0.1000001   0.7505553   0.9374535  )
       195           N   tau( 195) = (   0.7000001   0.0577350   0.2855019  )
       196           N   tau( 196) = (   0.7000001   0.0577350   0.6114777  )
       197           N   tau( 197) = (   0.7000001   0.0577350   0.9374535  )
       198           N   tau( 198) = (   0.6000001   0.2309401   0.2855019  )
       199           N   tau( 199) = (   0.6000001   0.2309401   0.6114777  )
       200           N   tau( 200) = (   0.6000001   0.2309401   0.9374535  )
       201           N   tau( 201) = (   0.5000001   0.4041451   0.2855019  )
       202           N   tau( 202) = (   0.5000001   0.4041451   0.6114777  )
       203           N   tau( 203) = (   0.5000001   0.4041451   0.9374535  )
       204           N   tau( 204) = (   0.4000001   0.5773502   0.2855019  )
       205           N   tau( 205) = (   0.4000001   0.5773502   0.6114777  )
       206           N   tau( 206) = (   0.4000001   0.5773502   0.9374535  )
       207           N   tau( 207) = (   0.3000001   0.7505553   0.2855019  )
       208           N   tau( 208) = (   0.3000001   0.7505553   0.6114777  )
       209           N   tau( 209) = (   0.3000001   0.7505553   0.9374535  )
       210           N   tau( 210) = (   0.9000001   0.0577350   0.2855019  )
       211           N   tau( 211) = (   0.9000001   0.0577350   0.6114777  )
       212           N   tau( 212) = (   0.9000001   0.0577350   0.9374535  )
       213           N   tau( 213) = (   0.8000001   0.2309401   0.2855019  )
       214           N   tau( 214) = (   0.8000001   0.2309401   0.6114777  )
       215           N   tau( 215) = (   0.8000001   0.2309401   0.9374535  )
       216           N   tau( 216) = (   0.7000001   0.4041451   0.2855019  )
       217           N   tau( 217) = (   0.7000001   0.4041451   0.6114777  )
       218           N   tau( 218) = (   0.7000001   0.4041451   0.9374535  )
       219           N   tau( 219) = (   0.6000001   0.5773502   0.2855019  )
       220           N   tau( 220) = (   0.6000001   0.5773502   0.6114777  )
       221           N   tau( 221) = (   0.6000001   0.5773502   0.9374535  )
       222           N   tau( 222) = (   0.5000001   0.7505553   0.2855019  )
       223           N   tau( 223) = (   0.5000001   0.7505553   0.6114777  )
       224           N   tau( 224) = (   0.5000001   0.7505553   0.9374535  )
       225           N   tau( 225) = (  -0.0000001   0.1154701   0.1225140  )
       226           N   tau( 226) = (  -0.0000001   0.1154701   0.4484898  )
       227           N   tau( 227) = (  -0.0000001   0.1154701   0.7744656  )
       228           N   tau( 228) = (  -0.1000001   0.2886752   0.1225140  )
       229           N   tau( 229) = (  -0.1000001   0.2886752   0.4484898  )
       230           N   tau( 230) = (  -0.1000001   0.2886752   0.7744656  )
       231           N   tau( 231) = (  -0.2000001   0.4618803   0.1225140  )
       232           N   tau( 232) = (  -0.2000001   0.4618803   0.4484898  )
       233           N   tau( 233) = (  -0.2000001   0.4618803   0.7744656  )
       234           N   tau( 234) = (  -0.3000001   0.6350854   0.1225140  )
       235           N   tau( 235) = (  -0.3000001   0.6350854   0.4484898  )
       236           N   tau( 236) = (  -0.3000001   0.6350854   0.7744656  )
       237           N   tau( 237) = (  -0.4000001   0.8082905   0.1225140  )
       238           N   tau( 238) = (  -0.4000001   0.8082905   0.4484898  )
       239           N   tau( 239) = (  -0.4000001   0.8082905   0.7744656  )
       240           N   tau( 240) = (   0.1999999   0.1154701   0.1225140  )
       241           N   tau( 241) = (   0.1999999   0.1154701   0.4484898  )
       242           N   tau( 242) = (   0.1999999   0.1154701   0.7744656  )
       243           N   tau( 243) = (   0.0999999   0.2886752   0.1225140  )
       244           N   tau( 244) = (   0.0999999   0.2886752   0.4484898  )
       245           N   tau( 245) = (   0.0999999   0.2886752   0.7744656  )
       246           N   tau( 246) = (  -0.0000001   0.4618803   0.1225140  )
       247           N   tau( 247) = (  -0.0000001   0.4618803   0.4484898  )
       248           N   tau( 248) = (  -0.0000001   0.4618803   0.7744656  )
       249           N   tau( 249) = (  -0.1000001   0.6350854   0.1225140  )
       250           N   tau( 250) = (  -0.1000001   0.6350854   0.4484898  )
       251           N   tau( 251) = (  -0.1000001   0.6350854   0.7744656  )
       252           N   tau( 252) = (  -0.2000001   0.8082905   0.1225140  )
       253           N   tau( 253) = (  -0.2000001   0.8082905   0.4484898  )
       254           N   tau( 254) = (  -0.2000001   0.8082905   0.7744656  )
       255           N   tau( 255) = (   0.3999999   0.1154701   0.1225140  )
       256           N   tau( 256) = (   0.3999999   0.1154701   0.4484898  )
       257           N   tau( 257) = (   0.3999999   0.1154701   0.7744656  )
       258           N   tau( 258) = (   0.2999999   0.2886752   0.1225140  )
       259           N   tau( 259) = (   0.2999999   0.2886752   0.4484898  )
       260           N   tau( 260) = (   0.2999999   0.2886752   0.7744656  )
       261           N   tau( 261) = (   0.1999999   0.4618803   0.1225140  )
       262           N   tau( 262) = (   0.1999999   0.4618803   0.4484898  )
       263           N   tau( 263) = (   0.1999999   0.4618803   0.7744656  )
       264           N   tau( 264) = (   0.0999999   0.6350854   0.1225140  )
       265           N   tau( 265) = (   0.0999999   0.6350854   0.4484898  )
       266           N   tau( 266) = (   0.0999999   0.6350854   0.7744656  )
       267           N   tau( 267) = (  -0.0000001   0.8082905   0.1225140  )
       268           N   tau( 268) = (  -0.0000001   0.8082905   0.4484898  )
       269           N   tau( 269) = (  -0.0000001   0.8082905   0.7744656  )
       270           N   tau( 270) = (   0.5999999   0.1154701   0.1225140  )
       271           N   tau( 271) = (   0.5999999   0.1154701   0.4484898  )
       272           N   tau( 272) = (   0.5999999   0.1154701   0.7744656  )
       273           N   tau( 273) = (   0.4999999   0.2886752   0.1225140  )
       274           N   tau( 274) = (   0.4999999   0.2886752   0.4484898  )
       275           N   tau( 275) = (   0.4999999   0.2886752   0.7744656  )
       276           N   tau( 276) = (   0.3999999   0.4618803   0.1225140  )
       277           N   tau( 277) = (   0.3999999   0.4618803   0.4484898  )
       278           N   tau( 278) = (   0.3999999   0.4618803   0.7744656  )
       279           N   tau( 279) = (   0.2999999   0.6350854   0.1225140  )
       280           N   tau( 280) = (   0.2999999   0.6350854   0.4484898  )
       281           N   tau( 281) = (   0.2999999   0.6350854   0.7744656  )
       282           N   tau( 282) = (   0.1999999   0.8082905   0.1225140  )
       283           N   tau( 283) = (   0.1999999   0.8082905   0.4484898  )
       284           N   tau( 284) = (   0.1999999   0.8082905   0.7744656  )
       285           N   tau( 285) = (   0.7999999   0.1154701   0.1225140  )
       286           N   tau( 286) = (   0.7999999   0.1154701   0.4484898  )
       287           N   tau( 287) = (   0.7999999   0.1154701   0.7744656  )
       288           N   tau( 288) = (   0.6999999   0.2886752   0.1225140  )
       289           N   tau( 289) = (   0.6999999   0.2886752   0.4484898  )
       290           N   tau( 290) = (   0.6999999   0.2886752   0.7744656  )
       291           N   tau( 291) = (   0.5999999   0.4618803   0.1225140  )
       292           N   tau( 292) = (   0.5999999   0.4618803   0.4484898  )
       293           N   tau( 293) = (   0.5999999   0.4618803   0.7744656  )
       294           N   tau( 294) = (   0.4999999   0.6350854   0.1225140  )
       295           N   tau( 295) = (   0.4999999   0.6350854   0.4484898  )
       296           N   tau( 296) = (   0.4999999   0.6350854   0.7744656  )
       297           N   tau( 297) = (   0.3999999   0.8082905   0.1225140  )
       298           N   tau( 298) = (   0.3999999   0.8082905   0.4484898  )
       299           N   tau( 299) = (   0.3999999   0.8082905   0.7744656  )

   Crystallographic axes

     site n.     atom                  positions (cryst. coord.)
         1           Ga  tau(   1) = (  0.1333334  0.0666666  0.4997208  )
         2           Ga  tau(   2) = (  0.1333334  0.0666666  0.8330541  )
         3           Ga  tau(   3) = (  0.1333334  0.2666666  0.1663874  )
         4           Ga  tau(   4) = (  0.1333334  0.2666666  0.4997208  )
         5           Ga  tau(   5) = (  0.1333334  0.2666666  0.8330541  )
         6           Ga  tau(   6) = (  0.1333334  0.4666666  0.1663874  )
         7           Ga  tau(   7) = (  0.1333334  0.4666666  0.4997208  )
         8           Ga  tau(   8) = (  0.1333334  0.4666666  0.8330541  )
         9           Ga  tau(   9) = (  0.1333334  0.6666666  0.1663874  )
        10           Ga  tau(  10) = (  0.1333334  0.6666666  0.4997208  )
        11           Ga  tau(  11) = (  0.1333334  0.6666666  0.8330541  )
        12           Ga  tau(  12) = (  0.1333334  0.8666666  0.1663874  )
        13           Ga  tau(  13) = (  0.1333334  0.8666666  0.4997208  )
        14           Ga  tau(  14) = (  0.1333334  0.8666666  0.8330541  )
        15           Ga  tau(  15) = (  0.3333334  0.0666666  0.1663874  )
        16           Ga  tau(  16) = (  0.3333334  0.0666666  0.4997208  )
        17           Ga  tau(  17) = (  0.3333334  0.0666666  0.8330541  )
        18           Ga  tau(  18) = (  0.3333334  0.2666666  0.1663874  )
        19           Ga  tau(  19) = (  0.3333334  0.2666666  0.4997208  )
        20           Ga  tau(  20) = (  0.3333334  0.2666666  0.8330541  )
        21           Ga  tau(  21) = (  0.3333334  0.4666666  0.1663874  )
        22           Ga  tau(  22) = (  0.3333334  0.4666666  0.4997208  )
        23           Ga  tau(  23) = (  0.3333334  0.4666666  0.8330541  )
        24           Ga  tau(  24) = (  0.3333334  0.6666666  0.1663874  )
        25           Ga  tau(  25) = (  0.3333334  0.6666666  0.4997208  )
        26           Ga  tau(  26) = (  0.3333334  0.6666666  0.8330541  )
        27           Ga  tau(  27) = (  0.3333334  0.8666666  0.1663874  )
        28           Ga  tau(  28) = (  0.3333334  0.8666666  0.4997208  )
        29           Ga  tau(  29) = (  0.3333334  0.8666666  0.8330541  )
        30           Ga  tau(  30) = (  0.5333334  0.0666666  0.1663874  )
        31           Ga  tau(  31) = (  0.5333334  0.0666666  0.4997208  )
        32           Ga  tau(  32) = (  0.5333334  0.0666666  0.8330541  )
        33           Ga  tau(  33) = (  0.5333334  0.2666666  0.1663874  )
        34           Ga  tau(  34) = (  0.5333334  0.2666666  0.4997208  )
        35           Ga  tau(  35) = (  0.5333334  0.2666666  0.8330541  )
        36           Ga  tau(  36) = (  0.5333334  0.4666666  0.1663874  )
        37           Ga  tau(  37) = (  0.5333334  0.4666666  0.4997208  )
        38           Ga  tau(  38) = (  0.5333334  0.4666666  0.8330541  )
        39           Ga  tau(  39) = (  0.5333334  0.6666666  0.1663874  )
        40           Ga  tau(  40) = (  0.5333334  0.6666666  0.4997208  )
        41           Ga  tau(  41) = (  0.5333334  0.6666666  0.8330541  )
        42           Ga  tau(  42) = (  0.5333334  0.8666666  0.1663874  )
        43           Ga  tau(  43) = (  0.5333334  0.8666666  0.4997208  )
        44           Ga  tau(  44) = (  0.5333334  0.8666666  0.8330541  )
        45           Ga  tau(  45) = (  0.7333334  0.0666666  0.1663874  )
        46           Ga  tau(  46) = (  0.7333334  0.0666666  0.4997208  )
        47           Ga  tau(  47) = (  0.7333334  0.0666666  0.8330541  )
        48           Ga  tau(  48) = (  0.7333334  0.2666666  0.1663874  )
        49           Ga  tau(  49) = (  0.7333334  0.2666666  0.4997208  )
        50           Ga  tau(  50) = (  0.7333334  0.2666666  0.8330541  )
        51           Ga  tau(  51) = (  0.7333334  0.4666666  0.1663874  )
        52           Ga  tau(  52) = (  0.7333334  0.4666666  0.4997208  )
        53           Ga  tau(  53) = (  0.7333334  0.4666666  0.8330541  )
        54           Ga  tau(  54) = (  0.7333334  0.6666666  0.1663874  )
        55           Ga  tau(  55) = (  0.7333334  0.6666666  0.4997208  )
        56           Ga  tau(  56) = (  0.7333334  0.6666666  0.8330541  )
        57           Ga  tau(  57) = (  0.7333334  0.8666666  0.1663874  )
        58           Ga  tau(  58) = (  0.7333334  0.8666666  0.4997208  )
        59           Ga  tau(  59) = (  0.7333334  0.8666666  0.8330541  )
        60           Ga  tau(  60) = (  0.9333334  0.0666666  0.1663874  )
        61           Ga  tau(  61) = (  0.9333334  0.0666666  0.4997208  )
        62           Ga  tau(  62) = (  0.9333334  0.0666666  0.8330541  )
        63           Ga  tau(  63) = (  0.9333334  0.2666666  0.1663874  )
        64           Ga  tau(  64) = (  0.9333334  0.2666666  0.4997208  )
        65           Ga  tau(  65) = (  0.9333334  0.2666666  0.8330541  )
        66           Ga  tau(  66) = (  0.9333334  0.4666666  0.1663874  )
        67           Ga  tau(  67) = (  0.9333334  0.4666666  0.4997208  )
        68           Ga  tau(  68) = (  0.9333334  0.4666666  0.8330541  )
        69           Ga  tau(  69) = (  0.9333334  0.6666666  0.1663874  )
        70           Ga  tau(  70) = (  0.9333334  0.6666666  0.4997208  )
        71           Ga  tau(  71) = (  0.9333334  0.6666666  0.8330541  )
        72           Ga  tau(  72) = (  0.9333334  0.8666666  0.1663874  )
        73           Ga  tau(  73) = (  0.9333334  0.8666666  0.4997208  )
        74           Ga  tau(  74) = (  0.9333334  0.8666666  0.8330541  )
        75           Ga  tau(  75) = (  0.0666666  0.1333334  0.3330541  )
        76           Ga  tau(  76) = (  0.0666666  0.1333334  0.6663874  )
        77           Ga  tau(  77) = (  0.0666666  0.1333334  0.9997208  )
        78           Ga  tau(  78) = (  0.0666666  0.3333334  0.3330541  )
        79           Ga  tau(  79) = (  0.0666666  0.3333334  0.6663874  )
        80           Ga  tau(  80) = (  0.0666666  0.3333334  0.9997208  )
        81           Ga  tau(  81) = (  0.0666666  0.5333334  0.3330541  )
        82           Ga  tau(  82) = (  0.0666666  0.5333334  0.6663874  )
        83           Ga  tau(  83) = (  0.0666666  0.5333334  0.9997208  )
        84           Ga  tau(  84) = (  0.0666666  0.7333334  0.3330541  )
        85           Ga  tau(  85) = (  0.0666666  0.7333334  0.6663874  )
        86           Ga  tau(  86) = (  0.0666666  0.7333334  0.9997208  )
        87           Ga  tau(  87) = (  0.0666666  0.9333334  0.3330541  )
        88           Ga  tau(  88) = (  0.0666666  0.9333334  0.6663874  )
        89           Ga  tau(  89) = (  0.0666666  0.9333334  0.9997208  )
        90           Ga  tau(  90) = (  0.2666666  0.1333334  0.3330541  )
        91           Ga  tau(  91) = (  0.2666666  0.1333334  0.6663874  )
        92           Ga  tau(  92) = (  0.2666666  0.1333334  0.9997208  )
        93           Ga  tau(  93) = (  0.2666666  0.3333334  0.3330541  )
        94           Ga  tau(  94) = (  0.2666666  0.3333334  0.6663874  )
        95           Ga  tau(  95) = (  0.2666666  0.3333334  0.9997208  )
        96           Ga  tau(  96) = (  0.2666666  0.5333334  0.3330541  )
        97           Ga  tau(  97) = (  0.2666666  0.5333334  0.6663874  )
        98           Ga  tau(  98) = (  0.2666666  0.5333334  0.9997208  )
        99           Ga  tau(  99) = (  0.2666666  0.7333334  0.3330541  )
       100           Ga  tau( 100) = (  0.2666666  0.7333334  0.6663874  )
       101           Ga  tau( 101) = (  0.2666666  0.7333334  0.9997208  )
       102           Ga  tau( 102) = (  0.2666666  0.9333334  0.3330541  )
       103           Ga  tau( 103) = (  0.2666666  0.9333334  0.6663874  )
       104           Ga  tau( 104) = (  0.2666666  0.9333334  0.9997208  )
       105           Ga  tau( 105) = (  0.4666666  0.1333334  0.3330541  )
       106           Ga  tau( 106) = (  0.4666666  0.1333334  0.6663874  )
       107           Ga  tau( 107) = (  0.4666666  0.1333334  0.9997208  )
       108           Ga  tau( 108) = (  0.4666666  0.3333334  0.3330541  )
       109           Ga  tau( 109) = (  0.4666666  0.3333334  0.6663874  )
       110           Ga  tau( 110) = (  0.4666666  0.3333334  0.9997208  )
       111           Ga  tau( 111) = (  0.4666666  0.5333334  0.3330541  )
       112           Ga  tau( 112) = (  0.4666666  0.5333334  0.6663874  )
       113           Ga  tau( 113) = (  0.4666666  0.5333334  0.9997208  )
       114           Ga  tau( 114) = (  0.4666666  0.7333334  0.3330541  )
       115           Ga  tau( 115) = (  0.4666666  0.7333334  0.6663874  )
       116           Ga  tau( 116) = (  0.4666666  0.7333334  0.9997208  )
       117           Ga  tau( 117) = (  0.4666666  0.9333334  0.3330541  )
       118           Ga  tau( 118) = (  0.4666666  0.9333334  0.6663874  )
       119           Ga  tau( 119) = (  0.4666666  0.9333334  0.9997208  )
       120           Ga  tau( 120) = (  0.6666666  0.1333334  0.3330541  )
       121           Ga  tau( 121) = (  0.6666666  0.1333334  0.6663874  )
       122           Ga  tau( 122) = (  0.6666666  0.1333334  0.9997208  )
       123           Ga  tau( 123) = (  0.6666666  0.3333334  0.3330541  )
       124           Ga  tau( 124) = (  0.6666666  0.3333334  0.6663874  )
       125           Ga  tau( 125) = (  0.6666666  0.3333334  0.9997208  )
       126           Ga  tau( 126) = (  0.6666666  0.5333334  0.3330541  )
       127           Ga  tau( 127) = (  0.6666666  0.5333334  0.6663874  )
       128           Ga  tau( 128) = (  0.6666666  0.5333334  0.9997208  )
       129           Ga  tau( 129) = (  0.6666666  0.7333334  0.3330541  )
       130           Ga  tau( 130) = (  0.6666666  0.7333334  0.6663874  )
       131           Ga  tau( 131) = (  0.6666666  0.7333334  0.9997208  )
       132           Ga  tau( 132) = (  0.6666666  0.9333334  0.3330541  )
       133           Ga  tau( 133) = (  0.6666666  0.9333334  0.6663874  )
       134           Ga  tau( 134) = (  0.6666666  0.9333334  0.9997208  )
       135           Ga  tau( 135) = (  0.8666666  0.1333334  0.3330541  )
       136           Ga  tau( 136) = (  0.8666666  0.1333334  0.6663874  )
       137           Ga  tau( 137) = (  0.8666666  0.1333334  0.9997208  )
       138           Ga  tau( 138) = (  0.8666666  0.3333334  0.3330541  )
       139           Ga  tau( 139) = (  0.8666666  0.3333334  0.6663874  )
       140           Ga  tau( 140) = (  0.8666666  0.3333334  0.9997208  )
       141           Ga  tau( 141) = (  0.8666666  0.5333334  0.3330541  )
       142           Ga  tau( 142) = (  0.8666666  0.5333334  0.6663874  )
       143           Ga  tau( 143) = (  0.8666666  0.5333334  0.9997208  )
       144           Ga  tau( 144) = (  0.8666666  0.7333334  0.3330541  )
       145           Ga  tau( 145) = (  0.8666666  0.7333334  0.6663874  )
       146           Ga  tau( 146) = (  0.8666666  0.7333334  0.9997208  )
       147           Ga  tau( 147) = (  0.8666666  0.9333334  0.3330541  )
       148           Ga  tau( 148) = (  0.8666666  0.9333334  0.6663874  )
       149           Ga  tau( 149) = (  0.8666666  0.9333334  0.9997208  )
       150           N   tau( 150) = (  0.1333334  0.0666666  0.2919459  )
       151           N   tau( 151) = (  0.1333334  0.0666666  0.6252792  )
       152           N   tau( 152) = (  0.1333334  0.0666666  0.9586126  )
       153           N   tau( 153) = (  0.1333334  0.2666666  0.2919459  )
       154           N   tau( 154) = (  0.1333334  0.2666666  0.6252792  )
       155           N   tau( 155) = (  0.1333334  0.2666666  0.9586126  )
       156           N   tau( 156) = (  0.1333334  0.4666666  0.2919459  )
       157           N   tau( 157) = (  0.1333334  0.4666666  0.6252792  )
       158           N   tau( 158) = (  0.1333334  0.4666666  0.9586126  )
       159           N   tau( 159) = (  0.1333334  0.6666666  0.2919459  )
       160           N   tau( 160) = (  0.1333334  0.6666666  0.6252792  )
       161           N   tau( 161) = (  0.1333334  0.6666666  0.9586126  )
       162           N   tau( 162) = (  0.1333334  0.8666666  0.2919459  )
       163           N   tau( 163) = (  0.1333334  0.8666666  0.6252792  )
       164           N   tau( 164) = (  0.1333334  0.8666666  0.9586126  )
       165           N   tau( 165) = (  0.3333334  0.0666666  0.2919459  )
       166           N   tau( 166) = (  0.3333334  0.0666666  0.6252792  )
       167           N   tau( 167) = (  0.3333334  0.0666666  0.9586126  )
       168           N   tau( 168) = (  0.3333334  0.2666666  0.2919459  )
       169           N   tau( 169) = (  0.3333334  0.2666666  0.6252792  )
       170           N   tau( 170) = (  0.3333334  0.2666666  0.9586126  )
       171           N   tau( 171) = (  0.3333334  0.4666666  0.2919459  )
       172           N   tau( 172) = (  0.3333334  0.4666666  0.6252792  )
       173           N   tau( 173) = (  0.3333334  0.4666666  0.9586126  )
       174           N   tau( 174) = (  0.3333334  0.6666666  0.2919459  )
       175           N   tau( 175) = (  0.3333334  0.6666666  0.6252792  )
       176           N   tau( 176) = (  0.3333334  0.6666666  0.9586126  )
       177           N   tau( 177) = (  0.3333334  0.8666666  0.2919459  )
       178           N   tau( 178) = (  0.3333334  0.8666666  0.6252792  )
       179           N   tau( 179) = (  0.3333334  0.8666666  0.9586126  )
       180           N   tau( 180) = (  0.5333334  0.0666666  0.2919459  )
       181           N   tau( 181) = (  0.5333334  0.0666666  0.6252792  )
       182           N   tau( 182) = (  0.5333334  0.0666666  0.9586126  )
       183           N   tau( 183) = (  0.5333334  0.2666666  0.2919459  )
       184           N   tau( 184) = (  0.5333334  0.2666666  0.6252792  )
       185           N   tau( 185) = (  0.5333334  0.2666666  0.9586126  )
       186           N   tau( 186) = (  0.5333334  0.4666666  0.2919459  )
       187           N   tau( 187) = (  0.5333334  0.4666666  0.6252792  )
       188           N   tau( 188) = (  0.5333334  0.4666666  0.9586126  )
       189           N   tau( 189) = (  0.5333334  0.6666666  0.2919459  )
       190           N   tau( 190) = (  0.5333334  0.6666666  0.6252792  )
       191           N   tau( 191) = (  0.5333334  0.6666666  0.9586126  )
       192           N   tau( 192) = (  0.5333334  0.8666666  0.2919459  )
       193           N   tau( 193) = (  0.5333334  0.8666666  0.6252792  )
       194           N   tau( 194) = (  0.5333334  0.8666666  0.9586126  )
       195           N   tau( 195) = (  0.7333334  0.0666666  0.2919459  )
       196           N   tau( 196) = (  0.7333334  0.0666666  0.6252792  )
       197           N   tau( 197) = (  0.7333334  0.0666666  0.9586126  )
       198           N   tau( 198) = (  0.7333334  0.2666666  0.2919459  )
       199           N   tau( 199) = (  0.7333334  0.2666666  0.6252792  )
       200           N   tau( 200) = (  0.7333334  0.2666666  0.9586126  )
       201           N   tau( 201) = (  0.7333334  0.4666666  0.2919459  )
       202           N   tau( 202) = (  0.7333334  0.4666666  0.6252792  )
       203           N   tau( 203) = (  0.7333334  0.4666666  0.9586126  )
       204           N   tau( 204) = (  0.7333334  0.6666666  0.2919459  )
       205           N   tau( 205) = (  0.7333334  0.6666666  0.6252792  )
       206           N   tau( 206) = (  0.7333334  0.6666666  0.9586126  )
       207           N   tau( 207) = (  0.7333334  0.8666666  0.2919459  )
       208           N   tau( 208) = (  0.7333334  0.8666666  0.6252792  )
       209           N   tau( 209) = (  0.7333334  0.8666666  0.9586126  )
       210           N   tau( 210) = (  0.9333334  0.0666666  0.2919459  )
       211           N   tau( 211) = (  0.9333334  0.0666666  0.6252792  )
       212           N   tau( 212) = (  0.9333334  0.0666666  0.9586126  )
       213           N   tau( 213) = (  0.9333334  0.2666666  0.2919459  )
       214           N   tau( 214) = (  0.9333334  0.2666666  0.6252792  )
       215           N   tau( 215) = (  0.9333334  0.2666666  0.9586126  )
       216           N   tau( 216) = (  0.9333334  0.4666666  0.2919459  )
       217           N   tau( 217) = (  0.9333334  0.4666666  0.6252792  )
       218           N   tau( 218) = (  0.9333334  0.4666666  0.9586126  )
       219           N   tau( 219) = (  0.9333334  0.6666666  0.2919459  )
       220           N   tau( 220) = (  0.9333334  0.6666666  0.6252792  )
       221           N   tau( 221) = (  0.9333334  0.6666666  0.9586126  )
       222           N   tau( 222) = (  0.9333334  0.8666666  0.2919459  )
       223           N   tau( 223) = (  0.9333334  0.8666666  0.6252792  )
       224           N   tau( 224) = (  0.9333334  0.8666666  0.9586126  )
       225           N   tau( 225) = (  0.0666666  0.1333334  0.1252792  )
       226           N   tau( 226) = (  0.0666666  0.1333334  0.4586126  )
       227           N   tau( 227) = (  0.0666666  0.1333334  0.7919459  )
       228           N   tau( 228) = (  0.0666666  0.3333334  0.1252792  )
       229           N   tau( 229) = (  0.0666666  0.3333334  0.4586126  )
       230           N   tau( 230) = (  0.0666666  0.3333334  0.7919459  )
       231           N   tau( 231) = (  0.0666666  0.5333334  0.1252792  )
       232           N   tau( 232) = (  0.0666666  0.5333334  0.4586126  )
       233           N   tau( 233) = (  0.0666666  0.5333334  0.7919459  )
       234           N   tau( 234) = (  0.0666666  0.7333334  0.1252792  )
       235           N   tau( 235) = (  0.0666666  0.7333334  0.4586126  )
       236           N   tau( 236) = (  0.0666666  0.7333334  0.7919459  )
       237           N   tau( 237) = (  0.0666666  0.9333334  0.1252792  )
       238           N   tau( 238) = (  0.0666666  0.9333334  0.4586126  )
       239           N   tau( 239) = (  0.0666666  0.9333334  0.7919459  )
       240           N   tau( 240) = (  0.2666666  0.1333334  0.1252792  )
       241           N   tau( 241) = (  0.2666666  0.1333334  0.4586126  )
       242           N   tau( 242) = (  0.2666666  0.1333334  0.7919459  )
       243           N   tau( 243) = (  0.2666666  0.3333334  0.1252792  )
       244           N   tau( 244) = (  0.2666666  0.3333334  0.4586126  )
       245           N   tau( 245) = (  0.2666666  0.3333334  0.7919459  )
       246           N   tau( 246) = (  0.2666666  0.5333334  0.1252792  )
       247           N   tau( 247) = (  0.2666666  0.5333334  0.4586126  )
       248           N   tau( 248) = (  0.2666666  0.5333334  0.7919459  )
       249           N   tau( 249) = (  0.2666666  0.7333334  0.1252792  )
       250           N   tau( 250) = (  0.2666666  0.7333334  0.4586126  )
       251           N   tau( 251) = (  0.2666666  0.7333334  0.7919459  )
       252           N   tau( 252) = (  0.2666666  0.9333334  0.1252792  )
       253           N   tau( 253) = (  0.2666666  0.9333334  0.4586126  )
       254           N   tau( 254) = (  0.2666666  0.9333334  0.7919459  )
       255           N   tau( 255) = (  0.4666666  0.1333334  0.1252792  )
       256           N   tau( 256) = (  0.4666666  0.1333334  0.4586126  )
       257           N   tau( 257) = (  0.4666666  0.1333334  0.7919459  )
       258           N   tau( 258) = (  0.4666666  0.3333334  0.1252792  )
       259           N   tau( 259) = (  0.4666666  0.3333334  0.4586126  )
       260           N   tau( 260) = (  0.4666666  0.3333334  0.7919459  )
       261           N   tau( 261) = (  0.4666666  0.5333334  0.1252792  )
       262           N   tau( 262) = (  0.4666666  0.5333334  0.4586126  )
       263           N   tau( 263) = (  0.4666666  0.5333334  0.7919459  )
       264           N   tau( 264) = (  0.4666666  0.7333334  0.1252792  )
       265           N   tau( 265) = (  0.4666666  0.7333334  0.4586126  )
       266           N   tau( 266) = (  0.4666666  0.7333334  0.7919459  )
       267           N   tau( 267) = (  0.4666666  0.9333334  0.1252792  )
       268           N   tau( 268) = (  0.4666666  0.9333334  0.4586126  )
       269           N   tau( 269) = (  0.4666666  0.9333334  0.7919459  )
       270           N   tau( 270) = (  0.6666666  0.1333334  0.1252792  )
       271           N   tau( 271) = (  0.6666666  0.1333334  0.4586126  )
       272           N   tau( 272) = (  0.6666666  0.1333334  0.7919459  )
       273           N   tau( 273) = (  0.6666666  0.3333334  0.1252792  )
       274           N   tau( 274) = (  0.6666666  0.3333334  0.4586126  )
       275           N   tau( 275) = (  0.6666666  0.3333334  0.7919459  )
       276           N   tau( 276) = (  0.6666666  0.5333334  0.1252792  )
       277           N   tau( 277) = (  0.6666666  0.5333334  0.4586126  )
       278           N   tau( 278) = (  0.6666666  0.5333334  0.7919459  )
       279           N   tau( 279) = (  0.6666666  0.7333334  0.1252792  )
       280           N   tau( 280) = (  0.6666666  0.7333334  0.4586126  )
       281           N   tau( 281) = (  0.6666666  0.7333334  0.7919459  )
       282           N   tau( 282) = (  0.6666666  0.9333334  0.1252792  )
       283           N   tau( 283) = (  0.6666666  0.9333334  0.4586126  )
       284           N   tau( 284) = (  0.6666666  0.9333334  0.7919459  )
       285           N   tau( 285) = (  0.8666666  0.1333334  0.1252792  )
       286           N   tau( 286) = (  0.8666666  0.1333334  0.4586126  )
       287           N   tau( 287) = (  0.8666666  0.1333334  0.7919459  )
       288           N   tau( 288) = (  0.8666666  0.3333334  0.1252792  )
       289           N   tau( 289) = (  0.8666666  0.3333334  0.4586126  )
       290           N   tau( 290) = (  0.8666666  0.3333334  0.7919459  )
       291           N   tau( 291) = (  0.8666666  0.5333334  0.1252792  )
       292           N   tau( 292) = (  0.8666666  0.5333334  0.4586126  )
       293           N   tau( 293) = (  0.8666666  0.5333334  0.7919459  )
       294           N   tau( 294) = (  0.8666666  0.7333334  0.1252792  )
       295           N   tau( 295) = (  0.8666666  0.7333334  0.4586126  )
       296           N   tau( 296) = (  0.8666666  0.7333334  0.7919459  )
       297           N   tau( 297) = (  0.8666666  0.9333334  0.1252792  )
       298           N   tau( 298) = (  0.8666666  0.9333334  0.4586126  )
       299           N   tau( 299) = (  0.8666666  0.9333334  0.7919459  )

     number of k points=     6  Gaussian smearing, width (Ry)=  0.0100
                       cart. coord. in units 2pi/alat
        k(    1) = (   0.0000000   0.0000000   0.0000000), wk =   0.2500000
        k(    2) = (   0.0000000   0.0000000  -0.5112854), wk =   0.2500000
        k(    3) = (   0.0000000  -0.5773503   0.0000000), wk =   0.5000000
        k(    4) = (   0.0000000  -0.5773503  -0.5112854), wk =   0.5000000
        k(    5) = (  -0.5000000  -0.2886751   0.0000000), wk =   0.2500000
        k(    6) = (  -0.5000000  -0.2886751  -0.5112854), wk =   0.2500000

                       cryst. coord.
        k(    1) = (   0.0000000   0.0000000   0.0000000), wk =   0.2500000
        k(    2) = (   0.0000000   0.0000000  -0.5000000), wk =   0.2500000
        k(    3) = (   0.0000000  -0.5000000   0.0000000), wk =   0.5000000
        k(    4) = (   0.0000000  -0.5000000  -0.5000000), wk =   0.5000000
        k(    5) = (  -0.5000000  -0.0000000   0.0000000), wk =   0.2500000
        k(    6) = (  -0.5000000  -0.0000000  -0.5000000), wk =   0.2500000

     Dense  grid:  2698283 G-vectors     FFT dimensions: ( 192, 192, 180)

     Smooth grid:  1930731 G-vectors     FFT dimensions: ( 180, 180, 160)

     Dynamical RAM for                 wfc:      92.85 MB

     Dynamical RAM for     wfc (w. buffer):     371.39 MB

     Dynamical RAM for           str. fact:       1.29 MB

     Dynamical RAM for           local pot:       0.00 MB

     Dynamical RAM for          nlocal pot:     223.31 MB

     Dynamical RAM for                qrad:       3.00 MB

     Dynamical RAM for          rho,v,vnew:       4.46 MB

     Dynamical RAM for               rhoin:       1.49 MB

     Dynamical RAM for            rho*nmix:      10.29 MB

     Dynamical RAM for           G-vectors:       2.64 MB

     Dynamical RAM for          h,s,v(r/c):    1907.96 MB

     Dynamical RAM for          <psi|beta>:      95.60 MB

     Dynamical RAM for                 psi:     371.39 MB

     Dynamical RAM for                hpsi:     371.39 MB

     Dynamical RAM for                spsi:     371.39 MB

     Dynamical RAM for      wfcinit/wfcrot:     245.33 MB

     Dynamical RAM for           addusdens:     108.40 MB

     Dynamical RAM for          addusforce:     204.85 MB

     Dynamical RAM for         addusstress:      64.82 MB

     Estimated static dynamical RAM per process >     613.73 MB

     Estimated max dynamical RAM per process >       3.65 GB

     Estimated total dynamical RAM >     467.07 GB

     Atomic positions and unit cell read from directory:
     ./GaN.save/
     Atomic positions from file used, from input discarded
 

     Check: negative core charge=   -0.000003

     The initial density is read from file :
     ./GaN.save/charge-density



     %%%%%%%%%%%%%%%%%%%%%%%%%%%%%%%%%%%%%%%%%%%%%%%%%%%%%%%%%%%%%%%%%%%%%%%%
     %                                                                      %
     % You are using vdW-DF, which was implemented by the Thonhauser group. %
     % Please cite the following two papers that made this development      %
     % possible and the two reviews that describe the various versions:     %
     %                                                                      %
     %   T. Thonhauser et al., PRL 115, 136402 (2015).                      %
     %   T. Thonhauser et al., PRB 76, 125112 (2007).                       %
     %   K. Berland et al., Rep. Prog. Phys. 78, 066501 (2015).             %
     %   D.C. Langreth et al., J. Phys.: Condens. Matter 21, 084203 (2009). %
     %                                                                      %
     % If you are calculating stress with vdW-DF, please also cite:         %
     %                                                                      %
     %   R. Sabatini et al., J. Phys.: Condens. Matter 24, 424209 (2012).   %
     %                                                                      %
     %%%%%%%%%%%%%%%%%%%%%%%%%%%%%%%%%%%%%%%%%%%%%%%%%%%%%%%%%%%%%%%%%%%%%%%%

     %%%%%%%%%%%%%%%%%%%%%%%%%%%%%%%%%%%%%%%%%%%%%%%%%%%%%%%%%%%%%%%%%%%%%%%%
     %                                                                      %
     %  vdW-DF NEWS:                                                        %
     %                                                                      %
     %  * vdW-DF3 is now available. DOI: 10.1021/acs.jctc.0c00471           %
     %    use with input_dft = 'vdW-DF3-opt1' or 'vdW-DF3-opt2'             %
     %                                                                      %
     %  * Unscreened and range-separated vdW-DF hybrid functionals          %
     %    DOI: 10.1063/1.4986522 and 10.1088/1361-648X/ac2ad2               %
     %    use with input_dft = 'vdW-DF-cx0' (etc) and 'vdW-DF-ahcx'         %
     %                                                                      %
     %%%%%%%%%%%%%%%%%%%%%%%%%%%%%%%%%%%%%%%%%%%%%%%%%%%%%%%%%%%%%%%%%%%%%%%%


     Carrying out vdW-DF run using the following parameters:
     Nqs    =  20  Npoints =  1024  r_max =  100.000
     q_mesh =  0.00001000  0.04494208  0.09755937  0.15916263
               0.23128650  0.31572767  0.41458969  0.53033537
               0.66584808  0.82450364  1.01025438  1.22772762
               1.48234092  1.78043706  2.12944203  2.53805004
               3.01644009  3.57652955  4.23227104  5.00000000


     -----------------------------------------------
     Non-local corr. energy    =      81.30961276 Ry
     -----------------------------------------------

     Starting wfcs from file
     Checking if some PAW data can be deallocated... 
       PAW data deallocated on   75 nodes for type:  1
       PAW data deallocated on   53 nodes for type:  2

     total cpu time spent up to now is        7.6 secs

     Self-consistent Calculation

     iteration #  1     ecut=    70.00 Ry     beta= 0.70
     Davidson diagonalization with overlap

---- Real-time Memory Report at c_bands before calling an iterative solver
           344 MiB given to the printing process from OS
             0 MiB allocation reported by mallinfo(arena+hblkhd)
       1795771 MiB available memory on the node where the printing process lives
------------------
     ethr =  1.00E-05,  avg # of iterations =  2.0

     Threshold (ethr) on eigenvalues was too large:
     Diagonalizing with lowered threshold

     Davidson diagonalization with overlap

---- Real-time Memory Report at c_bands before calling an iterative solver
          2401 MiB given to the printing process from OS
             0 MiB allocation reported by mallinfo(arena+hblkhd)
       1682297 MiB available memory on the node where the printing process lives
------------------
     ethr =  9.43E-09,  avg # of iterations = 13.7


     -----------------------------------------------
     Non-local corr. energy    =      81.30945993 Ry
     -----------------------------------------------


     total cpu time spent up to now is     5339.9 secs

     total energy              =  -46557.63776013 Ry
     estimated scf accuracy    <       0.00067170 Ry

     iteration #  2     ecut=    70.00 Ry     beta= 0.70
     Davidson diagonalization with overlap

---- Real-time Memory Report at c_bands before calling an iterative solver
          3151 MiB given to the printing process from OS
             0 MiB allocation reported by mallinfo(arena+hblkhd)
       1659434 MiB available memory on the node where the printing process lives
------------------
     ethr =  2.50E-08,  avg # of iterations = 12.7


     -----------------------------------------------
     Non-local corr. energy    =      81.30954777 Ry
     -----------------------------------------------


     total cpu time spent up to now is     8364.4 secs

     total energy              =  -46557.63790538 Ry
     estimated scf accuracy    <       0.00021472 Ry

     iteration #  3     ecut=    70.00 Ry     beta= 0.70
     Davidson diagonalization with overlap

---- Real-time Memory Report at c_bands before calling an iterative solver
          3151 MiB given to the printing process from OS
             0 MiB allocation reported by mallinfo(arena+hblkhd)
       1659391 MiB available memory on the node where the printing process lives
------------------
     ethr =  7.98E-09,  avg # of iterations = 15.7


     -----------------------------------------------
     Non-local corr. energy    =      81.30950617 Ry
     -----------------------------------------------


     total cpu time spent up to now is    12113.7 secs

     total energy              =  -46557.63792501 Ry
     estimated scf accuracy    <       0.00024235 Ry

     iteration #  4     ecut=    70.00 Ry     beta= 0.70
     Davidson diagonalization with overlap

---- Real-time Memory Report at c_bands before calling an iterative solver
          3151 MiB given to the printing process from OS
             0 MiB allocation reported by mallinfo(arena+hblkhd)
       1659255 MiB available memory on the node where the printing process lives
------------------
     ethr =  7.98E-09,  avg # of iterations = 14.7


     -----------------------------------------------
     Non-local corr. energy    =      81.30951086 Ry
     -----------------------------------------------


     total cpu time spent up to now is    15073.6 secs

     total energy              =  -46557.63795876 Ry
     estimated scf accuracy    <       0.00005537 Ry

     iteration #  5     ecut=    70.00 Ry     beta= 0.70
     Davidson diagonalization with overlap

---- Real-time Memory Report at c_bands before calling an iterative solver
          3151 MiB given to the printing process from OS
             0 MiB allocation reported by mallinfo(arena+hblkhd)
       1658556 MiB available memory on the node where the printing process lives
------------------
     ethr =  2.06E-09,  avg # of iterations =  2.0


     -----------------------------------------------
     Non-local corr. energy    =      81.30952101 Ry
     -----------------------------------------------


     total cpu time spent up to now is    15552.1 secs

     total energy              =  -46557.63796673 Ry
     estimated scf accuracy    <       0.00004094 Ry

     iteration #  6     ecut=    70.00 Ry     beta= 0.70
     Davidson diagonalization with overlap

---- Real-time Memory Report at c_bands before calling an iterative solver
          3151 MiB given to the printing process from OS
             0 MiB allocation reported by mallinfo(arena+hblkhd)
       1658550 MiB available memory on the node where the printing process lives
------------------
     ethr =  1.52E-09,  avg # of iterations =  1.0


     -----------------------------------------------
     Non-local corr. energy    =      81.30953203 Ry
     -----------------------------------------------


     total cpu time spent up to now is    15947.6 secs

     total energy              =  -46557.63797085 Ry
     estimated scf accuracy    <       0.00001416 Ry

     iteration #  7     ecut=    70.00 Ry     beta= 0.70
     Davidson diagonalization with overlap

---- Real-time Memory Report at c_bands before calling an iterative solver
          3151 MiB given to the printing process from OS
             0 MiB allocation reported by mallinfo(arena+hblkhd)
       1658552 MiB available memory on the node where the printing process lives
------------------
     ethr =  5.27E-10,  avg # of iterations = 14.8


     -----------------------------------------------
     Non-local corr. energy    =      81.30952548 Ry
     -----------------------------------------------


     total cpu time spent up to now is    18248.6 secs

     total energy              =  -46557.63797140 Ry
     estimated scf accuracy    <       0.00000065 Ry

     iteration #  8     ecut=    70.00 Ry     beta= 0.70
     Davidson diagonalization with overlap

---- Real-time Memory Report at c_bands before calling an iterative solver
          3151 MiB given to the printing process from OS
             0 MiB allocation reported by mallinfo(arena+hblkhd)
       1658540 MiB available memory on the node where the printing process lives
------------------
     ethr =  2.42E-11,  avg # of iterations = 10.0


     -----------------------------------------------
     Non-local corr. energy    =      81.30951435 Ry
     -----------------------------------------------


     total cpu time spent up to now is    22436.3 secs

     total energy              =  -46557.63797187 Ry
     estimated scf accuracy    <       0.00000012 Ry

     iteration #  9     ecut=    70.00 Ry     beta= 0.70
     Davidson diagonalization with overlap

---- Real-time Memory Report at c_bands before calling an iterative solver
          3521 MiB given to the printing process from OS
             0 MiB allocation reported by mallinfo(arena+hblkhd)
       1657722 MiB available memory on the node where the printing process lives
------------------
     ethr =  4.41E-12,  avg # of iterations = 14.3


     -----------------------------------------------
     Non-local corr. energy    =      81.30950263 Ry
     -----------------------------------------------


     total cpu time spent up to now is    24909.9 secs

     End of self-consistent calculation

          k = 0.0000 0.0000 0.0000 (241213 PWs)   bands (ev):

    -6.9832  -6.7941  -6.7791  -6.7738  -6.7737  -6.7639  -6.7281  -6.7278
    -6.6786  -6.6582  -6.6457  -6.6385  -6.6383  -6.6221  -6.6219  -6.6033
    -6.6023  -6.5981  -6.5969  -6.5964  -6.5949  -6.5817  -6.5816  -6.5801
    -6.5729  -6.5724  -6.5722  -6.5694  -6.5660  -6.5658  -6.5651  -6.5622
    -6.5511  -6.5509  -6.5480  -6.5452  -6.5445  -6.5443  -6.5402  -6.5397
    -6.5393  -6.5389  -6.5358  -6.5342  -6.5331  -6.5324  -6.5296  -6.5289
    -6.5265  -6.5243  -6.5243  -6.5241  -6.5222  -6.5217  -6.5206  -6.5193
    -6.5191  -6.5165  -6.5154  -6.5152  -6.5126  -6.5120  -6.5070  -6.5064
    -6.5021  -6.5014  -6.4985  -6.4971  -6.4926  -6.4923  -6.4880  -6.4877
    -6.4868  -6.4813  -6.4808  -6.4797  -6.4797  -6.4742  -6.4739  -6.4705
    -6.4669  -6.4660  -6.4657  -6.4650  -6.4635  -6.4633  -6.4585  -6.4582
    -6.4577  -6.4570  -6.4569  -6.4556  -6.4550  -6.4488  -6.4476  -6.4454
    -6.4452  -6.4442  -6.4434  -6.4403  -6.4380  -6.4380  -6.4374  -6.4343
    -6.4340  -6.4280  -6.4279  -6.4216  -6.4211  -6.4205  -6.4188  -6.4177
    -6.4164  -6.4125  -6.4114  -6.4112  -6.4046  -6.4043  -6.3688  -6.3672
    -6.3624  -6.3552  -6.3225  -6.3223  -6.3112  -6.2842  -6.2836  -6.2835
    -6.2706  -6.2705  -6.2626  -6.2567  -6.2562  -6.2428  -6.2370  -6.2364
    -6.2239  -6.2140  -6.2129  -6.1929  -6.1927  -6.1764  -6.1759  -6.1657
    -6.1652  -6.0360  -5.6672  -5.6382  -5.6222  -5.6219  -5.4645  -5.4645
    -5.4526  -5.4487  -5.4486  -5.4463  -5.4461  -5.4418  -5.4417  -5.4388
    -5.4382  -5.4382  -5.4351  -5.4351  -5.4340  -5.4339  -5.4295  -5.4289
    -5.4284  -5.4284  -5.4254  -5.4223  -5.4222  -5.4220  -5.4196  -5.4195
    -5.4153  -5.4152  -5.4151  -5.4118  -5.4118  -5.4108  -5.4093  -5.4092
    -5.4079  -5.4079  -5.4060  -5.4059  -5.4059  -5.4016  -5.4005  -5.3976
    -5.3975  -5.3967  -5.3963  -5.3952  -5.3951  -5.3936  -5.3935  -5.3929
    -5.3922  -5.3900  -5.3899  -5.3851  -5.3851  -5.3842  -5.3840  -5.3832
    -5.3832  -5.3826  -5.3816  -5.3816  -5.3791  -5.3790  -5.3777  -5.3777
    -5.3776  -5.3765  -5.3756  -5.3756  -5.3749  -5.3748  -5.3730  -5.3730
    -5.3722  -5.3697  -5.3697  -5.3682  -5.3667  -5.3666  -5.3662  -5.3660
    -5.3650  -5.3650  -5.3643  -5.3632  -5.3632  -5.3601  -5.3600  -5.3592
    -5.3591  -5.3589  -5.3587  -5.3567  -5.3567  -5.3558  -5.3552  -5.3552
    -5.3551  -5.3533  -5.3532  -5.3522  -5.3503  -5.3490  -5.3489  -5.3466
    -5.3466  -5.3464  -5.3433  -5.3433  -5.3432  -5.3431  -5.3404  -5.3404
    -5.3388  -5.3387  -5.3376  -5.3368  -5.3367  -5.3362  -5.3354  -5.3347
    -5.3346  -5.3343  -5.3342  -5.3333  -5.3327  -5.3327  -5.3323  -5.3298
    -5.3285  -5.3273  -5.3269  -5.3269  -5.3253  -5.3252  -5.3241  -5.3240
    -5.3235  -5.3198  -5.3197  -5.3194  -5.3194  -5.3181  -5.3172  -5.3165
    -5.3162  -5.3162  -5.3141  -5.3141  -5.3116  -5.3115  -5.3115  -5.3109
    -5.3104  -5.3103  -5.3080  -5.3080  -5.3072  -5.3072  -5.3067  -5.3037
    -5.3037  -5.3034  -5.3030  -5.3029  -5.3028  -5.3019  -5.3017  -5.3017
    -5.3002  -5.3002  -5.2988  -5.2984  -5.2959  -5.2958  -5.2958  -5.2952
    -5.2952  -5.2939  -5.2935  -5.2935  -5.2915  -5.2904  -5.2904  -5.2903
    -5.2896  -5.2896  -5.2882  -5.2869  -5.2867  -5.2866  -5.2866  -5.2862
    -5.2844  -5.2844  -5.2825  -5.2823  -5.2819  -5.2818  -5.2813  -5.2799
    -5.2798  -5.2798  -5.2779  -5.2777  -5.2777  -5.2774  -5.2773  -5.2769
    -5.2764  -5.2758  -5.2758  -5.2755  -5.2755  -5.2744  -5.2744  -5.2743
    -5.2734  -5.2703  -5.2702  -5.2692  -5.2692  -5.2687  -5.2674  -5.2673
    -5.2665  -5.2665  -5.2655  -5.2652  -5.2650  -5.2649  -5.2639  -5.2637
    -5.2636  -5.2633  -5.2633  -5.2616  -5.2613  -5.2612  -5.2597  -5.2596
    -5.2594  -5.2576  -5.2575  -5.2575  -5.2570  -5.2563  -5.2562  -5.2561
    -5.2552  -5.2532  -5.2528  -5.2528  -5.2505  -5.2505  -5.2497  -5.2488
    -5.2480  -5.2480  -5.2480  -5.2474  -5.2473  -5.2459  -5.2459  -5.2451
    -5.2442  -5.2436  -5.2435  -5.2428  -5.2425  -5.2425  -5.2423  -5.2414
    -5.2413  -5.2401  -5.2400  -5.2391  -5.2384  -5.2384  -5.2381  -5.2381
    -5.2375  -5.2371  -5.2356  -5.2356  -5.2339  -5.2338  -5.2332  -5.2328
    -5.2327  -5.2318  -5.2309  -5.2308  -5.2306  -5.2291  -5.2280  -5.2279
    -5.2279  -5.2278  -5.2277  -5.2263  -5.2252  -5.2251  -5.2242  -5.2242
    -5.2239  -5.2220  -5.2217  -5.2217  -5.2212  -5.2212  -5.2198  -5.2194
    -5.2182  -5.2172  -5.2171  -5.2162  -5.2162  -5.2158  -5.2138  -5.2138
    -5.2127  -5.2125  -5.2124  -5.2124  -5.2117  -5.2114  -5.2114  -5.2094
    -5.2084  -5.2069  -5.2069  -5.2067  -5.2066  -5.2043  -5.2042  -5.2041
    -5.2039  -5.2038  -5.2037  -5.2023  -5.2022  -5.2018  -5.2004  -5.2004
    -5.2000  -5.1981  -5.1971  -5.1970  -5.1969  -5.1948  -5.1948  -5.1947
    -5.1947  -5.1946  -5.1938  -5.1922  -5.1922  -5.1917  -5.1913  -5.1913
    -5.1894  -5.1894  -5.1891  -5.1891  -5.1884  -5.1869  -5.1869  -5.1862
    -5.1858  -5.1857  -5.1855  -5.1848  -5.1848  -5.1835  -5.1823  -5.1822
    -5.1809  -5.1809  -5.1806  -5.1797  -5.1784  -5.1783  -5.1772  -5.1771
    -5.1766  -5.1756  -5.1748  -5.1745  -5.1744  -5.1729  -5.1728  -5.1692
    -5.1689  -5.1687  -5.1682  -5.1678  -5.1677  -5.1676  -5.1660  -5.1657
    -5.1655  -5.1649  -5.1638  -5.1637  -5.1632  -5.1631  -5.1621  -5.1609
    -5.1609  -5.1601  -5.1599  -5.1598  -5.1583  -5.1582  -5.1574  -5.1567
    -5.1567  -5.1541  -5.1536  -5.1536  -5.1527  -5.1505  -5.1480  -5.1479
    -5.1466  -5.1464  -5.1463  -5.1463  -5.1458  -5.1458  -5.1455  -5.1431
    -5.1430  -5.1400  -5.1399  -5.1389  -5.1375  -5.1369  -5.1367  -5.1363
    -5.1363  -5.1339  -5.1338  -5.1326  -5.1326  -5.1325  -5.1320  -5.1319
    -5.1297  -5.1263  -5.1263  -5.1249  -5.1226  -5.1216  -5.1215  -5.1215
    -5.1176  -5.1175  -5.1168  -5.1151  -5.1150  -5.1129  -5.1128  -5.1125
    -5.1105  -5.1098  -5.1096  -5.1078  -5.1069  -5.1053  -5.1051  -5.1051
    -5.1041  -5.1040  -5.1019  -5.1019  -5.0977  -5.0970  -5.0970  -5.0963
    -5.0963  -5.0948  -5.0938  -5.0924  -5.0919  -5.0919  -5.0915  -5.0901
    -5.0901  -5.0872  -5.0871  -5.0850  -5.0850  -5.0832  -5.0830  -5.0806
    -5.0791  -5.0791  -5.0785  -5.0773  -5.0772  -5.0735  -5.0733  -5.0725
    -5.0683  -5.0682  -5.0663  -5.0656  -5.0654  -5.0648  -5.0629  -5.0609
    -5.0588  -5.0587  -5.0578  -5.0570  -5.0569  -5.0555  -5.0553  -5.0539
    -5.0517  -5.0468  -5.0468  -5.0466  -5.0430  -5.0427  -5.0421  -5.0420
    -5.0388  -5.0387  -5.0338  -5.0336  -5.0299  -5.0296  -5.0295  -5.0220
    -5.0219  -5.0215  -5.0121  -5.0120  -5.0098  -5.0064  -4.9998  -4.9996
    -4.9762  -4.9756  -4.9754  -4.9627  -4.9627  -4.9471  -4.9442  -4.9440
    -4.9276  -4.9204  -4.9119  -4.9119  -4.9085  -4.9085  -4.8845  -4.8700
    -4.8576  -4.8576  -4.8194  -4.8194  -4.8026  -4.7961  -4.7961  -4.7653
    -4.7540  -4.7537  -4.7420  -4.7239  -4.7237  -4.7116  -4.7114  -4.7017
    -4.6928  -4.6925  -4.6764  -4.6750  -4.6750  -4.6592  -4.6471  -4.6467
    -4.6431  -4.6430  -4.6417  -4.6114  -4.6112  -4.6112  -4.5994  -4.5911
    -4.5910  -4.5823  -4.5743  -4.5741  -4.5739  -4.5733  -4.5665  -4.5663
    -4.5564  -4.5561  -4.5543  -4.5401  -4.5401  -4.5342  -4.5314  -4.5314
    -4.5278  -4.5275  -4.5152  -4.5148  -4.5068  -4.5047  -4.4295  -4.4293
    -4.4252  -4.4250  -4.4190  -4.4120  -4.3863  -4.3747  -4.1859  -4.1857
    -4.1840  -4.1837  -4.1745  -4.1739  -4.1669  -4.1667  -4.1529  -4.1494
    -4.1492  -4.1331  -4.1300  -4.1170  -4.1108  -4.1084  -4.1083  -4.0900
    -4.0900  -4.0834  -4.0833  -4.0723  -4.0723  -4.0589  -4.0038  -4.0035
    -3.9848  -3.9846  -3.9339  -3.9055  -3.9040  -3.9039  -3.8917  -3.8739
    -3.8738  -3.8694  -3.8497  -3.8496  -3.8289  -3.7994  -3.7991  -3.6543
    -3.6103  -3.5326  -3.5325  -3.5079  -3.5076  -3.4998  -3.4997  -3.4990
    -3.4986  -3.4985  -3.4957  -3.4945  -3.4945  -3.4918  -3.4850  -3.4833
    -3.4832  -3.4799  -3.4733  -3.4262  -3.4262  -3.4161  -3.4088  -3.3940
    -3.3939  -3.3840  -3.3840  -3.3838  -3.3747  -3.3746  -3.3664  -3.3530
    -3.3445  -3.3444  -3.3340  -3.3337  -3.3276  -3.3273  -3.2996  -3.2909
    -3.2908  -3.2846  -3.2842  -3.2840  -3.2750  -3.2673  -3.2671  -3.1842
    -3.1726  -3.1724  -3.1652  -3.1650  -3.1649  -3.1594  -3.1129  -3.1128
    -3.0772  -3.0771  -3.0700  -3.0595  -3.0593  -3.0551  -3.0429  -3.0410
    -3.0409  -3.0209  -2.9701  -2.9700  -2.9598  -2.9287  -2.9286  -2.9113
    -2.8793  -2.8792  -2.8683  -2.3665  -2.3026  -2.2761  -2.2757   1.9766
     2.3943   2.4236   2.4237   2.4617   2.4617   2.4645   2.4646   2.4715
     2.4725   2.4889   2.4938   2.4946   2.4964   2.4969   2.5004   2.5036
     2.5039   2.5101   2.5102   2.5185   2.5189   2.5231   2.5346   2.5945
     2.5951   2.6027   2.6304   2.6307   2.6324   2.6388   2.6835   2.6843
     2.6848   2.7296   2.7298   2.7467   2.8458   2.8460   2.8513   2.8729
     2.8730   2.8789   2.8792   2.8794   2.8998   2.9056   2.9100   2.9102
     2.9372   2.9375   2.9611   2.9614   2.9847   3.0170   3.0171   3.0257
     3.0261   3.0567   3.0567   3.0794   3.1389   3.1390   3.1446   3.1591
     3.1644   3.1647   3.1687   3.1690   3.1720   3.1778   3.1782   3.1980
     3.2103   3.2103   3.2347   3.2442   3.2629   3.2630   3.2652   3.3162
     3.3167   3.3651   3.3655   3.4713   3.4748   3.5429   3.5498   3.5565
     3.5819   3.5820   3.5871   3.5871   3.6057   3.6058   3.6478   3.6482
     3.6584   3.6811   3.6812   3.7150   3.7151   3.7345   3.8305   3.8364
     3.8370   3.8555   3.8952   3.8955   3.8958   3.9050   3.9051   3.9077
     3.9317   3.9494   3.9496   3.9514   3.9705   3.9706   4.0218   4.0414
     4.0419   4.4075   4.4517   4.4519   4.4634   4.4637   4.4664   4.4774
     4.4819   4.4863   4.4867   4.5046   4.5416   4.5421   4.5428   4.5618
     4.5621   4.5939   4.5943   4.6287   4.6429   4.6432   4.7020   4.7022
     4.7696   4.8785   4.8868   4.8875   4.8878   4.8878   4.9076   4.9077
     4.9194   4.9797   4.9798   5.0960   5.0961   5.3429   5.3487   5.3646
     5.3650   5.3757   5.3758   5.3870   5.3871   5.3922   5.4124   5.4306
     5.4308   5.4573   5.4575   5.4603   5.4699   5.4701   5.5222   5.5572
     5.6042   5.6043   5.6413   5.6488   5.6492   5.7458   5.7564   5.7659
     5.7660   5.7791   5.7792   5.7830   5.7832   5.7858   5.7872   5.7875
     5.7951   5.8187   5.8304   5.8353   5.8354   5.8478   5.8479   5.8683
     5.9048   5.9050   5.9077   5.9097   5.9157   5.9157   5.9186   5.9193
     5.9239   5.9242   5.9265   5.9266   5.9267   5.9279   5.9353   5.9360
     5.9379   5.9381   5.9449   5.9450   5.9624   5.9627   5.9771   5.9786
     5.9786   5.9915   5.9919   6.0063   6.0064   6.0179   6.0542   6.0544
     6.0785   6.1491   6.1492   6.1851   6.1854   6.1867   6.2299   6.2380
     6.2572   6.2572   6.2750   6.2751   6.2792   6.2793   6.3073   6.3076
     6.3180   6.3180   6.3712   6.3713   6.3923   6.3944   6.3945   6.4113
     6.4121   6.4219   6.4330   6.4459   6.4461   6.4779   6.4811   6.4813
     6.5113   6.5305   6.5309   6.5362   6.5372   6.5378   6.5405   6.5408
     6.5585   6.5587   6.5610   6.5611   6.5616   6.5756   6.5968   6.6057
     6.6058   6.6247   6.6263   6.6264   6.6448   6.6507   6.6517   6.6518
     6.6631   6.6737   6.6738   6.7335   6.7336   6.7394   6.7661   6.7662
     6.7739   6.7807   6.7829   6.7964   6.7965   6.8200   6.8323   6.8325
     6.8359   6.8361   6.8982   6.9824   6.9825   7.0096   7.0163   7.0165
     7.0320   7.0563   7.0564   7.0765   7.0849   7.0869   7.0870   7.1298
     7.1299   7.1738   7.1742   7.1852   7.1861   7.1866   7.2120   7.2216
     7.2222   7.2566   7.2626   7.2626   7.2717   7.2810   7.2846   7.2847
     7.2959   7.2960   7.2963   7.3067   7.3167   7.3186   7.3189   7.3215
     7.3221   7.3256   7.3323   7.3437   7.3466   7.3470   7.3484   7.3484
     7.3618   7.3762   7.3764   7.3769   7.3807   7.3827   7.3835   7.3944
     7.3945   7.4186   7.4188   7.4216   7.4219   7.4339   7.4375   7.4435
     7.4522   7.4523   7.4644   7.4645   7.4679   7.4679   7.4751   7.4925
     7.5000   7.5001   7.5094   7.5469   7.5472   7.5651   7.5653   7.5699
     7.5840   7.5840   7.5907   7.5927   7.6012   7.6181   7.6182   7.6435
     7.6437   7.6475   7.6704   7.6852   7.6855   7.6994   7.6995   7.7719
     7.7721   7.7895   7.7897   7.7924   7.7929   7.7932   7.8925   7.8927
     7.9384   7.9389   7.9435   7.9438   7.9778   7.9846   7.9847   7.9966
     7.9970   8.0300   8.0318   8.0321   8.0464   8.0646   8.0647   8.0983
     8.0987   8.1003   8.1818   8.2259   8.2259   8.3152   8.3154   8.3318
     8.3717   8.3718   8.3801   8.4089   8.4089   8.4608   8.4609   8.4739
     8.4941   8.4943   8.6789   8.7218   8.7220   8.9616   9.7132   9.7869
     9.7874  10.2368  11.9277  11.9576  12.0755  12.1117  12.1118  12.1857
    12.1857  12.2869  12.5636  12.7179  12.7743  12.7804  12.7865  12.7866
    12.7870  12.7872  12.8044  12.8325  12.8339  12.8342  12.8506  12.8510
    12.8513  12.8922  12.8972  12.8976  12.9213  12.9238  12.9243  12.9667
    12.9668  13.0069  13.0071  13.0437  13.1664  13.5651  13.5656  13.5685
    13.6142  13.6198  13.6210  13.7516  13.7519  13.7523  13.7552  13.7618
    13.7621  13.7639  13.7643  13.7654  13.7671  13.7794  13.7796  13.7808
    13.7809  13.7824  13.8106  13.8107  13.8296  13.8405  13.8415  13.8416
    13.8476  13.8476  13.8680  13.9196  13.9232  13.9237  13.9402  13.9403
    13.9582  13.9586  13.9622  13.9762  13.9763  13.9766  13.9922  13.9924
    14.0047  14.0159  14.0240  14.0278  14.0333  14.0334  14.0383  14.0385
    14.0504  14.0631  14.0632  14.0757  14.0759  14.0891  14.0917  14.0919
    14.1032  14.1190  14.1193  14.1603  14.1605  14.1989  14.2255  14.2579
    14.2583  14.3451  14.3726  14.3726  14.3869  14.3876  14.3922  14.4149
    14.5286  14.5293  14.7113  14.8034  14.8149  14.8157  14.8193  14.8199
    14.8204  14.8377  14.8398  14.8399  14.8459  14.8461  14.8977  14.9779
    14.9785  14.9890  14.9891  14.9967  15.0050  15.0106  15.0140  15.0158
    15.0301  15.0301  15.0656  15.0657  15.0686  15.0920  15.0920  15.0996
    15.1393  15.1471  15.1475  15.1624  15.2377  15.2379  15.3181  15.3241
    15.3379  15.3386  15.4473  15.4479  15.5039  15.6168  15.6175  15.6354
[...]
Ga            4.8722929063       12.1792226603       13.2234344602
Ga           14.6551626726        0.9525217387        2.6254539732
Ga           14.6047418106        0.9419015773        7.9223424303
Ga           14.6075785678        0.9365081908       13.2210230682
Ga           12.9964462330        3.7358594710        2.6263507476
Ga           12.9812166263        3.7454930057        7.9198527399
Ga           12.9837564908        3.7439973254       13.2294970424
Ga           11.3576648853        6.5573494082        2.6347323274
Ga           11.3553490450        6.5560123571        7.9243385940
Ga           11.3564294443        6.5566361260       13.2231096408
Ga            9.7335735972        9.3873206551        2.6263507476
Ga            9.7343016797        9.3693146615        7.9198527399
Ga            9.7342763147        9.3722620887       13.2294970424
Ga            8.1524906335       12.2154800956        2.6254539732
Ga            8.1180828730       12.1771244289        7.9223424303
Ga            8.1148304418       12.1822778260       13.2210230682
Ga            0.0394542885        1.8510996581        5.2411948309
Ga            0.0081180462        1.8683629789       10.5583279426
Ga            0.0145916542        1.8643094052       15.9252662228
Ga           -1.6109925376        4.6741965546        5.2707636795
Ga           -1.6208295099        4.6809618053       10.5738827579
Ga           -1.6034095433        4.6693625918       15.8830866087
Ga           -3.2431271214        7.4937868725        5.2820862736
Ga           -3.2435735518        7.4935291258       10.5748007683
Ga           -3.2415773377        7.4946816406       15.8674044509
Ga           -4.8688966729       10.3170520433        5.2707636795
Ga           -4.8679562801       10.3051503501       10.5738827579
Ga           -4.8692915104       10.3260360905       15.8830866087
Ga           -6.4885468895       13.1579293707        5.2411948309
Ga           -6.4892645363       13.1221597284       10.5583279426
Ga           -6.4895382302       13.1297928242       15.9252662228
Ga            3.2049861395        1.8504022893        5.2417050632
Ga            3.2364871719        1.8685894188       10.5585234995
Ga            3.2295499099        1.8645841887       15.9249115207
Ga            1.6228781615        4.6656332232        5.2699115278
Ga            1.6229985750        4.6825637609       10.5705441614
Ga            1.6231488670        4.6708199687       15.8658573601
Ga            0.0015938110        7.4900201765        5.2797938068
Ga            0.0004434600        7.4917138981       10.5738215976
Ga            0.0001217853        7.4897417618       15.8660970215
Ga           -1.6240287096       10.3056809762        5.2797938068
Ga           -1.6231370792       10.3038378822       10.5738215976
Ga           -1.6250058367       10.3045453719       15.8660970215
Ga           -3.2593773860       13.1219478872        5.2699115278
Ga           -3.2446549035       13.1135868995       10.5705441614
Ga           -3.2547501798       13.1195889523       15.8658573601
Ga            6.4759574242        1.8678336559        5.2709980591
Ga            6.4862484965        1.8724855747       10.5740563421
Ga            6.4688874116        1.8643715743       15.8828210141
Ga            4.8555677882        4.6744308337        5.2709980591
Ga            4.8647420042        4.6810172043       10.5740563421
Ga            4.8490345313        4.6700390640       15.8828210141
Ga            3.2431897170        7.4895421770        5.2796437648
Ga            3.2444188066        7.4912578818       10.5736598797
Ga            3.2446146727        7.4892379481       15.8659466606
Ga            1.6219544999       10.3026430562        5.2820798634
Ga            1.6219738065       10.3026542029       10.5744652251
Ga            1.6219285527       10.3026280756       15.8627580267
Ga           -0.0036447163       13.1132243794        5.2796437648
Ga           -0.0015443276       13.1134309499       10.5736598797
Ga           -0.0031957085       13.1146105416       15.8659466606
Ga            9.7335639334        1.8711929946        5.2822515593
Ga            9.7337813201        1.8718452550       10.5748122981
Ga            9.7336126990        1.8694751837       15.8675184422
Ga            8.1061169256        4.6800714681        5.2742627055
Ga            8.1089648920        4.6817157422       10.5748640424
Ga            8.1045491668        4.6791663221       15.8684505581
Ga            6.4872803154        7.4939211570        5.2822515593
Ga            6.4879538828        7.4937832892       10.5748122981
Ga            6.4858170303        7.4948222946       15.8675184422
Ga            4.8693042018       10.3054130934        5.2797339030
Ga            4.8685845370       10.3036536045       10.5736398853
Ga            4.8702296970       10.3042522931       15.8659519499
Ga            3.2480282734       13.1135453745        5.2797339030
Ga            3.2461446789       13.1138018710       10.5736398853
Ga            3.2474857385       13.1149272770       15.8659519499
Ga           12.9912625846        1.8673814757        5.2711739001
Ga           12.9809839421        1.8727379092       10.5740967817
Ga           12.9985139800        1.8634489219       15.8828603709
Ga           11.3610504883        4.6801482419        5.2744230928
Ga           11.3585437600        4.6817940397       10.5751705594
Ga           11.3627720312        4.6791310052       15.8686285634
Ga            9.7336501950        7.4988882342        5.2744230928
Ga            9.7338221337        7.4958944449       10.5751705594
Ga            9.7336300137        7.5008877525       15.8686285634
Ga            8.1128287689       10.3170767062        5.2711739001
Ga            8.1123282550       10.3054969239       10.5740967817
Ga            8.1130487751       10.3253228757       15.8828603709
Ga            6.5039433949       13.1212606591        5.2699546901
Ga            6.4902749791       13.1133691955       10.5704721521
Ga            6.4991731121       13.1185065350       15.8656832366
N             1.6221474064        0.9365457708        4.8088993890
N             1.6222655660        0.9366139903        9.8924132460
N             1.6220220230        0.9364733807       15.1978364855
N            -0.0024205111        3.7538195971        4.6318298954
N            -0.0011354259        3.7532812313        9.9210167337
N             0.0054167178        3.7543096339       15.1888562464
N            -1.6231851417        6.5614131065        4.6370190203
N            -1.6228108584        6.5579723074        9.9191002620
N            -1.6224006511        6.5552189992       15.2104517171
N            -3.2406119048        9.3628784379        4.6370190203
N            -3.2434045826        9.3649229762        9.9191002620
N            -3.2455839138        9.3666548803       15.2104517171
N            -4.8616768921       12.1702985362        4.6318298954
N            -4.8615005879       12.1716806355        9.9210167337
N            -4.8573338933       12.1768407572       15.1888562464
N             4.8742355652        0.9356965457        4.6318932223
N             4.8733117997        0.9345869107        9.9206472124
N             4.8715802461        0.9287255868       15.1887810972
N             3.2474560353        3.7533613443        4.6318932223
N             3.2460331804        3.7531161574        9.9206472124
N             3.2400913482        3.7545472499       15.1887810972
N             1.6222882570        6.5583480037        4.6338218610
N             1.6223843146        6.5607009625        9.9171582869
N             1.6223321796        6.5617816244       15.2091018464
N             0.0013910035        9.3670061355        4.6339564550
N             0.0004013246        9.3664347441        9.9206210555
N             0.0000687231        9.3662427165       15.2093410824
N            -1.6205296624       12.1750733999        4.6338218610
N            -1.6184439115       12.1739801089        9.9171582869
N            -1.6175340984       12.1733946277       15.2091018464
N             8.1161030231        0.9349095091        4.6368618159
N             8.1130621160        0.9364099672        9.9189750906
N             8.1107000510        0.9373731882       15.2101705144
N             6.4894953719        3.7467104291        4.6285914965
N             6.4904430464        3.7472575692        9.9164130806
N             6.4850719266        3.7441565517       15.2140184487
N             4.8677081706        6.5612944370        4.6368618159
N             4.8674871519        6.5579107051        9.9189750906
N             4.8671402932        6.5553834864       15.2101705144
N             3.2432109180        9.3669396708        4.6341313795
N             3.2443050260        9.3664425641        9.9208068173
N             3.2444797031        9.3661740649       15.2094734068
N             1.6222434007       12.1745377684        4.6341313795
N             1.6223599476       12.1757338471        9.9208068173
N             1.6222147591       12.1760193715       15.2094734068
N            11.3508202292        0.9349122865        4.6369048474
N            11.3543433298        0.9365092845        9.9189739659
N            11.3564274991        0.9372899266       15.2100746077
N             9.7335346811        3.7459231469        4.6312484457
N             9.7337223176        3.7470404441        9.9200217267
N             9.7336154810        3.7465425821       15.2112944724
N             8.1108332201        6.5565245228        4.6312484457
N             8.1118946461        6.5561283722        9.9200217267
N             8.1114100667        6.5562847800       15.2112944724
N             6.4850691789        9.3626403228        4.6369048474
N             6.4882137700        9.3648929184        9.9189739659
N             6.4899319106        9.3663075410       15.2100746077
N             4.8648740674       12.1749393917        4.6338731241
N             4.8633552946       12.1740625278        9.9173873033
N             4.8617531229       12.1731375136       15.2089332312
N            14.5929568688        0.9353912272        4.6319649233
N            14.5941155380        0.9345396438        9.9206410637
N            14.5957931439        0.9280634330       15.1887513994
N            12.9777888134        3.7464790274        4.6287069080
N            12.9768459299        3.7472601754        9.9162509713
N            12.9826968800        3.7438130517       15.2143959331
N            11.3562668152        6.5565422320        4.6311162591
N            11.3554927696        6.5560953366        9.9199237804
N            11.3557655804        6.5562528440       15.2112313313
N             9.7334416930        9.3658530776        4.6287069080
N             9.7336467452        9.3646459425        9.9162509713
N             9.7335869236        9.3714365758       15.2143959331
N             8.1065522734       12.1701735450        4.6319649233
N             8.1063941152       12.1716027737        9.9206410637
N             8.1016243551       12.1762937284       15.1887513994
N            -0.1384630631        1.9528462069        1.9349075674
N            -0.0254966310        1.8882890505        7.2925200297
N             0.0007469888        1.8728071114       12.5487772425
N            -1.6310134515        4.7159573628        1.9966072964
N            -1.6264375331        4.6893582690        7.2732518800
N            -1.6252106889        4.6841197715       12.5609704502
N            -3.2429984795        7.4938611440        1.9900593509
N            -3.2454527128        7.4924441917        7.2776442132
N            -3.2441599190        7.4931905865       12.5654033379
N            -4.8427412092       10.2788330192        1.9966072964
N            -4.8634887409       10.2960954277        7.2732518800
N            -4.8674119907       10.2997771547       12.5609704502
N            -6.4893904693       12.9529751500        1.9349075674
N            -6.4888153907       13.0830855282        7.2925200297
N            -6.4891013334       13.1135541392       12.5487772425
N             3.3815065704        1.9523164076        1.9348246967
N             3.2699676725        1.8879193948        7.2928789201
N             3.2435710217        1.8726792814       12.5490318402
N             1.6224646084        4.6914502560        1.9851567214
N             1.6224160828        4.6852136085        7.2758439409
N             1.6221857986        4.6871272679       12.5541801683
N             0.0019088028        7.4991210535        1.9909960916
N             0.0000030788        7.4948072207        7.2765393299
N            -0.0003848700        7.4929154680       12.5642018594
N            -1.6159896230       10.3014033286        1.9909960916
N            -1.6206783738       10.3019098395        7.2765393299
N            -1.6225106541       10.3025197424       12.5642018594
N            -3.2372259563       13.1086812233        1.9851567214
N            -3.2426513142       13.1117575227        7.2758439409
N            -3.2411091787       13.1106012610       12.5541801683
N             6.5219232023        1.8645423756        1.9964627207
N             6.4968685005        1.8741947966        7.2733445144
N             6.4914913603        1.8754465620       12.5611002086
N             4.8757003449        4.7158840054        1.9964627207
N             4.8715322357        4.6893597866        7.2733445144
N             4.8699277263        4.6840771639       12.5611002086
N             3.2420058307        7.4989862961        1.9909001396
N             3.2446162464        7.4948436732        7.2764076141
N             3.2449802379        7.4929280519       12.5640746441
N             1.6222348482       10.3028049154        1.9884408319
N             1.6223762911       10.3028865775        7.2774993652
N             1.6223058195       10.3028458907       12.5653325092
N             0.0039421875       13.1074770442        1.9909001396
N             0.0016597787       13.1118090420        7.2764076141
N             0.0001827978       13.1130820785       12.5640746441
N             9.7330314632        1.8712045127        1.9901275460
N             9.7336443287        1.8744249279        7.2777423501
N             9.7337505763        1.8729947588       12.5653575377
N             8.1119144307        4.6834186592        1.9909937691
N             8.1129207885        4.6839996801        7.2728121874
N             8.1108676996        4.6828143287       12.5662462836
N             6.4870240553        7.4934542651        1.9901275460
N             6.4901194494        7.4923748147        7.2777423501
N             6.4889340104        7.4931819123       12.5653575377
N             4.8600877154       10.3015854861        1.9908581094
N             4.8652868133       10.3020337775        7.2764760013
N             4.8670721810       10.3025580209       12.5640098594
N             3.2401052251       13.1074774668        1.9908581094
N             3.2430930058       13.1117558720        7.2764760013
N             3.2444396977       13.1130399241       12.5640098594
N            12.9443290508        1.8640249983        1.9964933676
N            12.9706236531        1.8740491181        7.2735602585
N            12.9759778480        1.8755066013       12.5611618746
N            11.3551586776        4.6833293476        1.9912706138
N            11.3545615343        4.6840012212        7.2730006155
N            11.3567037159        4.6827609006       12.5665787838
N             9.7334592081        7.4921952237        1.9912706138
N             9.7337424960        7.4913421456        7.2730006155
N             9.7337394376        7.4938174896       12.5665787838
N             8.0864552073       10.2781093123        1.9964933676
N             8.1082836508       10.2958690461        7.2735602585
N             8.1122229657       10.2997771732       12.5611618746
N             6.4815578678       13.1083363689        1.9850333186
N             6.4874376369       13.1117310552        7.2759107599
N             6.4857523077       13.1107580299       12.5541049936
End final coordinates



     Writing all to output data dir ./GaN.save/
 
     init_run     :      5.81s CPU      6.47s WALL (       1 calls)
     electrons    :  24667.39s CPU  24904.70s WALL (       1 calls)
     forces       :     96.08s CPU     97.47s WALL (       1 calls)
     stress       :   1903.32s CPU   1918.49s WALL (       1 calls)

     Called by init_run:
     wfcinit      :      0.77s CPU      0.85s WALL (       1 calls)
     potinit      :      2.00s CPU      2.26s WALL (       1 calls)
     hinit0       :      1.34s CPU      1.49s WALL (       1 calls)

     Called by electrons:
     c_bands      :  24330.94s CPU  24560.58s WALL (      10 calls)
     sum_band     :    316.06s CPU    321.51s WALL (      10 calls)
     v_of_rho     :      9.18s CPU      9.92s WALL (      10 calls)
     v_h          :      0.09s CPU      0.09s WALL (      10 calls)
     v_xc         :     10.88s CPU     11.75s WALL (      12 calls)
     newd         :      2.48s CPU      3.71s WALL (      10 calls)
     PAW_pot      :      7.87s CPU      7.94s WALL (      10 calls)
     mix_rho      :      0.41s CPU      0.43s WALL (      10 calls)
     vdW_kernel   :      0.25s CPU      0.26s WALL (       1 calls)

     Called by c_bands:
     init_us_2    :     15.67s CPU     16.02s WALL (      66 calls)
     init_us_2:cp :     15.67s CPU     16.02s WALL (      66 calls)
     cegterg      :  20392.21s CPU  20591.33s WALL (      30 calls)

     Called by sum_band:
     sum_band:wei :      0.03s CPU      0.03s WALL (      10 calls)
     sum_band:loo :    307.62s CPU    310.31s WALL (      10 calls)
     sum_band:buf :      3.63s CPU      3.69s WALL (      30 calls)
     sum_band:ini :      7.70s CPU      7.79s WALL (      30 calls)
     sum_band:cal :    212.18s CPU    213.77s WALL (      30 calls)
     sum_band:bec :      1.76s CPU      1.79s WALL (      30 calls)
     addusdens    :      2.39s CPU      3.70s WALL (      10 calls)
     addusd:skk   :      0.33s CPU      1.08s WALL (      20 calls)
     addusd:dgemm :      1.48s CPU      1.98s WALL (      20 calls)
     addusd:qvan2 :      0.50s CPU      0.50s WALL (      20 calls)

     Called by *egterg:
     cdiaghg      :  16471.69s CPU  16583.33s WALL (     301 calls)
     cegterg:over :    789.92s CPU    810.35s WALL (     277 calls)
     cegterg:upda :    484.57s CPU    492.61s WALL (     277 calls)
     cegterg:last :    227.33s CPU    229.03s WALL (      30 calls)
     h_psi        :   1617.64s CPU   1643.98s WALL (     307 calls)
     s_psi        :    565.16s CPU    574.91s WALL (     307 calls)
     g_psi        :      1.32s CPU      1.34s WALL (     277 calls)

     Called by h_psi:
     h_psi:calbec :    602.44s CPU    607.17s WALL (     307 calls)
     vloc_psi     :    443.24s CPU    448.67s WALL (     307 calls)
     add_vuspsi   :    565.28s CPU    576.03s WALL (     307 calls)

     General routines
     calbec       :   1000.42s CPU   1007.90s WALL (     352 calls)
     fft          :      4.69s CPU      4.77s WALL (     798 calls)
     ffts         :      0.18s CPU      0.19s WALL (      20 calls)
     fftw         :    485.22s CPU    490.72s WALL (  309632 calls)
     interpolate  :      0.13s CPU      0.13s WALL (      10 calls)
     davcio       :      0.01s CPU      2.53s WALL (       3 calls)
 
     Parallel routines

     PAW routines
     PAW_pot      :      7.87s CPU      7.94s WALL (      10 calls)
     PAW_symme    :      0.04s CPU      0.04s WALL (      19 calls)
 
     PWSCF        :      7h24m CPU      7h29m WALL

 
   This run was terminated on:  22:11: 0   1May2024            

=------------------------------------------------------------------------------=
   JOB DONE.
=------------------------------------------------------------------------------=
