
     Program PWSCF v.7.1 starts on 27Apr2024 at  7:17:36 

     This program is part of the open-source Quantum ESPRESSO suite
     for quantum simulation of materials; please cite
         "P. Giannozzi et al., J. Phys.:Condens. Matter 21 395502 (2009);
         "P. Giannozzi et al., J. Phys.:Condens. Matter 29 465901 (2017);
         "P. Giannozzi et al., J. Chem. Phys. 152 154105 (2020);
          URL http://www.quantum-espresso.org", 
     in publications or presentations arising from this work. More details at
     http://www.quantum-espresso.org/quote

     Parallel version (MPI & OpenMP), running on     128 processor cores
     Number of MPI processes:               128
     Threads/MPI process:                     1

     MPI processes distributed on     1 nodes
     1991999 MiB available memory on the printing compute node when the environment starts
 
     Reading input from espresso.pwi
Warning: card &CELL ignored
Warning: card    CELL_DYNAMICS    = 'BFGS' ignored
Warning: card / ignored

     Current dimensions of program PWSCF are:
     Max number of different atomic species (ntypx) = 10
     Max number of k-points (npk) =  40000
     Max angular momentum in pseudopotentials (lmaxx) =  4
     file Ga.pbe-dn-kjpaw_psl.1.0.0.UPF: wavefunction(s)  4S renormalized
     file N.pbe-n-kjpaw_psl.1.0.0.UPF: wavefunction(s)  2S renormalized

     **************************************************************************
     Initializing libbeef V0.1.2 with the BEEF-vdW functional.
     Citation: Wellendorff et al., PRB 85, 235149 (2012).
     **************************************************************************


     IMPORTANT: XC functional enforced from input :
     Exchange-correlation= BEEF-VDW
                           (   1   4  43  14   2   0   0)
     Any further DFT definition will be discarded
     Please, verify this is what you really want

 
     K-points division:     npool     =       2
     R & G space division:  proc/nbgrp/npool/nimage =      64
     Subspace diagonalization in iterative solution of the eigenvalue problem:
     a serial algorithm will be used

 
     Parallelization info
     --------------------
     sticks:   dense  smooth     PW     G-vecs:    dense   smooth      PW
     Min         354     283     73                42160    30167    3987
     Max         356     285     74                42163    30170    3996
     Sum       22693   18145   4705              2698283  1930731  255309
 
     Using Slab Decomposition
 


     bravais-lattice index     =            4
     lattice parameter (alat)  =      30.6565  a.u.
     unit-cell volume          =   24400.9461 (a.u.)^3
     number of atoms/cell      =          299
     number of atomic types    =            2
     number of electrons       =      2690.00
     number of Kohn-Sham states=         1614
     kinetic-energy cutoff     =      70.0000  Ry
     charge density cutoff     =     350.0000  Ry
     scf convergence threshold =      1.0E-07
     mixing beta               =       0.7000
     number of iterations used =            8  plain     mixing
     energy convergence thresh.=      1.0E-04
     force convergence thresh. =      1.0E-03
     Exchange-correlation= BEEF-VDW
                           (   1   4  43  14   2   0   0)
     nstep                     =           50


     celldm(1)=  30.656540  celldm(2)=   0.000000  celldm(3)=   0.977927
     celldm(4)=   0.000000  celldm(5)=   0.000000  celldm(6)=   0.000000

     crystal axes: (cart. coord. in units of alat)
               a(1) = (   1.000000   0.000000   0.000000 )  
               a(2) = (  -0.500000   0.866025   0.000000 )  
               a(3) = (   0.000000   0.000000   0.977927 )  

     reciprocal axes: (cart. coord. in units 2 pi/alat)
               b(1) = (  1.000000  0.577350 -0.000000 )  
               b(2) = (  0.000000  1.154701  0.000000 )  
               b(3) = (  0.000000 -0.000000  1.022571 )  


     PseudoPot. # 1 for Ga read from file:
     //group///packages/espresso/pseudo/psl_1.0.0/pslibrary.1.0.0/pbe/PSEUDOPOTENTIALS/Ga.pbe-dn-kjpaw_psl.1.0.0.UPF
     MD5 check sum: cd2a01e492f15b435d17032472d8505c
     Pseudo is Projector augmented-wave + core cor, Zval = 13.0
     Generated using 'atomic' code by A. Dal Corso  v.7.1
     Shape of augmentation charge: PSQ
     Using radial grid of 1205 points,  6 beta functions with: 
                l(1) =   0
                l(2) =   0
                l(3) =   1
                l(4) =   1
                l(5) =   2
                l(6) =   2
     Q(r) pseudized with 0 coefficients 


     PseudoPot. # 2 for N  read from file:
     //group///packages/espresso/pseudo/psl_1.0.0/pslibrary.1.0.0/pbe/PSEUDOPOTENTIALS/N.pbe-n-kjpaw_psl.1.0.0.UPF
     MD5 check sum: f77f775694dac7e2c3fe1c82443d1a16
     Pseudo is Projector augmented-wave + core cor, Zval =  5.0
     Generated using 'atomic' code by A. Dal Corso  v.7.1
     Shape of augmentation charge: PSQ
     Using radial grid of 1085 points,  4 beta functions with: 
                l(1) =   0
                l(2) =   0
                l(3) =   1
                l(4) =   1
     Q(r) pseudized with 0 coefficients 


     atomic species   valence    mass     pseudopotential
        Ga            13.00    69.72300     Ga( 1.00)
        N              5.00    14.00700     N ( 1.00)

      2 Sym. Ops. (no inversion) found


                                    s                        frac. trans.

      isym =  1     identity                                     

 cryst.   s( 1) = (     1          0          0      )
                  (     0          1          0      )
                  (     0          0          1      )

 cart.    s( 1) = (  1.0000000  0.0000000  0.0000000 )
                  (  0.0000000  1.0000000  0.0000000 )
                  (  0.0000000  0.0000000  1.0000000 )


      isym =  2     inv. 180 deg rotation - cryst. axis [0,1,0]  

 cryst.   s( 2) = (     1          1          0      )
                  (     0         -1          0      )
                  (     0          0          1      )

 cart.    s( 2) = (  0.5000000  0.8660254  0.0000000 )
                  (  0.8660254 -0.5000000  0.0000000 )
                  (  0.0000000  0.0000000  1.0000000 )


     point group C_s (m)    
     there are  2 classes
     the character table:

       E     s    
A'     1.00  1.00
A''    1.00 -1.00

     the symmetry operations in each class and the name of the first element:

     E        1
          identity                                               
     s        2
          inv. 180 deg rotation - cryst. axis [0,1,0]            

   Cartesian axes

     site n.     atom                  positions (alat units)
         1           Ga  tau(   1) = (   0.1000001   0.0577350   0.4886906  )
         2           Ga  tau(   2) = (   0.1000001   0.0577350   0.8146665  )
         3           Ga  tau(   3) = (   0.0000001   0.2309401   0.1627148  )
         4           Ga  tau(   4) = (   0.0000001   0.2309401   0.4886906  )
         5           Ga  tau(   5) = (   0.0000001   0.2309401   0.8146665  )
         6           Ga  tau(   6) = (  -0.0999999   0.4041451   0.1627148  )
         7           Ga  tau(   7) = (  -0.0999999   0.4041451   0.4886906  )
         8           Ga  tau(   8) = (  -0.0999999   0.4041451   0.8146665  )
         9           Ga  tau(   9) = (  -0.1999999   0.5773502   0.1627148  )
        10           Ga  tau(  10) = (  -0.1999999   0.5773502   0.4886906  )
        11           Ga  tau(  11) = (  -0.1999999   0.5773502   0.8146665  )
        12           Ga  tau(  12) = (  -0.2999999   0.7505553   0.1627148  )
        13           Ga  tau(  13) = (  -0.2999999   0.7505553   0.4886906  )
        14           Ga  tau(  14) = (  -0.2999999   0.7505553   0.8146665  )
        15           Ga  tau(  15) = (   0.3000001   0.0577350   0.1627148  )
        16           Ga  tau(  16) = (   0.3000001   0.0577350   0.4886906  )
        17           Ga  tau(  17) = (   0.3000001   0.0577350   0.8146665  )
        18           Ga  tau(  18) = (   0.2000001   0.2309401   0.1627148  )
        19           Ga  tau(  19) = (   0.2000001   0.2309401   0.4886906  )
        20           Ga  tau(  20) = (   0.2000001   0.2309401   0.8146665  )
        21           Ga  tau(  21) = (   0.1000001   0.4041451   0.1627148  )
        22           Ga  tau(  22) = (   0.1000001   0.4041451   0.4886906  )
        23           Ga  tau(  23) = (   0.1000001   0.4041451   0.8146665  )
        24           Ga  tau(  24) = (   0.0000001   0.5773502   0.1627148  )
        25           Ga  tau(  25) = (   0.0000001   0.5773502   0.4886906  )
        26           Ga  tau(  26) = (   0.0000001   0.5773502   0.8146665  )
        27           Ga  tau(  27) = (  -0.0999999   0.7505553   0.1627148  )
        28           Ga  tau(  28) = (  -0.0999999   0.7505553   0.4886906  )
        29           Ga  tau(  29) = (  -0.0999999   0.7505553   0.8146665  )
        30           Ga  tau(  30) = (   0.5000001   0.0577350   0.1627148  )
        31           Ga  tau(  31) = (   0.5000001   0.0577350   0.4886906  )
        32           Ga  tau(  32) = (   0.5000001   0.0577350   0.8146665  )
        33           Ga  tau(  33) = (   0.4000001   0.2309401   0.1627148  )
        34           Ga  tau(  34) = (   0.4000001   0.2309401   0.4886906  )
        35           Ga  tau(  35) = (   0.4000001   0.2309401   0.8146665  )
        36           Ga  tau(  36) = (   0.3000001   0.4041451   0.1627148  )
        37           Ga  tau(  37) = (   0.3000001   0.4041451   0.4886906  )
        38           Ga  tau(  38) = (   0.3000001   0.4041451   0.8146665  )
        39           Ga  tau(  39) = (   0.2000001   0.5773502   0.1627148  )
        40           Ga  tau(  40) = (   0.2000001   0.5773502   0.4886906  )
        41           Ga  tau(  41) = (   0.2000001   0.5773502   0.8146665  )
        42           Ga  tau(  42) = (   0.1000001   0.7505553   0.1627148  )
        43           Ga  tau(  43) = (   0.1000001   0.7505553   0.4886906  )
        44           Ga  tau(  44) = (   0.1000001   0.7505553   0.8146665  )
        45           Ga  tau(  45) = (   0.7000001   0.0577350   0.1627148  )
        46           Ga  tau(  46) = (   0.7000001   0.0577350   0.4886906  )
        47           Ga  tau(  47) = (   0.7000001   0.0577350   0.8146665  )
        48           Ga  tau(  48) = (   0.6000001   0.2309401   0.1627148  )
        49           Ga  tau(  49) = (   0.6000001   0.2309401   0.4886906  )
        50           Ga  tau(  50) = (   0.6000001   0.2309401   0.8146665  )
        51           Ga  tau(  51) = (   0.5000001   0.4041451   0.1627148  )
        52           Ga  tau(  52) = (   0.5000001   0.4041451   0.4886906  )
        53           Ga  tau(  53) = (   0.5000001   0.4041451   0.8146665  )
        54           Ga  tau(  54) = (   0.4000001   0.5773502   0.1627148  )
        55           Ga  tau(  55) = (   0.4000001   0.5773502   0.4886906  )
        56           Ga  tau(  56) = (   0.4000001   0.5773502   0.8146665  )
        57           Ga  tau(  57) = (   0.3000001   0.7505553   0.1627148  )
        58           Ga  tau(  58) = (   0.3000001   0.7505553   0.4886906  )
        59           Ga  tau(  59) = (   0.3000001   0.7505553   0.8146665  )
        60           Ga  tau(  60) = (   0.9000001   0.0577350   0.1627148  )
        61           Ga  tau(  61) = (   0.9000001   0.0577350   0.4886906  )
        62           Ga  tau(  62) = (   0.9000001   0.0577350   0.8146665  )
        63           Ga  tau(  63) = (   0.8000001   0.2309401   0.1627148  )
        64           Ga  tau(  64) = (   0.8000001   0.2309401   0.4886906  )
        65           Ga  tau(  65) = (   0.8000001   0.2309401   0.8146665  )
        66           Ga  tau(  66) = (   0.7000001   0.4041451   0.1627148  )
        67           Ga  tau(  67) = (   0.7000001   0.4041451   0.4886906  )
        68           Ga  tau(  68) = (   0.7000001   0.4041451   0.8146665  )
        69           Ga  tau(  69) = (   0.6000001   0.5773502   0.1627148  )
        70           Ga  tau(  70) = (   0.6000001   0.5773502   0.4886906  )
        71           Ga  tau(  71) = (   0.6000001   0.5773502   0.8146665  )
        72           Ga  tau(  72) = (   0.5000001   0.7505553   0.1627148  )
        73           Ga  tau(  73) = (   0.5000001   0.7505553   0.4886906  )
        74           Ga  tau(  74) = (   0.5000001   0.7505553   0.8146665  )
        75           Ga  tau(  75) = (  -0.0000001   0.1154701   0.3257027  )
        76           Ga  tau(  76) = (  -0.0000001   0.1154701   0.6516786  )
        77           Ga  tau(  77) = (  -0.0000001   0.1154701   0.9776544  )
        78           Ga  tau(  78) = (  -0.1000001   0.2886752   0.3257027  )
        79           Ga  tau(  79) = (  -0.1000001   0.2886752   0.6516786  )
        80           Ga  tau(  80) = (  -0.1000001   0.2886752   0.9776544  )
        81           Ga  tau(  81) = (  -0.2000001   0.4618803   0.3257027  )
        82           Ga  tau(  82) = (  -0.2000001   0.4618803   0.6516786  )
        83           Ga  tau(  83) = (  -0.2000001   0.4618803   0.9776544  )
        84           Ga  tau(  84) = (  -0.3000001   0.6350854   0.3257027  )
        85           Ga  tau(  85) = (  -0.3000001   0.6350854   0.6516786  )
        86           Ga  tau(  86) = (  -0.3000001   0.6350854   0.9776544  )
        87           Ga  tau(  87) = (  -0.4000001   0.8082905   0.3257027  )
        88           Ga  tau(  88) = (  -0.4000001   0.8082905   0.6516786  )
        89           Ga  tau(  89) = (  -0.4000001   0.8082905   0.9776544  )
        90           Ga  tau(  90) = (   0.1999999   0.1154701   0.3257027  )
        91           Ga  tau(  91) = (   0.1999999   0.1154701   0.6516786  )
        92           Ga  tau(  92) = (   0.1999999   0.1154701   0.9776544  )
        93           Ga  tau(  93) = (   0.0999999   0.2886752   0.3257027  )
        94           Ga  tau(  94) = (   0.0999999   0.2886752   0.6516786  )
        95           Ga  tau(  95) = (   0.0999999   0.2886752   0.9776544  )
        96           Ga  tau(  96) = (  -0.0000001   0.4618803   0.3257027  )
        97           Ga  tau(  97) = (  -0.0000001   0.4618803   0.6516786  )
        98           Ga  tau(  98) = (  -0.0000001   0.4618803   0.9776544  )
        99           Ga  tau(  99) = (  -0.1000001   0.6350854   0.3257027  )
       100           Ga  tau( 100) = (  -0.1000001   0.6350854   0.6516786  )
       101           Ga  tau( 101) = (  -0.1000001   0.6350854   0.9776544  )
       102           Ga  tau( 102) = (  -0.2000001   0.8082905   0.3257027  )
       103           Ga  tau( 103) = (  -0.2000001   0.8082905   0.6516786  )
       104           Ga  tau( 104) = (  -0.2000001   0.8082905   0.9776544  )
       105           Ga  tau( 105) = (   0.3999999   0.1154701   0.3257027  )
       106           Ga  tau( 106) = (   0.3999999   0.1154701   0.6516786  )
       107           Ga  tau( 107) = (   0.3999999   0.1154701   0.9776544  )
       108           Ga  tau( 108) = (   0.2999999   0.2886752   0.3257027  )
       109           Ga  tau( 109) = (   0.2999999   0.2886752   0.6516786  )
       110           Ga  tau( 110) = (   0.2999999   0.2886752   0.9776544  )
       111           Ga  tau( 111) = (   0.1999999   0.4618803   0.3257027  )
       112           Ga  tau( 112) = (   0.1999999   0.4618803   0.6516786  )
       113           Ga  tau( 113) = (   0.1999999   0.4618803   0.9776544  )
       114           Ga  tau( 114) = (   0.0999999   0.6350854   0.3257027  )
       115           Ga  tau( 115) = (   0.0999999   0.6350854   0.6516786  )
       116           Ga  tau( 116) = (   0.0999999   0.6350854   0.9776544  )
       117           Ga  tau( 117) = (  -0.0000001   0.8082905   0.3257027  )
       118           Ga  tau( 118) = (  -0.0000001   0.8082905   0.6516786  )
       119           Ga  tau( 119) = (  -0.0000001   0.8082905   0.9776544  )
       120           Ga  tau( 120) = (   0.5999999   0.1154701   0.3257027  )
       121           Ga  tau( 121) = (   0.5999999   0.1154701   0.6516786  )
       122           Ga  tau( 122) = (   0.5999999   0.1154701   0.9776544  )
       123           Ga  tau( 123) = (   0.4999999   0.2886752   0.3257027  )
       124           Ga  tau( 124) = (   0.4999999   0.2886752   0.6516786  )
       125           Ga  tau( 125) = (   0.4999999   0.2886752   0.9776544  )
       126           Ga  tau( 126) = (   0.3999999   0.4618803   0.3257027  )
       127           Ga  tau( 127) = (   0.3999999   0.4618803   0.6516786  )
       128           Ga  tau( 128) = (   0.3999999   0.4618803   0.9776544  )
       129           Ga  tau( 129) = (   0.2999999   0.6350854   0.3257027  )
       130           Ga  tau( 130) = (   0.2999999   0.6350854   0.6516786  )
       131           Ga  tau( 131) = (   0.2999999   0.6350854   0.9776544  )
       132           Ga  tau( 132) = (   0.1999999   0.8082905   0.3257027  )
       133           Ga  tau( 133) = (   0.1999999   0.8082905   0.6516786  )
       134           Ga  tau( 134) = (   0.1999999   0.8082905   0.9776544  )
       135           Ga  tau( 135) = (   0.7999999   0.1154701   0.3257027  )
       136           Ga  tau( 136) = (   0.7999999   0.1154701   0.6516786  )
       137           Ga  tau( 137) = (   0.7999999   0.1154701   0.9776544  )
       138           Ga  tau( 138) = (   0.6999999   0.2886752   0.3257027  )
       139           Ga  tau( 139) = (   0.6999999   0.2886752   0.6516786  )
       140           Ga  tau( 140) = (   0.6999999   0.2886752   0.9776544  )
       141           Ga  tau( 141) = (   0.5999999   0.4618803   0.3257027  )
       142           Ga  tau( 142) = (   0.5999999   0.4618803   0.6516786  )
       143           Ga  tau( 143) = (   0.5999999   0.4618803   0.9776544  )
       144           Ga  tau( 144) = (   0.4999999   0.6350854   0.3257027  )
       145           Ga  tau( 145) = (   0.4999999   0.6350854   0.6516786  )
       146           Ga  tau( 146) = (   0.4999999   0.6350854   0.9776544  )
       147           Ga  tau( 147) = (   0.3999999   0.8082905   0.3257027  )
       148           Ga  tau( 148) = (   0.3999999   0.8082905   0.6516786  )
       149           Ga  tau( 149) = (   0.3999999   0.8082905   0.9776544  )
       150           N   tau( 150) = (   0.1000001   0.0577350   0.2855019  )
       151           N   tau( 151) = (   0.1000001   0.0577350   0.6114777  )
       152           N   tau( 152) = (   0.1000001   0.0577350   0.9374535  )
       153           N   tau( 153) = (   0.0000001   0.2309401   0.2855019  )
       154           N   tau( 154) = (   0.0000001   0.2309401   0.6114777  )
       155           N   tau( 155) = (   0.0000001   0.2309401   0.9374535  )
       156           N   tau( 156) = (  -0.0999999   0.4041451   0.2855019  )
       157           N   tau( 157) = (  -0.0999999   0.4041451   0.6114777  )
       158           N   tau( 158) = (  -0.0999999   0.4041451   0.9374535  )
       159           N   tau( 159) = (  -0.1999999   0.5773502   0.2855019  )
       160           N   tau( 160) = (  -0.1999999   0.5773502   0.6114777  )
       161           N   tau( 161) = (  -0.1999999   0.5773502   0.9374535  )
       162           N   tau( 162) = (  -0.2999999   0.7505553   0.2855019  )
       163           N   tau( 163) = (  -0.2999999   0.7505553   0.6114777  )
       164           N   tau( 164) = (  -0.2999999   0.7505553   0.9374535  )
       165           N   tau( 165) = (   0.3000001   0.0577350   0.2855019  )
       166           N   tau( 166) = (   0.3000001   0.0577350   0.6114777  )
       167           N   tau( 167) = (   0.3000001   0.0577350   0.9374535  )
       168           N   tau( 168) = (   0.2000001   0.2309401   0.2855019  )
       169           N   tau( 169) = (   0.2000001   0.2309401   0.6114777  )
       170           N   tau( 170) = (   0.2000001   0.2309401   0.9374535  )
       171           N   tau( 171) = (   0.1000001   0.4041451   0.2855019  )
       172           N   tau( 172) = (   0.1000001   0.4041451   0.6114777  )
       173           N   tau( 173) = (   0.1000001   0.4041451   0.9374535  )
       174           N   tau( 174) = (   0.0000001   0.5773502   0.2855019  )
       175           N   tau( 175) = (   0.0000001   0.5773502   0.6114777  )
       176           N   tau( 176) = (   0.0000001   0.5773502   0.9374535  )
       177           N   tau( 177) = (  -0.0999999   0.7505553   0.2855019  )
       178           N   tau( 178) = (  -0.0999999   0.7505553   0.6114777  )
       179           N   tau( 179) = (  -0.0999999   0.7505553   0.9374535  )
       180           N   tau( 180) = (   0.5000001   0.0577350   0.2855019  )
       181           N   tau( 181) = (   0.5000001   0.0577350   0.6114777  )
       182           N   tau( 182) = (   0.5000001   0.0577350   0.9374535  )
       183           N   tau( 183) = (   0.4000001   0.2309401   0.2855019  )
       184           N   tau( 184) = (   0.4000001   0.2309401   0.6114777  )
       185           N   tau( 185) = (   0.4000001   0.2309401   0.9374535  )
       186           N   tau( 186) = (   0.3000001   0.4041451   0.2855019  )
       187           N   tau( 187) = (   0.3000001   0.4041451   0.6114777  )
       188           N   tau( 188) = (   0.3000001   0.4041451   0.9374535  )
       189           N   tau( 189) = (   0.2000001   0.5773502   0.2855019  )
       190           N   tau( 190) = (   0.2000001   0.5773502   0.6114777  )
       191           N   tau( 191) = (   0.2000001   0.5773502   0.9374535  )
       192           N   tau( 192) = (   0.1000001   0.7505553   0.2855019  )
       193           N   tau( 193) = (   0.1000001   0.7505553   0.6114777  )
       194           N   tau( 194) = (   0.1000001   0.7505553   0.9374535  )
       195           N   tau( 195) = (   0.7000001   0.0577350   0.2855019  )
       196           N   tau( 196) = (   0.7000001   0.0577350   0.6114777  )
       197           N   tau( 197) = (   0.7000001   0.0577350   0.9374535  )
       198           N   tau( 198) = (   0.6000001   0.2309401   0.2855019  )
       199           N   tau( 199) = (   0.6000001   0.2309401   0.6114777  )
       200           N   tau( 200) = (   0.6000001   0.2309401   0.9374535  )
       201           N   tau( 201) = (   0.5000001   0.4041451   0.2855019  )
       202           N   tau( 202) = (   0.5000001   0.4041451   0.6114777  )
       203           N   tau( 203) = (   0.5000001   0.4041451   0.9374535  )
       204           N   tau( 204) = (   0.4000001   0.5773502   0.2855019  )
       205           N   tau( 205) = (   0.4000001   0.5773502   0.6114777  )
       206           N   tau( 206) = (   0.4000001   0.5773502   0.9374535  )
       207           N   tau( 207) = (   0.3000001   0.7505553   0.2855019  )
       208           N   tau( 208) = (   0.3000001   0.7505553   0.6114777  )
       209           N   tau( 209) = (   0.3000001   0.7505553   0.9374535  )
       210           N   tau( 210) = (   0.9000001   0.0577350   0.2855019  )
       211           N   tau( 211) = (   0.9000001   0.0577350   0.6114777  )
       212           N   tau( 212) = (   0.9000001   0.0577350   0.9374535  )
       213           N   tau( 213) = (   0.8000001   0.2309401   0.2855019  )
       214           N   tau( 214) = (   0.8000001   0.2309401   0.6114777  )
       215           N   tau( 215) = (   0.8000001   0.2309401   0.9374535  )
       216           N   tau( 216) = (   0.7000001   0.4041451   0.2855019  )
       217           N   tau( 217) = (   0.7000001   0.4041451   0.6114777  )
       218           N   tau( 218) = (   0.7000001   0.4041451   0.9374535  )
       219           N   tau( 219) = (   0.6000001   0.5773502   0.2855019  )
       220           N   tau( 220) = (   0.6000001   0.5773502   0.6114777  )
       221           N   tau( 221) = (   0.6000001   0.5773502   0.9374535  )
       222           N   tau( 222) = (   0.5000001   0.7505553   0.2855019  )
       223           N   tau( 223) = (   0.5000001   0.7505553   0.6114777  )
       224           N   tau( 224) = (   0.5000001   0.7505553   0.9374535  )
       225           N   tau( 225) = (  -0.0000001   0.1154701   0.1225140  )
       226           N   tau( 226) = (  -0.0000001   0.1154701   0.4484898  )
       227           N   tau( 227) = (  -0.0000001   0.1154701   0.7744656  )
       228           N   tau( 228) = (  -0.1000001   0.2886752   0.1225140  )
       229           N   tau( 229) = (  -0.1000001   0.2886752   0.4484898  )
       230           N   tau( 230) = (  -0.1000001   0.2886752   0.7744656  )
       231           N   tau( 231) = (  -0.2000001   0.4618803   0.1225140  )
       232           N   tau( 232) = (  -0.2000001   0.4618803   0.4484898  )
       233           N   tau( 233) = (  -0.2000001   0.4618803   0.7744656  )
       234           N   tau( 234) = (  -0.3000001   0.6350854   0.1225140  )
       235           N   tau( 235) = (  -0.3000001   0.6350854   0.4484898  )
       236           N   tau( 236) = (  -0.3000001   0.6350854   0.7744656  )
       237           N   tau( 237) = (  -0.4000001   0.8082905   0.1225140  )
       238           N   tau( 238) = (  -0.4000001   0.8082905   0.4484898  )
       239           N   tau( 239) = (  -0.4000001   0.8082905   0.7744656  )
       240           N   tau( 240) = (   0.1999999   0.1154701   0.1225140  )
       241           N   tau( 241) = (   0.1999999   0.1154701   0.4484898  )
       242           N   tau( 242) = (   0.1999999   0.1154701   0.7744656  )
       243           N   tau( 243) = (   0.0999999   0.2886752   0.1225140  )
       244           N   tau( 244) = (   0.0999999   0.2886752   0.4484898  )
       245           N   tau( 245) = (   0.0999999   0.2886752   0.7744656  )
       246           N   tau( 246) = (  -0.0000001   0.4618803   0.1225140  )
       247           N   tau( 247) = (  -0.0000001   0.4618803   0.4484898  )
       248           N   tau( 248) = (  -0.0000001   0.4618803   0.7744656  )
       249           N   tau( 249) = (  -0.1000001   0.6350854   0.1225140  )
       250           N   tau( 250) = (  -0.1000001   0.6350854   0.4484898  )
       251           N   tau( 251) = (  -0.1000001   0.6350854   0.7744656  )
       252           N   tau( 252) = (  -0.2000001   0.8082905   0.1225140  )
       253           N   tau( 253) = (  -0.2000001   0.8082905   0.4484898  )
       254           N   tau( 254) = (  -0.2000001   0.8082905   0.7744656  )
       255           N   tau( 255) = (   0.3999999   0.1154701   0.1225140  )
       256           N   tau( 256) = (   0.3999999   0.1154701   0.4484898  )
       257           N   tau( 257) = (   0.3999999   0.1154701   0.7744656  )
       258           N   tau( 258) = (   0.2999999   0.2886752   0.1225140  )
       259           N   tau( 259) = (   0.2999999   0.2886752   0.4484898  )
       260           N   tau( 260) = (   0.2999999   0.2886752   0.7744656  )
       261           N   tau( 261) = (   0.1999999   0.4618803   0.1225140  )
       262           N   tau( 262) = (   0.1999999   0.4618803   0.4484898  )
       263           N   tau( 263) = (   0.1999999   0.4618803   0.7744656  )
       264           N   tau( 264) = (   0.0999999   0.6350854   0.1225140  )
       265           N   tau( 265) = (   0.0999999   0.6350854   0.4484898  )
       266           N   tau( 266) = (   0.0999999   0.6350854   0.7744656  )
       267           N   tau( 267) = (  -0.0000001   0.8082905   0.1225140  )
       268           N   tau( 268) = (  -0.0000001   0.8082905   0.4484898  )
       269           N   tau( 269) = (  -0.0000001   0.8082905   0.7744656  )
       270           N   tau( 270) = (   0.5999999   0.1154701   0.1225140  )
       271           N   tau( 271) = (   0.5999999   0.1154701   0.4484898  )
       272           N   tau( 272) = (   0.5999999   0.1154701   0.7744656  )
       273           N   tau( 273) = (   0.4999999   0.2886752   0.1225140  )
       274           N   tau( 274) = (   0.4999999   0.2886752   0.4484898  )
       275           N   tau( 275) = (   0.4999999   0.2886752   0.7744656  )
       276           N   tau( 276) = (   0.3999999   0.4618803   0.1225140  )
       277           N   tau( 277) = (   0.3999999   0.4618803   0.4484898  )
       278           N   tau( 278) = (   0.3999999   0.4618803   0.7744656  )
       279           N   tau( 279) = (   0.2999999   0.6350854   0.1225140  )
       280           N   tau( 280) = (   0.2999999   0.6350854   0.4484898  )
       281           N   tau( 281) = (   0.2999999   0.6350854   0.7744656  )
       282           N   tau( 282) = (   0.1999999   0.8082905   0.1225140  )
       283           N   tau( 283) = (   0.1999999   0.8082905   0.4484898  )
       284           N   tau( 284) = (   0.1999999   0.8082905   0.7744656  )
       285           N   tau( 285) = (   0.7999999   0.1154701   0.1225140  )
       286           N   tau( 286) = (   0.7999999   0.1154701   0.4484898  )
       287           N   tau( 287) = (   0.7999999   0.1154701   0.7744656  )
       288           N   tau( 288) = (   0.6999999   0.2886752   0.1225140  )
       289           N   tau( 289) = (   0.6999999   0.2886752   0.4484898  )
       290           N   tau( 290) = (   0.6999999   0.2886752   0.7744656  )
       291           N   tau( 291) = (   0.5999999   0.4618803   0.1225140  )
       292           N   tau( 292) = (   0.5999999   0.4618803   0.4484898  )
       293           N   tau( 293) = (   0.5999999   0.4618803   0.7744656  )
       294           N   tau( 294) = (   0.4999999   0.6350854   0.1225140  )
       295           N   tau( 295) = (   0.4999999   0.6350854   0.4484898  )
       296           N   tau( 296) = (   0.4999999   0.6350854   0.7744656  )
       297           N   tau( 297) = (   0.3999999   0.8082905   0.1225140  )
       298           N   tau( 298) = (   0.3999999   0.8082905   0.4484898  )
       299           N   tau( 299) = (   0.3999999   0.8082905   0.7744656  )

   Crystallographic axes

     site n.     atom                  positions (cryst. coord.)
         1           Ga  tau(   1) = (  0.1333334  0.0666666  0.4997208  )
         2           Ga  tau(   2) = (  0.1333334  0.0666666  0.8330541  )
         3           Ga  tau(   3) = (  0.1333334  0.2666666  0.1663874  )
         4           Ga  tau(   4) = (  0.1333334  0.2666666  0.4997208  )
         5           Ga  tau(   5) = (  0.1333334  0.2666666  0.8330541  )
         6           Ga  tau(   6) = (  0.1333334  0.4666666  0.1663874  )
         7           Ga  tau(   7) = (  0.1333334  0.4666666  0.4997208  )
         8           Ga  tau(   8) = (  0.1333334  0.4666666  0.8330541  )
         9           Ga  tau(   9) = (  0.1333334  0.6666666  0.1663874  )
        10           Ga  tau(  10) = (  0.1333334  0.6666666  0.4997208  )
        11           Ga  tau(  11) = (  0.1333334  0.6666666  0.8330541  )
        12           Ga  tau(  12) = (  0.1333334  0.8666666  0.1663874  )
        13           Ga  tau(  13) = (  0.1333334  0.8666666  0.4997208  )
        14           Ga  tau(  14) = (  0.1333334  0.8666666  0.8330541  )
        15           Ga  tau(  15) = (  0.3333334  0.0666666  0.1663874  )
        16           Ga  tau(  16) = (  0.3333334  0.0666666  0.4997208  )
        17           Ga  tau(  17) = (  0.3333334  0.0666666  0.8330541  )
        18           Ga  tau(  18) = (  0.3333334  0.2666666  0.1663874  )
        19           Ga  tau(  19) = (  0.3333334  0.2666666  0.4997208  )
        20           Ga  tau(  20) = (  0.3333334  0.2666666  0.8330541  )
        21           Ga  tau(  21) = (  0.3333334  0.4666666  0.1663874  )
        22           Ga  tau(  22) = (  0.3333334  0.4666666  0.4997208  )
        23           Ga  tau(  23) = (  0.3333334  0.4666666  0.8330541  )
        24           Ga  tau(  24) = (  0.3333334  0.6666666  0.1663874  )
        25           Ga  tau(  25) = (  0.3333334  0.6666666  0.4997208  )
        26           Ga  tau(  26) = (  0.3333334  0.6666666  0.8330541  )
        27           Ga  tau(  27) = (  0.3333334  0.8666666  0.1663874  )
        28           Ga  tau(  28) = (  0.3333334  0.8666666  0.4997208  )
        29           Ga  tau(  29) = (  0.3333334  0.8666666  0.8330541  )
        30           Ga  tau(  30) = (  0.5333334  0.0666666  0.1663874  )
        31           Ga  tau(  31) = (  0.5333334  0.0666666  0.4997208  )
        32           Ga  tau(  32) = (  0.5333334  0.0666666  0.8330541  )
        33           Ga  tau(  33) = (  0.5333334  0.2666666  0.1663874  )
        34           Ga  tau(  34) = (  0.5333334  0.2666666  0.4997208  )
        35           Ga  tau(  35) = (  0.5333334  0.2666666  0.8330541  )
        36           Ga  tau(  36) = (  0.5333334  0.4666666  0.1663874  )
        37           Ga  tau(  37) = (  0.5333334  0.4666666  0.4997208  )
        38           Ga  tau(  38) = (  0.5333334  0.4666666  0.8330541  )
        39           Ga  tau(  39) = (  0.5333334  0.6666666  0.1663874  )
        40           Ga  tau(  40) = (  0.5333334  0.6666666  0.4997208  )
        41           Ga  tau(  41) = (  0.5333334  0.6666666  0.8330541  )
        42           Ga  tau(  42) = (  0.5333334  0.8666666  0.1663874  )
        43           Ga  tau(  43) = (  0.5333334  0.8666666  0.4997208  )
        44           Ga  tau(  44) = (  0.5333334  0.8666666  0.8330541  )
        45           Ga  tau(  45) = (  0.7333334  0.0666666  0.1663874  )
        46           Ga  tau(  46) = (  0.7333334  0.0666666  0.4997208  )
        47           Ga  tau(  47) = (  0.7333334  0.0666666  0.8330541  )
        48           Ga  tau(  48) = (  0.7333334  0.2666666  0.1663874  )
        49           Ga  tau(  49) = (  0.7333334  0.2666666  0.4997208  )
        50           Ga  tau(  50) = (  0.7333334  0.2666666  0.8330541  )
        51           Ga  tau(  51) = (  0.7333334  0.4666666  0.1663874  )
        52           Ga  tau(  52) = (  0.7333334  0.4666666  0.4997208  )
        53           Ga  tau(  53) = (  0.7333334  0.4666666  0.8330541  )
        54           Ga  tau(  54) = (  0.7333334  0.6666666  0.1663874  )
        55           Ga  tau(  55) = (  0.7333334  0.6666666  0.4997208  )
        56           Ga  tau(  56) = (  0.7333334  0.6666666  0.8330541  )
        57           Ga  tau(  57) = (  0.7333334  0.8666666  0.1663874  )
        58           Ga  tau(  58) = (  0.7333334  0.8666666  0.4997208  )
        59           Ga  tau(  59) = (  0.7333334  0.8666666  0.8330541  )
        60           Ga  tau(  60) = (  0.9333334  0.0666666  0.1663874  )
        61           Ga  tau(  61) = (  0.9333334  0.0666666  0.4997208  )
        62           Ga  tau(  62) = (  0.9333334  0.0666666  0.8330541  )
        63           Ga  tau(  63) = (  0.9333334  0.2666666  0.1663874  )
        64           Ga  tau(  64) = (  0.9333334  0.2666666  0.4997208  )
        65           Ga  tau(  65) = (  0.9333334  0.2666666  0.8330541  )
        66           Ga  tau(  66) = (  0.9333334  0.4666666  0.1663874  )
        67           Ga  tau(  67) = (  0.9333334  0.4666666  0.4997208  )
        68           Ga  tau(  68) = (  0.9333334  0.4666666  0.8330541  )
        69           Ga  tau(  69) = (  0.9333334  0.6666666  0.1663874  )
        70           Ga  tau(  70) = (  0.9333334  0.6666666  0.4997208  )
        71           Ga  tau(  71) = (  0.9333334  0.6666666  0.8330541  )
        72           Ga  tau(  72) = (  0.9333334  0.8666666  0.1663874  )
        73           Ga  tau(  73) = (  0.9333334  0.8666666  0.4997208  )
        74           Ga  tau(  74) = (  0.9333334  0.8666666  0.8330541  )
        75           Ga  tau(  75) = (  0.0666666  0.1333334  0.3330541  )
        76           Ga  tau(  76) = (  0.0666666  0.1333334  0.6663874  )
        77           Ga  tau(  77) = (  0.0666666  0.1333334  0.9997208  )
        78           Ga  tau(  78) = (  0.0666666  0.3333334  0.3330541  )
        79           Ga  tau(  79) = (  0.0666666  0.3333334  0.6663874  )
        80           Ga  tau(  80) = (  0.0666666  0.3333334  0.9997208  )
        81           Ga  tau(  81) = (  0.0666666  0.5333334  0.3330541  )
        82           Ga  tau(  82) = (  0.0666666  0.5333334  0.6663874  )
        83           Ga  tau(  83) = (  0.0666666  0.5333334  0.9997208  )
        84           Ga  tau(  84) = (  0.0666666  0.7333334  0.3330541  )
        85           Ga  tau(  85) = (  0.0666666  0.7333334  0.6663874  )
        86           Ga  tau(  86) = (  0.0666666  0.7333334  0.9997208  )
        87           Ga  tau(  87) = (  0.0666666  0.9333334  0.3330541  )
        88           Ga  tau(  88) = (  0.0666666  0.9333334  0.6663874  )
        89           Ga  tau(  89) = (  0.0666666  0.9333334  0.9997208  )
        90           Ga  tau(  90) = (  0.2666666  0.1333334  0.3330541  )
        91           Ga  tau(  91) = (  0.2666666  0.1333334  0.6663874  )
        92           Ga  tau(  92) = (  0.2666666  0.1333334  0.9997208  )
        93           Ga  tau(  93) = (  0.2666666  0.3333334  0.3330541  )
        94           Ga  tau(  94) = (  0.2666666  0.3333334  0.6663874  )
        95           Ga  tau(  95) = (  0.2666666  0.3333334  0.9997208  )
        96           Ga  tau(  96) = (  0.2666666  0.5333334  0.3330541  )
        97           Ga  tau(  97) = (  0.2666666  0.5333334  0.6663874  )
        98           Ga  tau(  98) = (  0.2666666  0.5333334  0.9997208  )
        99           Ga  tau(  99) = (  0.2666666  0.7333334  0.3330541  )
       100           Ga  tau( 100) = (  0.2666666  0.7333334  0.6663874  )
       101           Ga  tau( 101) = (  0.2666666  0.7333334  0.9997208  )
       102           Ga  tau( 102) = (  0.2666666  0.9333334  0.3330541  )
       103           Ga  tau( 103) = (  0.2666666  0.9333334  0.6663874  )
       104           Ga  tau( 104) = (  0.2666666  0.9333334  0.9997208  )
       105           Ga  tau( 105) = (  0.4666666  0.1333334  0.3330541  )
       106           Ga  tau( 106) = (  0.4666666  0.1333334  0.6663874  )
       107           Ga  tau( 107) = (  0.4666666  0.1333334  0.9997208  )
       108           Ga  tau( 108) = (  0.4666666  0.3333334  0.3330541  )
       109           Ga  tau( 109) = (  0.4666666  0.3333334  0.6663874  )
       110           Ga  tau( 110) = (  0.4666666  0.3333334  0.9997208  )
       111           Ga  tau( 111) = (  0.4666666  0.5333334  0.3330541  )
       112           Ga  tau( 112) = (  0.4666666  0.5333334  0.6663874  )
       113           Ga  tau( 113) = (  0.4666666  0.5333334  0.9997208  )
       114           Ga  tau( 114) = (  0.4666666  0.7333334  0.3330541  )
       115           Ga  tau( 115) = (  0.4666666  0.7333334  0.6663874  )
       116           Ga  tau( 116) = (  0.4666666  0.7333334  0.9997208  )
       117           Ga  tau( 117) = (  0.4666666  0.9333334  0.3330541  )
       118           Ga  tau( 118) = (  0.4666666  0.9333334  0.6663874  )
       119           Ga  tau( 119) = (  0.4666666  0.9333334  0.9997208  )
       120           Ga  tau( 120) = (  0.6666666  0.1333334  0.3330541  )
       121           Ga  tau( 121) = (  0.6666666  0.1333334  0.6663874  )
       122           Ga  tau( 122) = (  0.6666666  0.1333334  0.9997208  )
       123           Ga  tau( 123) = (  0.6666666  0.3333334  0.3330541  )
       124           Ga  tau( 124) = (  0.6666666  0.3333334  0.6663874  )
       125           Ga  tau( 125) = (  0.6666666  0.3333334  0.9997208  )
       126           Ga  tau( 126) = (  0.6666666  0.5333334  0.3330541  )
       127           Ga  tau( 127) = (  0.6666666  0.5333334  0.6663874  )
       128           Ga  tau( 128) = (  0.6666666  0.5333334  0.9997208  )
       129           Ga  tau( 129) = (  0.6666666  0.7333334  0.3330541  )
       130           Ga  tau( 130) = (  0.6666666  0.7333334  0.6663874  )
       131           Ga  tau( 131) = (  0.6666666  0.7333334  0.9997208  )
       132           Ga  tau( 132) = (  0.6666666  0.9333334  0.3330541  )
       133           Ga  tau( 133) = (  0.6666666  0.9333334  0.6663874  )
       134           Ga  tau( 134) = (  0.6666666  0.9333334  0.9997208  )
       135           Ga  tau( 135) = (  0.8666666  0.1333334  0.3330541  )
       136           Ga  tau( 136) = (  0.8666666  0.1333334  0.6663874  )
       137           Ga  tau( 137) = (  0.8666666  0.1333334  0.9997208  )
       138           Ga  tau( 138) = (  0.8666666  0.3333334  0.3330541  )
       139           Ga  tau( 139) = (  0.8666666  0.3333334  0.6663874  )
       140           Ga  tau( 140) = (  0.8666666  0.3333334  0.9997208  )
       141           Ga  tau( 141) = (  0.8666666  0.5333334  0.3330541  )
       142           Ga  tau( 142) = (  0.8666666  0.5333334  0.6663874  )
       143           Ga  tau( 143) = (  0.8666666  0.5333334  0.9997208  )
       144           Ga  tau( 144) = (  0.8666666  0.7333334  0.3330541  )
       145           Ga  tau( 145) = (  0.8666666  0.7333334  0.6663874  )
       146           Ga  tau( 146) = (  0.8666666  0.7333334  0.9997208  )
       147           Ga  tau( 147) = (  0.8666666  0.9333334  0.3330541  )
       148           Ga  tau( 148) = (  0.8666666  0.9333334  0.6663874  )
       149           Ga  tau( 149) = (  0.8666666  0.9333334  0.9997208  )
       150           N   tau( 150) = (  0.1333334  0.0666666  0.2919459  )
       151           N   tau( 151) = (  0.1333334  0.0666666  0.6252792  )
       152           N   tau( 152) = (  0.1333334  0.0666666  0.9586126  )
       153           N   tau( 153) = (  0.1333334  0.2666666  0.2919459  )
       154           N   tau( 154) = (  0.1333334  0.2666666  0.6252792  )
       155           N   tau( 155) = (  0.1333334  0.2666666  0.9586126  )
       156           N   tau( 156) = (  0.1333334  0.4666666  0.2919459  )
       157           N   tau( 157) = (  0.1333334  0.4666666  0.6252792  )
       158           N   tau( 158) = (  0.1333334  0.4666666  0.9586126  )
       159           N   tau( 159) = (  0.1333334  0.6666666  0.2919459  )
       160           N   tau( 160) = (  0.1333334  0.6666666  0.6252792  )
       161           N   tau( 161) = (  0.1333334  0.6666666  0.9586126  )
       162           N   tau( 162) = (  0.1333334  0.8666666  0.2919459  )
       163           N   tau( 163) = (  0.1333334  0.8666666  0.6252792  )
       164           N   tau( 164) = (  0.1333334  0.8666666  0.9586126  )
       165           N   tau( 165) = (  0.3333334  0.0666666  0.2919459  )
       166           N   tau( 166) = (  0.3333334  0.0666666  0.6252792  )
       167           N   tau( 167) = (  0.3333334  0.0666666  0.9586126  )
       168           N   tau( 168) = (  0.3333334  0.2666666  0.2919459  )
       169           N   tau( 169) = (  0.3333334  0.2666666  0.6252792  )
       170           N   tau( 170) = (  0.3333334  0.2666666  0.9586126  )
       171           N   tau( 171) = (  0.3333334  0.4666666  0.2919459  )
       172           N   tau( 172) = (  0.3333334  0.4666666  0.6252792  )
       173           N   tau( 173) = (  0.3333334  0.4666666  0.9586126  )
       174           N   tau( 174) = (  0.3333334  0.6666666  0.2919459  )
       175           N   tau( 175) = (  0.3333334  0.6666666  0.6252792  )
       176           N   tau( 176) = (  0.3333334  0.6666666  0.9586126  )
       177           N   tau( 177) = (  0.3333334  0.8666666  0.2919459  )
       178           N   tau( 178) = (  0.3333334  0.8666666  0.6252792  )
       179           N   tau( 179) = (  0.3333334  0.8666666  0.9586126  )
       180           N   tau( 180) = (  0.5333334  0.0666666  0.2919459  )
       181           N   tau( 181) = (  0.5333334  0.0666666  0.6252792  )
       182           N   tau( 182) = (  0.5333334  0.0666666  0.9586126  )
       183           N   tau( 183) = (  0.5333334  0.2666666  0.2919459  )
       184           N   tau( 184) = (  0.5333334  0.2666666  0.6252792  )
       185           N   tau( 185) = (  0.5333334  0.2666666  0.9586126  )
       186           N   tau( 186) = (  0.5333334  0.4666666  0.2919459  )
       187           N   tau( 187) = (  0.5333334  0.4666666  0.6252792  )
       188           N   tau( 188) = (  0.5333334  0.4666666  0.9586126  )
       189           N   tau( 189) = (  0.5333334  0.6666666  0.2919459  )
       190           N   tau( 190) = (  0.5333334  0.6666666  0.6252792  )
       191           N   tau( 191) = (  0.5333334  0.6666666  0.9586126  )
       192           N   tau( 192) = (  0.5333334  0.8666666  0.2919459  )
       193           N   tau( 193) = (  0.5333334  0.8666666  0.6252792  )
       194           N   tau( 194) = (  0.5333334  0.8666666  0.9586126  )
       195           N   tau( 195) = (  0.7333334  0.0666666  0.2919459  )
       196           N   tau( 196) = (  0.7333334  0.0666666  0.6252792  )
       197           N   tau( 197) = (  0.7333334  0.0666666  0.9586126  )
       198           N   tau( 198) = (  0.7333334  0.2666666  0.2919459  )
       199           N   tau( 199) = (  0.7333334  0.2666666  0.6252792  )
       200           N   tau( 200) = (  0.7333334  0.2666666  0.9586126  )
       201           N   tau( 201) = (  0.7333334  0.4666666  0.2919459  )
       202           N   tau( 202) = (  0.7333334  0.4666666  0.6252792  )
       203           N   tau( 203) = (  0.7333334  0.4666666  0.9586126  )
       204           N   tau( 204) = (  0.7333334  0.6666666  0.2919459  )
       205           N   tau( 205) = (  0.7333334  0.6666666  0.6252792  )
       206           N   tau( 206) = (  0.7333334  0.6666666  0.9586126  )
       207           N   tau( 207) = (  0.7333334  0.8666666  0.2919459  )
       208           N   tau( 208) = (  0.7333334  0.8666666  0.6252792  )
       209           N   tau( 209) = (  0.7333334  0.8666666  0.9586126  )
       210           N   tau( 210) = (  0.9333334  0.0666666  0.2919459  )
       211           N   tau( 211) = (  0.9333334  0.0666666  0.6252792  )
       212           N   tau( 212) = (  0.9333334  0.0666666  0.9586126  )
       213           N   tau( 213) = (  0.9333334  0.2666666  0.2919459  )
       214           N   tau( 214) = (  0.9333334  0.2666666  0.6252792  )
       215           N   tau( 215) = (  0.9333334  0.2666666  0.9586126  )
       216           N   tau( 216) = (  0.9333334  0.4666666  0.2919459  )
       217           N   tau( 217) = (  0.9333334  0.4666666  0.6252792  )
       218           N   tau( 218) = (  0.9333334  0.4666666  0.9586126  )
       219           N   tau( 219) = (  0.9333334  0.6666666  0.2919459  )
       220           N   tau( 220) = (  0.9333334  0.6666666  0.6252792  )
       221           N   tau( 221) = (  0.9333334  0.6666666  0.9586126  )
       222           N   tau( 222) = (  0.9333334  0.8666666  0.2919459  )
       223           N   tau( 223) = (  0.9333334  0.8666666  0.6252792  )
       224           N   tau( 224) = (  0.9333334  0.8666666  0.9586126  )
       225           N   tau( 225) = (  0.0666666  0.1333334  0.1252792  )
       226           N   tau( 226) = (  0.0666666  0.1333334  0.4586126  )
       227           N   tau( 227) = (  0.0666666  0.1333334  0.7919459  )
       228           N   tau( 228) = (  0.0666666  0.3333334  0.1252792  )
       229           N   tau( 229) = (  0.0666666  0.3333334  0.4586126  )
       230           N   tau( 230) = (  0.0666666  0.3333334  0.7919459  )
       231           N   tau( 231) = (  0.0666666  0.5333334  0.1252792  )
       232           N   tau( 232) = (  0.0666666  0.5333334  0.4586126  )
       233           N   tau( 233) = (  0.0666666  0.5333334  0.7919459  )
       234           N   tau( 234) = (  0.0666666  0.7333334  0.1252792  )
       235           N   tau( 235) = (  0.0666666  0.7333334  0.4586126  )
       236           N   tau( 236) = (  0.0666666  0.7333334  0.7919459  )
       237           N   tau( 237) = (  0.0666666  0.9333334  0.1252792  )
       238           N   tau( 238) = (  0.0666666  0.9333334  0.4586126  )
       239           N   tau( 239) = (  0.0666666  0.9333334  0.7919459  )
       240           N   tau( 240) = (  0.2666666  0.1333334  0.1252792  )
       241           N   tau( 241) = (  0.2666666  0.1333334  0.4586126  )
       242           N   tau( 242) = (  0.2666666  0.1333334  0.7919459  )
       243           N   tau( 243) = (  0.2666666  0.3333334  0.1252792  )
       244           N   tau( 244) = (  0.2666666  0.3333334  0.4586126  )
       245           N   tau( 245) = (  0.2666666  0.3333334  0.7919459  )
       246           N   tau( 246) = (  0.2666666  0.5333334  0.1252792  )
       247           N   tau( 247) = (  0.2666666  0.5333334  0.4586126  )
       248           N   tau( 248) = (  0.2666666  0.5333334  0.7919459  )
       249           N   tau( 249) = (  0.2666666  0.7333334  0.1252792  )
       250           N   tau( 250) = (  0.2666666  0.7333334  0.4586126  )
       251           N   tau( 251) = (  0.2666666  0.7333334  0.7919459  )
       252           N   tau( 252) = (  0.2666666  0.9333334  0.1252792  )
       253           N   tau( 253) = (  0.2666666  0.9333334  0.4586126  )
       254           N   tau( 254) = (  0.2666666  0.9333334  0.7919459  )
       255           N   tau( 255) = (  0.4666666  0.1333334  0.1252792  )
       256           N   tau( 256) = (  0.4666666  0.1333334  0.4586126  )
       257           N   tau( 257) = (  0.4666666  0.1333334  0.7919459  )
       258           N   tau( 258) = (  0.4666666  0.3333334  0.1252792  )
       259           N   tau( 259) = (  0.4666666  0.3333334  0.4586126  )
       260           N   tau( 260) = (  0.4666666  0.3333334  0.7919459  )
       261           N   tau( 261) = (  0.4666666  0.5333334  0.1252792  )
       262           N   tau( 262) = (  0.4666666  0.5333334  0.4586126  )
       263           N   tau( 263) = (  0.4666666  0.5333334  0.7919459  )
       264           N   tau( 264) = (  0.4666666  0.7333334  0.1252792  )
       265           N   tau( 265) = (  0.4666666  0.7333334  0.4586126  )
       266           N   tau( 266) = (  0.4666666  0.7333334  0.7919459  )
       267           N   tau( 267) = (  0.4666666  0.9333334  0.1252792  )
       268           N   tau( 268) = (  0.4666666  0.9333334  0.4586126  )
       269           N   tau( 269) = (  0.4666666  0.9333334  0.7919459  )
       270           N   tau( 270) = (  0.6666666  0.1333334  0.1252792  )
       271           N   tau( 271) = (  0.6666666  0.1333334  0.4586126  )
       272           N   tau( 272) = (  0.6666666  0.1333334  0.7919459  )
       273           N   tau( 273) = (  0.6666666  0.3333334  0.1252792  )
       274           N   tau( 274) = (  0.6666666  0.3333334  0.4586126  )
       275           N   tau( 275) = (  0.6666666  0.3333334  0.7919459  )
       276           N   tau( 276) = (  0.6666666  0.5333334  0.1252792  )
       277           N   tau( 277) = (  0.6666666  0.5333334  0.4586126  )
       278           N   tau( 278) = (  0.6666666  0.5333334  0.7919459  )
       279           N   tau( 279) = (  0.6666666  0.7333334  0.1252792  )
       280           N   tau( 280) = (  0.6666666  0.7333334  0.4586126  )
       281           N   tau( 281) = (  0.6666666  0.7333334  0.7919459  )
       282           N   tau( 282) = (  0.6666666  0.9333334  0.1252792  )
       283           N   tau( 283) = (  0.6666666  0.9333334  0.4586126  )
       284           N   tau( 284) = (  0.6666666  0.9333334  0.7919459  )
       285           N   tau( 285) = (  0.8666666  0.1333334  0.1252792  )
       286           N   tau( 286) = (  0.8666666  0.1333334  0.4586126  )
       287           N   tau( 287) = (  0.8666666  0.1333334  0.7919459  )
       288           N   tau( 288) = (  0.8666666  0.3333334  0.1252792  )
       289           N   tau( 289) = (  0.8666666  0.3333334  0.4586126  )
       290           N   tau( 290) = (  0.8666666  0.3333334  0.7919459  )
       291           N   tau( 291) = (  0.8666666  0.5333334  0.1252792  )
       292           N   tau( 292) = (  0.8666666  0.5333334  0.4586126  )
       293           N   tau( 293) = (  0.8666666  0.5333334  0.7919459  )
       294           N   tau( 294) = (  0.8666666  0.7333334  0.1252792  )
       295           N   tau( 295) = (  0.8666666  0.7333334  0.4586126  )
       296           N   tau( 296) = (  0.8666666  0.7333334  0.7919459  )
       297           N   tau( 297) = (  0.8666666  0.9333334  0.1252792  )
       298           N   tau( 298) = (  0.8666666  0.9333334  0.4586126  )
       299           N   tau( 299) = (  0.8666666  0.9333334  0.7919459  )

     number of k points=     6  Gaussian smearing, width (Ry)=  0.0100
                       cart. coord. in units 2pi/alat
        k(    1) = (   0.0000000   0.0000000   0.0000000), wk =   0.2500000
        k(    2) = (   0.0000000   0.0000000  -0.5112854), wk =   0.2500000
        k(    3) = (   0.0000000  -0.5773503   0.0000000), wk =   0.5000000
        k(    4) = (   0.0000000  -0.5773503  -0.5112854), wk =   0.5000000
        k(    5) = (  -0.5000000  -0.2886751   0.0000000), wk =   0.2500000
        k(    6) = (  -0.5000000  -0.2886751  -0.5112854), wk =   0.2500000

                       cryst. coord.
        k(    1) = (   0.0000000   0.0000000   0.0000000), wk =   0.2500000
        k(    2) = (   0.0000000   0.0000000  -0.5000000), wk =   0.2500000
        k(    3) = (   0.0000000  -0.5000000   0.0000000), wk =   0.5000000
        k(    4) = (   0.0000000  -0.5000000  -0.5000000), wk =   0.5000000
        k(    5) = (  -0.5000000  -0.0000000   0.0000000), wk =   0.2500000
        k(    6) = (  -0.5000000  -0.0000000  -0.5000000), wk =   0.2500000

     Dense  grid:  2698283 G-vectors     FFT dimensions: ( 192, 192, 180)

     Smooth grid:  1930731 G-vectors     FFT dimensions: ( 180, 180, 160)

     Dynamical RAM for                 wfc:      92.85 MB

     Dynamical RAM for     wfc (w. buffer):     371.39 MB

     Dynamical RAM for           str. fact:       1.29 MB

     Dynamical RAM for           local pot:       0.00 MB

     Dynamical RAM for          nlocal pot:     223.31 MB

     Dynamical RAM for                qrad:       3.00 MB

     Dynamical RAM for          rho,v,vnew:       4.46 MB

     Dynamical RAM for               rhoin:       1.49 MB

     Dynamical RAM for            rho*nmix:      10.29 MB

     Dynamical RAM for           G-vectors:       2.64 MB

     Dynamical RAM for          h,s,v(r/c):    1907.96 MB

     Dynamical RAM for          <psi|beta>:      95.60 MB

     Dynamical RAM for                 psi:     371.39 MB

     Dynamical RAM for                hpsi:     371.39 MB

     Dynamical RAM for                spsi:     371.39 MB

     Dynamical RAM for      wfcinit/wfcrot:     245.33 MB

     Dynamical RAM for           addusdens:     108.40 MB

     Dynamical RAM for          addusforce:     204.85 MB

     Dynamical RAM for         addusstress:      64.82 MB

     Estimated static dynamical RAM per process >     613.73 MB

     Estimated max dynamical RAM per process >       3.65 GB

     Estimated total dynamical RAM >     467.07 GB

     Atomic positions and unit cell read from directory:
     ./GaN.save/
     Atomic positions from file used, from input discarded
 

     Check: negative core charge=   -0.000003

     The initial density is read from file :
     ./GaN.save/charge-density



     %%%%%%%%%%%%%%%%%%%%%%%%%%%%%%%%%%%%%%%%%%%%%%%%%%%%%%%%%%%%%%%%%%%%%%%%
     %                                                                      %
     % You are using vdW-DF, which was implemented by the Thonhauser group. %
     % Please cite the following two papers that made this development      %
     % possible and the two reviews that describe the various versions:     %
     %                                                                      %
     %   T. Thonhauser et al., PRL 115, 136402 (2015).                      %
     %   T. Thonhauser et al., PRB 76, 125112 (2007).                       %
     %   K. Berland et al., Rep. Prog. Phys. 78, 066501 (2015).             %
     %   D.C. Langreth et al., J. Phys.: Condens. Matter 21, 084203 (2009). %
     %                                                                      %
     % If you are calculating stress with vdW-DF, please also cite:         %
     %                                                                      %
     %   R. Sabatini et al., J. Phys.: Condens. Matter 24, 424209 (2012).   %
     %                                                                      %
     %%%%%%%%%%%%%%%%%%%%%%%%%%%%%%%%%%%%%%%%%%%%%%%%%%%%%%%%%%%%%%%%%%%%%%%%

     %%%%%%%%%%%%%%%%%%%%%%%%%%%%%%%%%%%%%%%%%%%%%%%%%%%%%%%%%%%%%%%%%%%%%%%%
     %                                                                      %
     %  vdW-DF NEWS:                                                        %
     %                                                                      %
     %  * vdW-DF3 is now available. DOI: 10.1021/acs.jctc.0c00471           %
     %    use with input_dft = 'vdW-DF3-opt1' or 'vdW-DF3-opt2'             %
     %                                                                      %
     %  * Unscreened and range-separated vdW-DF hybrid functionals          %
     %    DOI: 10.1063/1.4986522 and 10.1088/1361-648X/ac2ad2               %
     %    use with input_dft = 'vdW-DF-cx0' (etc) and 'vdW-DF-ahcx'         %
     %                                                                      %
     %%%%%%%%%%%%%%%%%%%%%%%%%%%%%%%%%%%%%%%%%%%%%%%%%%%%%%%%%%%%%%%%%%%%%%%%


     Carrying out vdW-DF run using the following parameters:
     Nqs    =  20  Npoints =  1024  r_max =  100.000
     q_mesh =  0.00001000  0.04494208  0.09755937  0.15916263
               0.23128650  0.31572767  0.41458969  0.53033537
               0.66584808  0.82450364  1.01025438  1.22772762
               1.48234092  1.78043706  2.12944203  2.53805004
               3.01644009  3.57652955  4.23227104  5.00000000


     -----------------------------------------------
     Non-local corr. energy    =      81.30987757 Ry
     -----------------------------------------------

     Starting wfcs from file
     Checking if some PAW data can be deallocated... 
       PAW data deallocated on   75 nodes for type:  1
       PAW data deallocated on   53 nodes for type:  2
     Calculation restarted from scf iteration #    10

     total cpu time spent up to now is        7.5 secs

     Self-consistent Calculation

     iteration # 10     ecut=    70.00 Ry     beta= 0.70
     Calculation restarted from kpoint #     3
     Davidson diagonalization with overlap

---- Real-time Memory Report at c_bands before calling an iterative solver
           516 MiB given to the printing process from OS
             0 MiB allocation reported by mallinfo(arena+hblkhd)
       1915965 MiB available memory on the node where the printing process lives
------------------
     ethr =  1.81E-13,  avg # of iterations = 15.0


     -----------------------------------------------
     Non-local corr. energy    =      81.30987581 Ry
     -----------------------------------------------


     total cpu time spent up to now is     1566.3 secs

     End of self-consistent calculation

          k = 0.0000 0.0000 0.0000 (241213 PWs)   bands (ev):

    -6.9863  -6.7975  -6.7811  -6.7766  -6.7766  -6.7638  -6.7315  -6.7313
    -6.6822  -6.6608  -6.6462  -6.6403  -6.6401  -6.6220  -6.6219  -6.6064
    -6.6053  -6.6007  -6.5992  -6.5988  -6.5977  -6.5849  -6.5847  -6.5832
    -6.5757  -6.5742  -6.5736  -6.5698  -6.5690  -6.5687  -6.5683  -6.5647
    -6.5532  -6.5530  -6.5506  -6.5483  -6.5477  -6.5462  -6.5429  -6.5421
    -6.5415  -6.5409  -6.5377  -6.5363  -6.5353  -6.5340  -6.5313  -6.5307
    -6.5295  -6.5269  -6.5267  -6.5252  -6.5236  -6.5233  -6.5221  -6.5220
    -6.5212  -6.5162  -6.5156  -6.5153  -6.5132  -6.5126  -6.5087  -6.5081
    -6.5040  -6.5034  -6.4993  -6.4990  -6.4928  -6.4923  -6.4877  -6.4872
    -6.4840  -6.4827  -6.4823  -6.4815  -6.4815  -6.4744  -6.4737  -6.4696
    -6.4665  -6.4664  -6.4651  -6.4648  -6.4645  -6.4642  -6.4571  -6.4570
    -6.4567  -6.4567  -6.4564  -6.4557  -6.4552  -6.4471  -6.4467  -6.4455
    -6.4453  -6.4445  -6.4440  -6.4387  -6.4387  -6.4378  -6.4374  -6.4330
    -6.4327  -6.4254  -6.4252  -6.4238  -6.4196  -6.4187  -6.4184  -6.4156
    -6.4147  -6.4119  -6.4108  -6.4105  -6.4078  -6.4075  -6.3720  -6.3704
    -6.3655  -6.3530  -6.3199  -6.3197  -6.3120  -6.2830  -6.2814  -6.2809
    -6.2703  -6.2701  -6.2602  -6.2569  -6.2562  -6.2410  -6.2367  -6.2363
    -6.2240  -6.2127  -6.2122  -6.1900  -6.1900  -6.1729  -6.1717  -6.1615
    -6.1614  -6.0257  -5.6687  -5.6360  -5.6212  -5.6204  -5.4655  -5.4654
    -5.4530  -5.4493  -5.4492  -5.4470  -5.4467  -5.4426  -5.4426  -5.4396
    -5.4388  -5.4388  -5.4358  -5.4358  -5.4348  -5.4347  -5.4302  -5.4298
    -5.4292  -5.4292  -5.4259  -5.4230  -5.4229  -5.4228  -5.4204  -5.4204
    -5.4159  -5.4156  -5.4156  -5.4123  -5.4123  -5.4115  -5.4102  -5.4101
    -5.4085  -5.4085  -5.4066  -5.4066  -5.4062  -5.4026  -5.4011  -5.3980
    -5.3979  -5.3972  -5.3966  -5.3953  -5.3952  -5.3937  -5.3936  -5.3929
    -5.3928  -5.3900  -5.3900  -5.3853  -5.3853  -5.3847  -5.3846  -5.3832
    -5.3829  -5.3829  -5.3819  -5.3819  -5.3789  -5.3789  -5.3782  -5.3782
    -5.3777  -5.3767  -5.3757  -5.3757  -5.3751  -5.3751  -5.3735  -5.3735
    -5.3724  -5.3695  -5.3695  -5.3682  -5.3667  -5.3666  -5.3665  -5.3660
    -5.3651  -5.3651  -5.3641  -5.3628  -5.3628  -5.3600  -5.3600  -5.3593
    -5.3591  -5.3590  -5.3580  -5.3568  -5.3568  -5.3554  -5.3551  -5.3551
    -5.3550  -5.3531  -5.3530  -5.3519  -5.3509  -5.3490  -5.3490  -5.3467
    -5.3466  -5.3461  -5.3430  -5.3430  -5.3427  -5.3425  -5.3401  -5.3401
    -5.3383  -5.3382  -5.3378  -5.3364  -5.3364  -5.3360  -5.3355  -5.3347
    -5.3346  -5.3338  -5.3337  -5.3332  -5.3321  -5.3321  -5.3317  -5.3290
    -5.3280  -5.3272  -5.3264  -5.3264  -5.3252  -5.3251  -5.3240  -5.3239
    -5.3232  -5.3198  -5.3197  -5.3191  -5.3191  -5.3182  -5.3170  -5.3164
    -5.3159  -5.3159  -5.3137  -5.3137  -5.3118  -5.3111  -5.3110  -5.3110
    -5.3103  -5.3102  -5.3081  -5.3081  -5.3074  -5.3073  -5.3067  -5.3033
    -5.3031  -5.3031  -5.3029  -5.3026  -5.3026  -5.3018  -5.3018  -5.3018
    -5.3001  -5.3001  -5.2988  -5.2985  -5.2961  -5.2960  -5.2958  -5.2949
    -5.2949  -5.2942  -5.2934  -5.2934  -5.2913  -5.2904  -5.2903  -5.2903
    -5.2899  -5.2899  -5.2883  -5.2870  -5.2869  -5.2866  -5.2866  -5.2862
    -5.2841  -5.2840  -5.2825  -5.2815  -5.2815  -5.2814  -5.2812  -5.2795
    -5.2795  -5.2793  -5.2783  -5.2782  -5.2777  -5.2771  -5.2770  -5.2769
    -5.2762  -5.2760  -5.2760  -5.2754  -5.2754  -5.2746  -5.2743  -5.2743
    -5.2727  -5.2701  -5.2701  -5.2691  -5.2691  -5.2685  -5.2674  -5.2674
    -5.2664  -5.2664  -5.2654  -5.2652  -5.2652  -5.2649  -5.2639  -5.2635
    -5.2635  -5.2630  -5.2629  -5.2610  -5.2610  -5.2609  -5.2594  -5.2594
    -5.2592  -5.2578  -5.2573  -5.2573  -5.2566  -5.2562  -5.2561  -5.2559
    -5.2551  -5.2528  -5.2526  -5.2526  -5.2501  -5.2501  -5.2491  -5.2485
    -5.2478  -5.2477  -5.2477  -5.2469  -5.2469  -5.2453  -5.2453  -5.2446
    -5.2441  -5.2434  -5.2433  -5.2427  -5.2420  -5.2420  -5.2418  -5.2409
    -5.2409  -5.2400  -5.2399  -5.2389  -5.2382  -5.2382  -5.2380  -5.2379
    -5.2379  -5.2369  -5.2354  -5.2353  -5.2338  -5.2337  -5.2333  -5.2324
    -5.2324  -5.2318  -5.2305  -5.2304  -5.2303  -5.2287  -5.2281  -5.2275
    -5.2275  -5.2273  -5.2273  -5.2265  -5.2248  -5.2247  -5.2238  -5.2237
    -5.2237  -5.2216  -5.2216  -5.2211  -5.2207  -5.2207  -5.2193  -5.2187
    -5.2176  -5.2169  -5.2169  -5.2159  -5.2158  -5.2154  -5.2137  -5.2137
    -5.2126  -5.2124  -5.2123  -5.2122  -5.2115  -5.2111  -5.2111  -5.2094
    -5.2072  -5.2066  -5.2066  -5.2064  -5.2064  -5.2041  -5.2041  -5.2040
    -5.2038  -5.2038  -5.2034  -5.2016  -5.2014  -5.2014  -5.1996  -5.1996
    -5.1992  -5.1974  -5.1966  -5.1966  -5.1966  -5.1947  -5.1947  -5.1944
    -5.1943  -5.1943  -5.1937  -5.1918  -5.1917  -5.1917  -5.1915  -5.1915
    -5.1891  -5.1891  -5.1886  -5.1886  -5.1882  -5.1869  -5.1869  -5.1857
    -5.1852  -5.1849  -5.1849  -5.1847  -5.1847  -5.1831  -5.1818  -5.1817
    -5.1805  -5.1805  -5.1801  -5.1794  -5.1786  -5.1785  -5.1771  -5.1769
    -5.1768  -5.1751  -5.1741  -5.1741  -5.1740  -5.1722  -5.1721  -5.1695
    -5.1682  -5.1679  -5.1678  -5.1673  -5.1671  -5.1671  -5.1653  -5.1649
    -5.1647  -5.1646  -5.1635  -5.1635  -5.1620  -5.1620  -5.1613  -5.1601
    -5.1600  -5.1597  -5.1596  -5.1589  -5.1576  -5.1576  -5.1571  -5.1556
    -5.1555  -5.1544  -5.1534  -5.1534  -5.1514  -5.1494  -5.1476  -5.1476
    -5.1469  -5.1467  -5.1466  -5.1464  -5.1453  -5.1453  -5.1448  -5.1422
    -5.1419  -5.1399  -5.1398  -5.1387  -5.1372  -5.1364  -5.1363  -5.1359
    -5.1358  -5.1333  -5.1333  -5.1323  -5.1323  -5.1319  -5.1316  -5.1316
    -5.1292  -5.1258  -5.1258  -5.1248  -5.1213  -5.1210  -5.1210  -5.1209
    -5.1180  -5.1179  -5.1160  -5.1149  -5.1148  -5.1127  -5.1126  -5.1126
    -5.1103  -5.1094  -5.1093  -5.1071  -5.1068  -5.1052  -5.1051  -5.1051
    -5.1031  -5.1030  -5.1013  -5.1012  -5.0968  -5.0966  -5.0965  -5.0958
    -5.0957  -5.0943  -5.0931  -5.0918  -5.0918  -5.0914  -5.0909  -5.0908
    -5.0907  -5.0869  -5.0868  -5.0846  -5.0845  -5.0827  -5.0826  -5.0803
    -5.0800  -5.0800  -5.0775  -5.0764  -5.0764  -5.0740  -5.0734  -5.0732
    -5.0667  -5.0667  -5.0651  -5.0648  -5.0648  -5.0647  -5.0630  -5.0622
    -5.0584  -5.0583  -5.0575  -5.0575  -5.0567  -5.0554  -5.0550  -5.0549
    -5.0512  -5.0463  -5.0451  -5.0451  -5.0431  -5.0426  -5.0423  -5.0408
    -5.0391  -5.0389  -5.0321  -5.0320  -5.0297  -5.0289  -5.0289  -5.0228
    -5.0228  -5.0203  -5.0128  -5.0128  -5.0104  -5.0073  -5.0005  -5.0005
    -4.9764  -4.9758  -4.9757  -4.9656  -4.9656  -4.9470  -4.9444  -4.9442
    -4.9280  -4.9208  -4.9124  -4.9124  -4.9080  -4.9079  -4.8847  -4.8713
    -4.8584  -4.8584  -4.8205  -4.8205  -4.8039  -4.7966  -4.7966  -4.7668
    -4.7555  -4.7553  -4.7438  -4.7284  -4.7282  -4.7146  -4.7144  -4.7041
    -4.6949  -4.6945  -4.6791  -4.6790  -4.6784  -4.6623  -4.6491  -4.6488
    -4.6447  -4.6446  -4.6435  -4.6158  -4.6141  -4.6141  -4.6023  -4.5963
    -4.5962  -4.5858  -4.5792  -4.5767  -4.5767  -4.5755  -4.5699  -4.5698
    -4.5602  -4.5599  -4.5566  -4.5447  -4.5446  -4.5386  -4.5351  -4.5350
    -4.5302  -4.5300  -4.5180  -4.5177  -4.5092  -4.5069  -4.4310  -4.4308
    -4.4267  -4.4264  -4.4207  -4.4131  -4.3866  -4.3749  -4.1865  -4.1863
    -4.1847  -4.1845  -4.1749  -4.1746  -4.1664  -4.1662  -4.1529  -4.1488
    -4.1487  -4.1324  -4.1310  -4.1175  -4.1112  -4.1095  -4.1094  -4.0915
    -4.0915  -4.0834  -4.0833  -4.0724  -4.0724  -4.0601  -4.0035  -4.0033
    -3.9850  -3.9849  -3.9340  -3.9054  -3.9045  -3.9044  -3.8907  -3.8749
    -3.8748  -3.8694  -3.8481  -3.8481  -3.8291  -3.7982  -3.7980  -3.6519
    -3.6106  -3.5341  -3.5339  -3.5077  -3.5074  -3.4998  -3.4994  -3.4994
    -3.4986  -3.4984  -3.4957  -3.4957  -3.4952  -3.4915  -3.4863  -3.4839
    -3.4837  -3.4796  -3.4731  -3.4262  -3.4262  -3.4163  -3.4087  -3.3928
    -3.3927  -3.3852  -3.3837  -3.3837  -3.3748  -3.3747  -3.3666  -3.3536
    -3.3448  -3.3447  -3.3340  -3.3337  -3.3276  -3.3273  -3.2991  -3.2908
    -3.2907  -3.2847  -3.2846  -3.2837  -3.2747  -3.2678  -3.2677  -3.1840
    -3.1725  -3.1724  -3.1658  -3.1653  -3.1652  -3.1606  -3.1135  -3.1134
    -3.0763  -3.0762  -3.0695  -3.0598  -3.0596  -3.0547  -3.0424  -3.0412
    -3.0412  -3.0214  -2.9699  -2.9698  -2.9601  -2.9285  -2.9284  -2.9110
    -2.8809  -2.8808  -2.8702  -2.3674  -2.3042  -2.2754  -2.2748   1.9754
     2.3922   2.4227   2.4229   2.4594   2.4594   2.4626   2.4627   2.4695
     2.4705   2.4871   2.4913   2.4921   2.4956   2.4961   2.4989   2.5032
     2.5034   2.5085   2.5086   2.5169   2.5172   2.5215   2.5322   2.5918
     2.5924   2.5999   2.6287   2.6291   2.6321   2.6398   2.6848   2.6856
     2.6860   2.7288   2.7290   2.7455   2.8456   2.8457   2.8503   2.8735
     2.8735   2.8784   2.8796   2.8796   2.8991   2.9045   2.9090   2.9092
     2.9393   2.9397   2.9621   2.9623   2.9860   3.0151   3.0152   3.0246
     3.0273   3.0538   3.0539   3.0786   3.1375   3.1375   3.1442   3.1587
     3.1634   3.1636   3.1690   3.1694   3.1716   3.1780   3.1783   3.1980
     3.2106   3.2106   3.2348   3.2434   3.2637   3.2639   3.2651   3.3178
     3.3182   3.3656   3.3658   3.4704   3.4744   3.5423   3.5483   3.5554
     3.5813   3.5813   3.5869   3.5870   3.6052   3.6052   3.6476   3.6478
     3.6581   3.6804   3.6805   3.7148   3.7149   3.7354   3.8313   3.8368
     3.8375   3.8539   3.8946   3.8949   3.8950   3.9050   3.9051   3.9073
     3.9311   3.9488   3.9489   3.9502   3.9698   3.9699   4.0242   4.0424
     4.0426   4.4068   4.4509   4.4511   4.4620   4.4623   4.4654   4.4773
     4.4798   4.4857   4.4860   4.5048   4.5406   4.5411   4.5426   4.5625
     4.5628   4.5928   4.5932   4.6278   4.6422   4.6424   4.7015   4.7016
     4.7696   4.8785   4.8859   4.8866   4.8867   4.8869   4.9085   4.9087
     4.9203   4.9785   4.9786   5.0978   5.0978   5.3429   5.3484   5.3646
     5.3649   5.3753   5.3754   5.3862   5.3863   5.3942   5.4115   5.4300
     5.4301   5.4556   5.4557   5.4593   5.4697   5.4698   5.5216   5.5560
     5.6031   5.6032   5.6409   5.6490   5.6494   5.7446   5.7537   5.7631
     5.7632   5.7764   5.7764   5.7813   5.7816   5.7856   5.7867   5.7869
     5.7942   5.8180   5.8292   5.8341   5.8342   5.8473   5.8474   5.8673
     5.9040   5.9042   5.9064   5.9087   5.9147   5.9147   5.9183   5.9184
     5.9233   5.9235   5.9264   5.9264   5.9270   5.9285   5.9351   5.9364
     5.9381   5.9383   5.9447   5.9447   5.9631   5.9633   5.9772   5.9787
     5.9789   5.9931   5.9936   6.0064   6.0065   6.0199   6.0550   6.0551
     6.0791   6.1508   6.1509   6.1824   6.1828   6.1837   6.2291   6.2388
     6.2564   6.2565   6.2738   6.2740   6.2762   6.2806   6.3070   6.3073
     6.3177   6.3177   6.3714   6.3714   6.3911   6.3949   6.3949   6.4108
     6.4116   6.4217   6.4330   6.4454   6.4456   6.4792   6.4808   6.4810
     6.5123   6.5304   6.5307   6.5342   6.5351   6.5357   6.5407   6.5410
     6.5590   6.5592   6.5608   6.5608   6.5613   6.5747   6.5977   6.6054
     6.6055   6.6254   6.6261   6.6261   6.6448   6.6497   6.6508   6.6509
     6.6613   6.6740   6.6740   6.7336   6.7337   6.7414   6.7672   6.7673
     6.7732   6.7816   6.7827   6.7964   6.7964   6.8191   6.8329   6.8330
     6.8366   6.8367   6.8998   6.9835   6.9836   7.0096   7.0161   7.0163
     7.0310   7.0538   7.0539   7.0726   7.0842   7.0859   7.0860   7.1283
     7.1284   7.1735   7.1738   7.1852   7.1859   7.1863   7.2112   7.2210
     7.2216   7.2553   7.2618   7.2621   7.2717   7.2805   7.2838   7.2839
     7.2954   7.2956   7.2959   7.3068   7.3162   7.3179   7.3183   7.3203
     7.3210   7.3259   7.3319   7.3431   7.3458   7.3461   7.3488   7.3489
     7.3633   7.3760   7.3767   7.3767   7.3775   7.3816   7.3823   7.3939
     7.3942   7.4184   7.4185   7.4221   7.4223   7.4341   7.4380   7.4434
     7.4519   7.4519   7.4649   7.4651   7.4697   7.4697   7.4749   7.4909
     7.5001   7.5001   7.5100   7.5466   7.5468   7.5651   7.5652   7.5693
     7.5830   7.5831   7.5897   7.5922   7.6005   7.6182   7.6183   7.6430
     7.6431   7.6460   7.6711   7.6844   7.6847   7.6993   7.6997   7.7710
     7.7712   7.7886   7.7888   7.7914   7.7926   7.7929   7.8903   7.8905
     7.9369   7.9389   7.9421   7.9423   7.9791   7.9841   7.9843   7.9975
     7.9978   8.0301   8.0337   8.0339   8.0451   8.0632   8.0634   8.0969
     8.0972   8.0991   8.1816   8.2256   8.2256   8.3139   8.3141   8.3304
     8.3710   8.3711   8.3826   8.4098   8.4099   8.4600   8.4601   8.4721
     8.4940   8.4942   8.6779   8.7224   8.7226   8.9797   9.7163   9.7932
     9.7937  10.2370  11.9278  11.9586  12.0777  12.1136  12.1137  12.1857
    12.1858  12.2863  12.5619  12.7181  12.7752  12.7833  12.7870  12.7871
    12.7875  12.7878  12.8063  12.8348  12.8348  12.8352  12.8519  12.8531
    12.8533  12.8944  12.8987  12.8993  12.9229  12.9244  12.9249  12.9653
    12.9655  13.0068  13.0071  13.0405  13.1630  13.5653  13.5659  13.5694
    13.6147  13.6199  13.6212  13.7540  13.7548  13.7552  13.7588  13.7644
    13.7645  13.7650  13.7658  13.7662  13.7690  13.7798  13.7800  13.7820
    13.7820  13.7860  13.8128  13.8128  13.8305  13.8405  13.8417  13.8418
    13.8477  13.8478  13.8675  13.9193  13.9230  13.9236  13.9386  13.9388
    13.9586  13.9591  13.9604  13.9759  13.9763  13.9768  13.9928  13.9929
    14.0063  14.0161  14.0223  14.0259  14.0322  14.0323  14.0376  14.0378
    14.0544  14.0614  14.0614  14.0770  14.0771  14.0898  14.0927  14.0929
    14.1051  14.1183  14.1183  14.1603  14.1604  14.1990  14.2261  14.2600
    14.2605  14.3431  14.3756  14.3757  14.3879  14.3884  14.3910  14.4129
    14.5298  14.5307  14.7148  14.8040  14.8152  14.8159  14.8214  14.8223
    14.8230  14.8363  14.8408  14.8408  14.8442  14.8444  14.8952  14.9796
    14.9802  14.9876  14.9880  14.9987  15.0063  15.0085  15.0141  15.0160
    15.0311  15.0311  15.0641  15.0641  15.0674  15.0934  15.0935  15.1028
    15.1413  15.1482  15.1485  15.1626  15.2340  15.2341  15.3177  15.3235
    15.3394  15.3401  15.4430  15.4436  15.5023  15.6170  15.6177  15.6344
    15.6434  15.6514  15.6518  15.7516  15.7517  15.7749  15.7754  15.7755
    15.7877  15.8462  15.8538  15.8544  15.8584  15.8604  15.8606  15.8865
    15.8925  15.8926  15.9071  15.9072  15.9400  16.0223  16.0226  16.0231
    16.0289  16.0294  16.0296  16.0307  16.0413  16.0424  16.0426  16.0588
    16.0590  16.0619  16.0673  16.0674  16.0765  16.0766  16.0842  16.0848
    16.0885  16.0921  16.0941  16.0946  16.1024  16.1073  16.1080  16.1136
    16.1366  16.1367  16.1389  16.1564  16.1578  16.1582  16.1665  16.1671
    16.1687  16.1688  16.1725  16.1728  16.1847  16.2118  16.2120  16.2355
    16.2360  16.2443  16.2449  16.2599  16.2603  16.2698  16.2926  16.2971
    16.3030  16.3197  16.3198  16.3203  16.3224  16.3337  16.3343  16.3484
    16.3484  16.3584  16.3585  16.3664  16.3705  16.3726  16.3728  16.3877
    16.3880  16.3897  16.3957  16.3957  16.4085  16.4469  16.4469  16.4668
    16.4855  16.4857  16.4946  16.5000  16.5008  16.5449  16.5452  16.5565
    16.5868  16.6079  16.6165  16.6168  16.6371  16.6397

     occupation numbers 
     1.0000   1.0000   1.0000   1.0000   1.0000   1.0000   1.0000   1.0000
     1.0000   1.0000   1.0000   1.0000   1.0000   1.0000   1.0000   1.0000
     1.0000   1.0000   1.0000   1.0000   1.0000   1.0000   1.0000   1.0000
     1.0000   1.0000   1.0000   1.0000   1.0000   1.0000   1.0000   1.0000
     1.0000   1.0000   1.0000   1.0000   1.0000   1.0000   1.0000   1.0000
     1.0000   1.0000   1.0000   1.0000   1.0000   1.0000   1.0000   1.0000
     1.0000   1.0000   1.0000   1.0000   1.0000   1.0000   1.0000   1.0000
     1.0000   1.0000   1.0000   1.0000   1.0000   1.0000   1.0000   1.0000
     1.0000   1.0000   1.0000   1.0000   1.0000   1.0000   1.0000   1.0000
     1.0000   1.0000   1.0000   1.0000   1.0000   1.0000   1.0000   1.0000
     1.0000   1.0000   1.0000   1.0000   1.0000   1.0000   1.0000   1.0000
     1.0000   1.0000   1.0000   1.0000   1.0000   1.0000   1.0000   1.0000
     1.0000   1.0000   1.0000   1.0000   1.0000   1.0000   1.0000   1.0000
     1.0000   1.0000   1.0000   1.0000   1.0000   1.0000   1.0000   1.0000
     1.0000   1.0000   1.0000   1.0000   1.0000   1.0000   1.0000   1.0000
     1.0000   1.0000   1.0000   1.0000   1.0000   1.0000   1.0000   1.0000
     1.0000   1.0000   1.0000   1.0000   1.0000   1.0000   1.0000   1.0000
     1.0000   1.0000   1.0000   1.0000   1.0000   1.0000   1.0000   1.0000
     1.0000   1.0000   1.0000   1.0000   1.0000   1.0000   1.0000   1.0000
     1.0000   1.0000   1.0000   1.0000   1.0000   1.0000   1.0000   1.0000
     1.0000   1.0000   1.0000   1.0000   1.0000   1.0000   1.0000   1.0000
     1.0000   1.0000   1.0000   1.0000   1.0000   1.0000   1.0000   1.0000
     1.0000   1.0000   1.0000   1.0000   1.0000   1.0000   1.0000   1.0000
     1.0000   1.0000   1.0000   1.0000   1.0000   1.0000   1.0000   1.0000
     1.0000   1.0000   1.0000   1.0000   1.0000   1.0000   1.0000   1.0000
     1.0000   1.0000   1.0000   1.0000   1.0000   1.0000   1.0000   1.0000
     1.0000   1.0000   1.0000   1.0000   1.0000   1.0000   1.0000   1.0000
     1.0000   1.0000   1.0000   1.0000   1.0000   1.0000   1.0000   1.0000
     1.0000   1.0000   1.0000   1.0000   1.0000   1.0000   1.0000   1.0000
     1.0000   1.0000   1.0000   1.0000   1.0000   1.0000   1.0000   1.0000
     1.0000   1.0000   1.0000   1.0000   1.0000   1.0000   1.0000   1.0000
     1.0000   1.0000   1.0000   1.0000   1.0000   1.0000   1.0000   1.0000
     1.0000   1.0000   1.0000   1.0000   1.0000   1.0000   1.0000   1.0000
     1.0000   1.0000   1.0000   1.0000   1.0000   1.0000   1.0000   1.0000
     1.0000   1.0000   1.0000   1.0000   1.0000   1.0000   1.0000   1.0000
     1.0000   1.0000   1.0000   1.0000   1.0000   1.0000   1.0000   1.0000
     1.0000   1.0000   1.0000   1.0000   1.0000   1.0000   1.0000   1.0000
     1.0000   1.0000   1.0000   1.0000   1.0000   1.0000   1.0000   1.0000
     1.0000   1.0000   1.0000   1.0000   1.0000   1.0000   1.0000   1.0000
     1.0000   1.0000   1.0000   1.0000   1.0000   1.0000   1.0000   1.0000
     1.0000   1.0000   1.0000   1.0000   1.0000   1.0000   1.0000   1.0000
     1.0000   1.0000   1.0000   1.0000   1.0000   1.0000   1.0000   1.0000
     1.0000   1.0000   1.0000   1.0000   1.0000   1.0000   1.0000   1.0000
     1.0000   1.0000   1.0000   1.0000   1.0000   1.0000   1.0000   1.0000
     1.0000   1.0000   1.0000   1.0000   1.0000   1.0000   1.0000   1.0000
     1.0000   1.0000   1.0000   1.0000   1.0000   1.0000   1.0000   1.0000
     1.0000   1.0000   1.0000   1.0000   1.0000   1.0000   1.0000   1.0000
     1.0000   1.0000   1.0000   1.0000   1.0000   1.0000   1.0000   1.0000
     1.0000   1.0000   1.0000   1.0000   1.0000   1.0000   1.0000   1.0000
     1.0000   1.0000   1.0000   1.0000   1.0000   1.0000   1.0000   1.0000
     1.0000   1.0000   1.0000   1.0000   1.0000   1.0000   1.0000   1.0000
     1.0000   1.0000   1.0000   1.0000   1.0000   1.0000   1.0000   1.0000
     1.0000   1.0000   1.0000   1.0000   1.0000   1.0000   1.0000   1.0000
     1.0000   1.0000   1.0000   1.0000   1.0000   1.0000   1.0000   1.0000
     1.0000   1.0000   1.0000   1.0000   1.0000   1.0000   1.0000   1.0000
     1.0000   1.0000   1.0000   1.0000   1.0000   1.0000   1.0000   1.0000
     1.0000   1.0000   1.0000   1.0000   1.0000   1.0000   1.0000   1.0000
     1.0000   1.0000   1.0000   1.0000   1.0000   1.0000   1.0000   1.0000
     1.0000   1.0000   1.0000   1.0000   1.0000   1.0000   1.0000   1.0000
     1.0000   1.0000   1.0000   1.0000   1.0000   1.0000   1.0000   1.0000
     1.0000   1.0000   1.0000   1.0000   1.0000   1.0000   1.0000   1.0000
     1.0000   1.0000   1.0000   1.0000   1.0000   1.0000   1.0000   1.0000
     1.0000   1.0000   1.0000   1.0000   1.0000   1.0000   1.0000   1.0000
     1.0000   1.0000   1.0000   1.0000   1.0000   1.0000   1.0000   1.0000
     1.0000   1.0000   1.0000   1.0000   1.0000   1.0000   1.0000   1.0000
     1.0000   1.0000   1.0000   1.0000   1.0000   1.0000   1.0000   1.0000
     1.0000   1.0000   1.0000   1.0000   1.0000   1.0000   1.0000   1.0000
     1.0000   1.0000   1.0000   1.0000   1.0000   1.0000   1.0000   1.0000
     1.0000   1.0000   1.0000   1.0000   1.0000   1.0000   1.0000   1.0000
     1.0000   1.0000   1.0000   1.0000   1.0000   1.0000   1.0000   1.0000
     1.0000   1.0000   1.0000   1.0000   1.0000   1.0000   1.0000   1.0000
     1.0000   1.0000   1.0000   1.0000   1.0000   1.0000   1.0000   1.0000
     1.0000   1.0000   1.0000   1.0000   1.0000   1.0000   1.0000   1.0000
     1.0000   1.0000   1.0000   1.0000   1.0000   1.0000   1.0000   1.0000
[...]
Ga           11.3564294443        6.5566361260       13.2231096408
Ga            9.7335735972        9.3873206551        2.6263507476
Ga            9.7343016797        9.3693146615        7.9198527399
Ga            9.7342763147        9.3722620887       13.2294970424
Ga            8.1524906335       12.2154800956        2.6254539732
Ga            8.1180828730       12.1771244289        7.9223424303
Ga            8.1148304418       12.1822778260       13.2210230682
Ga            0.0394542885        1.8510996581        5.2411948309
Ga            0.0081180462        1.8683629789       10.5583279426
Ga            0.0145916542        1.8643094052       15.9252662228
Ga           -1.6109925376        4.6741965546        5.2707636795
Ga           -1.6208295099        4.6809618053       10.5738827579
Ga           -1.6034095433        4.6693625918       15.8830866087
Ga           -3.2431271214        7.4937868725        5.2820862736
Ga           -3.2435735518        7.4935291258       10.5748007683
Ga           -3.2415773377        7.4946816406       15.8674044509
Ga           -4.8688966729       10.3170520434        5.2707636795
Ga           -4.8679562801       10.3051503501       10.5738827579
Ga           -4.8692915104       10.3260360905       15.8830866087
Ga           -6.4885468895       13.1579293707        5.2411948309
Ga           -6.4892645363       13.1221597284       10.5583279426
Ga           -6.4895382302       13.1297928242       15.9252662228
Ga            3.2049861395        1.8504022893        5.2417050632
Ga            3.2364871719        1.8685894188       10.5585234995
Ga            3.2295499099        1.8645841887       15.9249115207
Ga            1.6228781615        4.6656332232        5.2699115278
Ga            1.6229985750        4.6825637609       10.5705441614
Ga            1.6231488670        4.6708199687       15.8658573601
Ga            0.0015938110        7.4900201765        5.2797938068
Ga            0.0004434600        7.4917138981       10.5738215976
Ga            0.0001217853        7.4897417618       15.8660970215
Ga           -1.6240287096       10.3056809762        5.2797938068
Ga           -1.6231370792       10.3038378822       10.5738215976
Ga           -1.6250058367       10.3045453719       15.8660970215
Ga           -3.2593773860       13.1219478872        5.2699115278
Ga           -3.2446549035       13.1135868995       10.5705441614
Ga           -3.2547501798       13.1195889523       15.8658573601
Ga            6.4759574242        1.8678336559        5.2709980591
Ga            6.4862484965        1.8724855747       10.5740563421
Ga            6.4688874116        1.8643715743       15.8828210141
Ga            4.8555677882        4.6744308337        5.2709980591
Ga            4.8647420042        4.6810172043       10.5740563421
Ga            4.8490345313        4.6700390640       15.8828210141
Ga            3.2431897170        7.4895421770        5.2796437648
Ga            3.2444188066        7.4912578818       10.5736598797
Ga            3.2446146727        7.4892379481       15.8659466606
Ga            1.6219544999       10.3026430562        5.2820798634
Ga            1.6219738065       10.3026542029       10.5744652251
Ga            1.6219285527       10.3026280756       15.8627580267
Ga           -0.0036447163       13.1132243794        5.2796437648
Ga           -0.0015443276       13.1134309499       10.5736598797
Ga           -0.0031957085       13.1146105416       15.8659466606
Ga            9.7335639334        1.8711929946        5.2822515593
Ga            9.7337813201        1.8718452550       10.5748122981
Ga            9.7336126990        1.8694751837       15.8675184422
Ga            8.1061169256        4.6800714681        5.2742627055
Ga            8.1089648920        4.6817157422       10.5748640424
Ga            8.1045491668        4.6791663221       15.8684505581
Ga            6.4872803154        7.4939211570        5.2822515593
Ga            6.4879538828        7.4937832892       10.5748122981
Ga            6.4858170303        7.4948222946       15.8675184422
Ga            4.8693042018       10.3054130934        5.2797339030
Ga            4.8685845370       10.3036536045       10.5736398853
Ga            4.8702296970       10.3042522931       15.8659519499
Ga            3.2480282734       13.1135453745        5.2797339030
Ga            3.2461446789       13.1138018710       10.5736398853
Ga            3.2474857385       13.1149272770       15.8659519499
Ga           12.9912625846        1.8673814757        5.2711739001
Ga           12.9809839421        1.8727379092       10.5740967817
Ga           12.9985139800        1.8634489219       15.8828603709
Ga           11.3610504883        4.6801482419        5.2744230928
Ga           11.3585437600        4.6817940397       10.5751705594
Ga           11.3627720312        4.6791310052       15.8686285634
Ga            9.7336501950        7.4988882342        5.2744230928
Ga            9.7338221337        7.4958944449       10.5751705594
Ga            9.7336300137        7.5008877525       15.8686285634
Ga            8.1128287689       10.3170767062        5.2711739001
Ga            8.1123282550       10.3054969239       10.5740967817
Ga            8.1130487751       10.3253228757       15.8828603709
Ga            6.5039433949       13.1212606591        5.2699546901
Ga            6.4902749791       13.1133691955       10.5704721521
Ga            6.4991731121       13.1185065350       15.8656832366
N             1.6221474064        0.9365457708        4.8088993890
N             1.6222655660        0.9366139903        9.8924132460
N             1.6220220230        0.9364733807       15.1978364855
N            -0.0024205111        3.7538195971        4.6318298954
N            -0.0011354259        3.7532812313        9.9210167337
N             0.0054167178        3.7543096339       15.1888562464
N            -1.6231851417        6.5614131065        4.6370190203
N            -1.6228108584        6.5579723074        9.9191002620
N            -1.6224006511        6.5552189992       15.2104517171
N            -3.2406119048        9.3628784379        4.6370190203
N            -3.2434045826        9.3649229762        9.9191002620
N            -3.2455839138        9.3666548803       15.2104517171
N            -4.8616768921       12.1702985362        4.6318298954
N            -4.8615005879       12.1716806355        9.9210167337
N            -4.8573338933       12.1768407572       15.1888562464
N             4.8742355652        0.9356965457        4.6318932223
N             4.8733117997        0.9345869107        9.9206472124
N             4.8715802461        0.9287255868       15.1887810972
N             3.2474560353        3.7533613443        4.6318932223
N             3.2460331804        3.7531161574        9.9206472124
N             3.2400913482        3.7545472499       15.1887810972
N             1.6222882570        6.5583480037        4.6338218610
N             1.6223843146        6.5607009625        9.9171582869
N             1.6223321796        6.5617816244       15.2091018464
N             0.0013910035        9.3670061355        4.6339564550
N             0.0004013246        9.3664347441        9.9206210555
N             0.0000687231        9.3662427165       15.2093410824
N            -1.6205296624       12.1750733999        4.6338218610
N            -1.6184439115       12.1739801089        9.9171582869
N            -1.6175340984       12.1733946277       15.2091018464
N             8.1161030231        0.9349095091        4.6368618159
N             8.1130621160        0.9364099672        9.9189750906
N             8.1107000510        0.9373731882       15.2101705144
N             6.4894953719        3.7467104291        4.6285914965
N             6.4904430464        3.7472575692        9.9164130806
N             6.4850719266        3.7441565517       15.2140184487
N             4.8677081706        6.5612944370        4.6368618159
N             4.8674871519        6.5579107051        9.9189750906
N             4.8671402932        6.5553834864       15.2101705144
N             3.2432109180        9.3669396708        4.6341313795
N             3.2443050260        9.3664425641        9.9208068173
N             3.2444797031        9.3661740649       15.2094734068
N             1.6222434007       12.1745377684        4.6341313795
N             1.6223599476       12.1757338471        9.9208068173
N             1.6222147591       12.1760193715       15.2094734068
N            11.3508202292        0.9349122865        4.6369048474
N            11.3543433298        0.9365092845        9.9189739659
N            11.3564274991        0.9372899266       15.2100746077
N             9.7335346811        3.7459231469        4.6312484457
N             9.7337223176        3.7470404441        9.9200217267
N             9.7336154810        3.7465425821       15.2112944724
N             8.1108332201        6.5565245228        4.6312484457
N             8.1118946461        6.5561283722        9.9200217267
N             8.1114100667        6.5562847800       15.2112944724
N             6.4850691789        9.3626403228        4.6369048474
N             6.4882137700        9.3648929184        9.9189739659
N             6.4899319106        9.3663075410       15.2100746077
N             4.8648740674       12.1749393917        4.6338731241
N             4.8633552946       12.1740625278        9.9173873033
N             4.8617531229       12.1731375136       15.2089332312
N            14.5929568688        0.9353912272        4.6319649233
N            14.5941155380        0.9345396438        9.9206410637
N            14.5957931439        0.9280634330       15.1887513994
N            12.9777888134        3.7464790274        4.6287069080
N            12.9768459299        3.7472601754        9.9162509713
N            12.9826968800        3.7438130517       15.2143959331
N            11.3562668152        6.5565422320        4.6311162591
N            11.3554927696        6.5560953366        9.9199237804
N            11.3557655804        6.5562528440       15.2112313313
N             9.7334416930        9.3658530776        4.6287069080
N             9.7336467452        9.3646459425        9.9162509713
N             9.7335869236        9.3714365758       15.2143959331
N             8.1065522734       12.1701735450        4.6319649233
N             8.1063941152       12.1716027737        9.9206410637
N             8.1016243551       12.1762937284       15.1887513994
N            -0.1384630631        1.9528462069        1.9349075674
N            -0.0254966310        1.8882890505        7.2925200297
N             0.0007469888        1.8728071114       12.5487772425
N            -1.6310134515        4.7159573628        1.9966072964
N            -1.6264375331        4.6893582690        7.2732518800
N            -1.6252106889        4.6841197715       12.5609704502
N            -3.2429984795        7.4938611440        1.9900593509
N            -3.2454527128        7.4924441917        7.2776442132
N            -3.2441599190        7.4931905865       12.5654033379
N            -4.8427412092       10.2788330192        1.9966072964
N            -4.8634887409       10.2960954277        7.2732518800
N            -4.8674119907       10.2997771547       12.5609704502
N            -6.4893904693       12.9529751500        1.9349075674
N            -6.4888153907       13.0830855282        7.2925200297
N            -6.4891013334       13.1135541392       12.5487772425
N             3.3815065704        1.9523164076        1.9348246967
N             3.2699676725        1.8879193948        7.2928789201
N             3.2435710217        1.8726792814       12.5490318402
N             1.6224646084        4.6914502560        1.9851567214
N             1.6224160828        4.6852136085        7.2758439409
N             1.6221857986        4.6871272679       12.5541801683
N             0.0019088028        7.4991210535        1.9909960916
N             0.0000030788        7.4948072207        7.2765393299
N            -0.0003848700        7.4929154680       12.5642018594
N            -1.6159896230       10.3014033286        1.9909960916
N            -1.6206783738       10.3019098395        7.2765393299
N            -1.6225106541       10.3025197424       12.5642018594
N            -3.2372259563       13.1086812233        1.9851567214
N            -3.2426513142       13.1117575227        7.2758439409
N            -3.2411091787       13.1106012610       12.5541801683
N             6.5219232023        1.8645423756        1.9964627207
N             6.4968685005        1.8741947966        7.2733445144
N             6.4914913603        1.8754465620       12.5611002086
N             4.8757003449        4.7158840054        1.9964627207
N             4.8715322357        4.6893597866        7.2733445144
N             4.8699277263        4.6840771639       12.5611002086
N             3.2420058307        7.4989862961        1.9909001396
N             3.2446162464        7.4948436732        7.2764076141
N             3.2449802379        7.4929280519       12.5640746441
N             1.6222348482       10.3028049154        1.9884408319
N             1.6223762911       10.3028865775        7.2774993652
N             1.6223058195       10.3028458907       12.5653325092
N             0.0039421875       13.1074770442        1.9909001396
N             0.0016597787       13.1118090420        7.2764076141
N             0.0001827978       13.1130820785       12.5640746441
N             9.7330314632        1.8712045127        1.9901275460
N             9.7336443287        1.8744249279        7.2777423501
N             9.7337505763        1.8729947588       12.5653575377
N             8.1119144307        4.6834186592        1.9909937691
N             8.1129207885        4.6839996801        7.2728121874
N             8.1108676996        4.6828143287       12.5662462836
N             6.4870240553        7.4934542651        1.9901275460
N             6.4901194494        7.4923748147        7.2777423501
N             6.4889340104        7.4931819123       12.5653575377
N             4.8600877154       10.3015854861        1.9908581094
N             4.8652868133       10.3020337775        7.2764760013
N             4.8670721810       10.3025580209       12.5640098594
N             3.2401052251       13.1074774668        1.9908581094
N             3.2430930058       13.1117558720        7.2764760013
N             3.2444396977       13.1130399241       12.5640098594
N            12.9443290508        1.8640249983        1.9964933676
N            12.9706236531        1.8740491181        7.2735602585
N            12.9759778480        1.8755066013       12.5611618746
N            11.3551586776        4.6833293476        1.9912706138
N            11.3545615343        4.6840012212        7.2730006155
N            11.3567037159        4.6827609006       12.5665787838
N             9.7334592081        7.4921952237        1.9912706138
N             9.7337424960        7.4913421456        7.2730006155
N             9.7337394376        7.4938174896       12.5665787838
N             8.0864552073       10.2781093123        1.9964933676
N             8.1082836508       10.2958690461        7.2735602585
N             8.1122229657       10.2997771732       12.5611618746
N             6.4815578678       13.1083363689        1.9850333186
N             6.4874376369       13.1117310552        7.2759107599
N             6.4857523077       13.1107580299       12.5541049936



     Writing config-only to output data dir ./GaN.save/
     NEW-OLD atomic charge density approx. for the potential

     Check: negative core charge=   -0.000003


     -----------------------------------------------
     Non-local corr. energy    =      81.30961276 Ry
     -----------------------------------------------


     total cpu time spent up to now is   155579.2 secs

     Self-consistent Calculation

     Maximum CPU time exceeded

     max_seconds     =  154800.00
     elapsed seconds =  155578.96
     Calculation stopped in scf loop at iteration #     0

     Writing config to output data dir ./GaN.save/
 
     init_run     :      5.50s CPU      6.14s WALL (       1 calls)
     electrons    : 141639.30s CPU 143186.52s WALL (       7 calls)
     update_pot   :     16.58s CPU     16.92s WALL (       6 calls)
     forces       :    574.97s CPU    583.42s WALL (       6 calls)
     stress       :  11499.28s CPU  11627.29s WALL (       6 calls)

     Called by init_run:
     wfcinit      :      0.61s CPU      0.68s WALL (       1 calls)
     potinit      :      2.00s CPU      2.27s WALL (       1 calls)
     hinit0       :      1.21s CPU      1.30s WALL (       1 calls)

     Called by electrons:
     c_bands      : 139517.54s CPU 141021.22s WALL (      63 calls)
     sum_band     :   1987.06s CPU   2016.43s WALL (      63 calls)
     v_of_rho     :     59.70s CPU     63.72s WALL (      66 calls)
     v_h          :      0.58s CPU      0.59s WALL (      66 calls)
     v_xc         :     69.90s CPU     74.57s WALL (      78 calls)
     newd         :     17.82s CPU     24.46s WALL (      66 calls)
     PAW_pot      :     59.37s CPU     59.84s WALL (      72 calls)
     mix_rho      :      3.23s CPU      3.36s WALL (      63 calls)
     vdW_kernel   :      0.24s CPU      0.26s WALL (       1 calls)

     Called by c_bands:
     init_us_2    :    102.54s CPU    103.93s WALL (     430 calls)
     init_us_2:cp :    102.53s CPU    103.92s WALL (     430 calls)
     cegterg      : 126874.58s CPU 128249.12s WALL (     188 calls)

     Called by sum_band:
     sum_band:wei :      0.25s CPU      0.25s WALL (      63 calls)
     sum_band:loo :   1960.98s CPU   1977.44s WALL (      63 calls)
     sum_band:buf :     23.76s CPU     24.09s WALL (     189 calls)
     sum_band:ini :     50.68s CPU     51.31s WALL (     189 calls)
     sum_band:cal :   1477.74s CPU   1488.64s WALL (     207 calls)
     sum_band:bec :     12.68s CPU     12.80s WALL (     207 calls)
     addusdens    :     16.69s CPU     23.16s WALL (      63 calls)
     addusd:skk   :      2.47s CPU      5.50s WALL (     126 calls)
     addusd:dgemm :      9.81s CPU     12.93s WALL (     126 calls)
     addusd:qvan2 :      3.27s CPU      3.31s WALL (     126 calls)

     Called by *egterg:
     cdiaghg      : 102705.54s CPU 103397.26s WALL (    2091 calls)
     cegterg:over :   4764.58s CPU   4901.77s WALL (    1930 calls)
     cegterg:upda :   2989.73s CPU   3036.32s WALL (    1930 calls)
     cegterg:last :   1499.34s CPU   1510.62s WALL (     191 calls)
     h_psi        :   9962.29s CPU  10119.64s WALL (    2118 calls)
     s_psi        :   3564.68s CPU   3626.01s WALL (    2118 calls)
     g_psi        :     12.06s CPU     12.23s WALL (    1930 calls)

     Called by h_psi:
     h_psi:calbec :   3733.66s CPU   3761.82s WALL (    2118 calls)
     vloc_psi     :   2616.25s CPU   2646.29s WALL (    2118 calls)
     add_vuspsi   :   3570.53s CPU   3636.36s WALL (    2118 calls)

     General routines
     calbec       :   6260.19s CPU   6306.31s WALL (    2415 calls)
     fft          :     31.86s CPU     32.25s WALL (    5170 calls)
     ffts         :      0.64s CPU      0.64s WALL (     129 calls)
     fftw         :   2886.79s CPU   2919.58s WALL ( 1921528 calls)
     interpolate  :      0.82s CPU      0.83s WALL (      66 calls)
     davcio       :      0.00s CPU      2.75s WALL (       6 calls)
 
     Parallel routines

     PAW routines
     PAW_pot      :     59.37s CPU     59.84s WALL (      72 calls)
     PAW_symme    :      0.31s CPU      0.32s WALL (     134 calls)
 
     PWSCF        :   1d18h44m CPU   1d19h13m WALL

 
   This run was terminated on:   2:30:48  29Apr2024            

=------------------------------------------------------------------------------=
   JOB DONE.
=------------------------------------------------------------------------------=
