
     Program PWSCF v.7.1 starts on 12Feb2024 at 13:57:13 

     This program is part of the open-source Quantum ESPRESSO suite
     for quantum simulation of materials; please cite
         "P. Giannozzi et al., J. Phys.:Condens. Matter 21 395502 (2009);
         "P. Giannozzi et al., J. Phys.:Condens. Matter 29 465901 (2017);
         "P. Giannozzi et al., J. Chem. Phys. 152 154105 (2020);
          URL http://www.quantum-espresso.org", 
     in publications or presentations arising from this work. More details at
     http://www.quantum-espresso.org/quote

     Parallel version (MPI & OpenMP), running on     256 processor cores
     Number of MPI processes:               256
     Threads/MPI process:                     1

     MPI processes distributed on     2 nodes
     1949668 MiB available memory on the printing compute node when the environment starts
 
     Reading input from espresso.pwi
Warning: card &CELL ignored
Warning: card    CELL_DYNAMICS    = 'BFGS' ignored
Warning: card / ignored

     Current dimensions of program PWSCF are:
     Max number of different atomic species (ntypx) = 10
     Max number of k-points (npk) =  40000
     Max angular momentum in pseudopotentials (lmaxx) =  4
     file Ga.pbe-dn-kjpaw_psl.1.0.0.UPF: wavefunction(s)  4S renormalized
     file N.pbe-n-kjpaw_psl.1.0.0.UPF: wavefunction(s)  2S renormalized

     **************************************************************************
     Initializing libbeef V0.1.2 with the BEEF-vdW functional.
     Citation: Wellendorff et al., PRB 85, 235149 (2012).
     **************************************************************************


     IMPORTANT: XC functional enforced from input :
     Exchange-correlation= BEEF-VDW
                           (   1   4  43  14   2   0   0)
     Any further DFT definition will be discarded
     Please, verify this is what you really want

 
     K-points division:     npool     =       4
     R & G space division:  proc/nbgrp/npool/nimage =      64
     Subspace diagonalization in iterative solution of the eigenvalue problem:
     a serial algorithm will be used

 
     Parallelization info
     --------------------
     sticks:   dense  smooth     PW     G-vecs:    dense   smooth      PW
     Min         226     181     47                26979    19303    2571
     Max         228     182     48                26983    19308    2576
     Sum       14527   11629   3037              1726709  1235535  164709
 
     Using Slab Decomposition
 


     bravais-lattice index     =            4
     lattice parameter (alat)  =      24.5252  a.u.
     unit-cell volume          =   15616.6055 (a.u.)^3
     number of atoms/cell      =          191
     number of atomic types    =            2
     number of electrons       =      1715.00
     number of Kohn-Sham states=         1030
     kinetic-energy cutoff     =      70.0000  Ry
     charge density cutoff     =     350.0000  Ry
     scf convergence threshold =      1.0E-07
     mixing beta               =       0.7000
     number of iterations used =            8  plain     mixing
     energy convergence thresh.=      1.0E-04
     force convergence thresh. =      1.0E-03
     Exchange-correlation= BEEF-VDW
                           (   1   4  43  14   2   0   0)
     nstep                     =           50


     celldm(1)=  24.525232  celldm(2)=   0.000000  celldm(3)=   1.222409
     celldm(4)=   0.000000  celldm(5)=   0.000000  celldm(6)=   0.000000

     crystal axes: (cart. coord. in units of alat)
               a(1) = (   1.000000   0.000000   0.000000 )  
               a(2) = (  -0.500000   0.866025   0.000000 )  
               a(3) = (   0.000000   0.000000   1.222409 )  

     reciprocal axes: (cart. coord. in units 2 pi/alat)
               b(1) = (  1.000000  0.577350 -0.000000 )  
               b(2) = (  0.000000  1.154701  0.000000 )  
               b(3) = (  0.000000 -0.000000  0.818057 )  


     PseudoPot. # 1 for Ga read from file:
     //group///packages/espresso/pseudo/psl_1.0.0/pslibrary.1.0.0/pbe/PSEUDOPOTENTIALS/Ga.pbe-dn-kjpaw_psl.1.0.0.UPF
     MD5 check sum: cd2a01e492f15b435d17032472d8505c
     Pseudo is Projector augmented-wave + core cor, Zval = 13.0
     Generated using 'atomic' code by A. Dal Corso  v.7.1
     Shape of augmentation charge: PSQ
     Using radial grid of 1205 points,  6 beta functions with: 
                l(1) =   0
                l(2) =   0
                l(3) =   1
                l(4) =   1
                l(5) =   2
                l(6) =   2
     Q(r) pseudized with 0 coefficients 


     PseudoPot. # 2 for N  read from file:
     //group///packages/espresso/pseudo/psl_1.0.0/pslibrary.1.0.0/pbe/PSEUDOPOTENTIALS/N.pbe-n-kjpaw_psl.1.0.0.UPF
     MD5 check sum: f77f775694dac7e2c3fe1c82443d1a16
     Pseudo is Projector augmented-wave + core cor, Zval =  5.0
     Generated using 'atomic' code by A. Dal Corso  v.7.1
     Shape of augmentation charge: PSQ
     Using radial grid of 1085 points,  4 beta functions with: 
                l(1) =   0
                l(2) =   0
                l(3) =   1
                l(4) =   1
     Q(r) pseudized with 0 coefficients 


     atomic species   valence    mass     pseudopotential
        Ga            13.00    69.72300     Ga( 1.00)
        N              5.00    14.00700     N ( 1.00)

      6 Sym. Ops. (no inversion) found ( 4 have fractional translation)


                                    s                        frac. trans.

      isym =  1     identity                                     

 cryst.   s( 1) = (     1          0          0      )
                  (     0          1          0      )
                  (     0          0          1      )

 cart.    s( 1) = (  1.0000000  0.0000000  0.0000000 )
                  (  0.0000000  1.0000000  0.0000000 )
                  (  0.0000000  0.0000000  1.0000000 )


      isym =  2     120 deg rotation - cryst. axis [0,0,1]       

 cryst.   s( 2) = (     0          1          0      )    f =( -0.2500000 )
                  (    -1         -1          0      )       (  0.0000002 )
                  (     0          0          1      )       (  0.0000000 )

 cart.    s( 2) = ( -0.5000000 -0.8660254  0.0000000 )    f =( -0.2500001 )
                  (  0.8660254 -0.5000000  0.0000000 )       (  0.0000002 )
                  (  0.0000000  0.0000000  1.0000000 )       (  0.0000000 )


      isym =  3     120 deg rotation - cryst. axis [0,0,-1]      

 cryst.   s( 3) = (    -1         -1          0      )    f =( -0.2500002 )
                  (     1          0          0      )       ( -0.2500000 )
                  (     0          0          1      )       (  0.0000000 )

 cart.    s( 3) = ( -0.5000000  0.8660254  0.0000000 )    f =( -0.1250002 )
                  ( -0.8660254 -0.5000000  0.0000000 )       ( -0.2165064 )
                  (  0.0000000  0.0000000  1.0000000 )       (  0.0000000 )


      isym =  4     inv. 180 deg rotation - cart. axis [1,0,0]   

 cryst.   s( 4) = (    -1          0          0      )    f =( -0.2500002 )
                  (     1          1          0      )       (  0.0000000 )
                  (     0          0          1      )       (  0.0000000 )

 cart.    s( 4) = ( -1.0000000  0.0000000  0.0000000 )    f =( -0.2500002 )
                  (  0.0000000  1.0000000  0.0000000 )       (  0.0000000 )
                  (  0.0000000  0.0000000  1.0000000 )       (  0.0000000 )


      isym =  5     inv. 180 deg rotation - cryst. axis [0,1,0]  

 cryst.   s( 5) = (     1          1          0      )
                  (     0         -1          0      )
                  (     0          0          1      )

 cart.    s( 5) = (  0.5000000  0.8660254  0.0000000 )
                  (  0.8660254 -0.5000000  0.0000000 )
                  (  0.0000000  0.0000000  1.0000000 )


      isym =  6     inv. 180 deg rotation - cryst. axis [1,1,0]  

 cryst.   s( 6) = (     0         -1          0      )    f =( -0.2500000 )
                  (    -1          0          0      )       ( -0.2500000 )
                  (     0          0          1      )       (  0.0000000 )

 cart.    s( 6) = (  0.5000000 -0.8660254  0.0000000 )    f =( -0.1250000 )
                  ( -0.8660254 -0.5000000  0.0000000 )       ( -0.2165064 )
                  (  0.0000000  0.0000000  1.0000000 )       (  0.0000000 )


     point group C_3v (3m)  
     there are  3 classes
     the character table:

       E     2C3   3s_v 
A_1    1.00  1.00  1.00
A_2    1.00  1.00 -1.00
E      2.00 -1.00  0.00

     the symmetry operations in each class and the name of the first element:

     E        1
          identity                                               
     2C3      2    3
          120 deg rotation - cryst. axis [0,0,1]                 
     3s_v     4    5    6
          inv. 180 deg rotation - cart. axis [1,0,0]             

   Cartesian axes

     site n.     atom                  positions (alat units)
         1           Ga  tau(   1) = (   0.1250001   0.0721687   0.6108633  )
         2           Ga  tau(   2) = (   0.1250001   0.0721687   1.0183331  )
         3           Ga  tau(   3) = (   0.0000001   0.2886751   0.2033935  )
         4           Ga  tau(   4) = (   0.0000001   0.2886751   0.6108633  )
         5           Ga  tau(   5) = (   0.0000001   0.2886751   1.0183331  )
         6           Ga  tau(   6) = (  -0.1249999   0.5051814   0.2033935  )
         7           Ga  tau(   7) = (  -0.1249999   0.5051814   0.6108633  )
         8           Ga  tau(   8) = (  -0.1249999   0.5051814   1.0183331  )
         9           Ga  tau(   9) = (  -0.2499999   0.7216878   0.2033935  )
        10           Ga  tau(  10) = (  -0.2499999   0.7216878   0.6108633  )
        11           Ga  tau(  11) = (  -0.2499999   0.7216878   1.0183331  )
        12           Ga  tau(  12) = (   0.3750001   0.0721687   0.2033935  )
        13           Ga  tau(  13) = (   0.3750001   0.0721687   0.6108633  )
        14           Ga  tau(  14) = (   0.3750001   0.0721687   1.0183331  )
        15           Ga  tau(  15) = (   0.2500001   0.2886751   0.2033935  )
        16           Ga  tau(  16) = (   0.2500001   0.2886751   0.6108633  )
        17           Ga  tau(  17) = (   0.2500001   0.2886751   1.0183331  )
        18           Ga  tau(  18) = (   0.1250001   0.5051814   0.2033935  )
        19           Ga  tau(  19) = (   0.1250001   0.5051814   0.6108633  )
        20           Ga  tau(  20) = (   0.1250001   0.5051814   1.0183331  )
        21           Ga  tau(  21) = (   0.0000001   0.7216878   0.2033935  )
        22           Ga  tau(  22) = (   0.0000001   0.7216878   0.6108633  )
        23           Ga  tau(  23) = (   0.0000001   0.7216878   1.0183331  )
        24           Ga  tau(  24) = (   0.6250001   0.0721687   0.2033935  )
        25           Ga  tau(  25) = (   0.6250001   0.0721687   0.6108633  )
        26           Ga  tau(  26) = (   0.6250001   0.0721687   1.0183331  )
        27           Ga  tau(  27) = (   0.5000001   0.2886751   0.2033935  )
        28           Ga  tau(  28) = (   0.5000001   0.2886751   0.6108633  )
        29           Ga  tau(  29) = (   0.5000001   0.2886751   1.0183331  )
        30           Ga  tau(  30) = (   0.3750001   0.5051814   0.2033935  )
        31           Ga  tau(  31) = (   0.3750001   0.5051814   0.6108633  )
        32           Ga  tau(  32) = (   0.3750001   0.5051814   1.0183331  )
        33           Ga  tau(  33) = (   0.2500001   0.7216878   0.2033935  )
        34           Ga  tau(  34) = (   0.2500001   0.7216878   0.6108633  )
        35           Ga  tau(  35) = (   0.2500001   0.7216878   1.0183331  )
        36           Ga  tau(  36) = (   0.8750001   0.0721687   0.2033935  )
        37           Ga  tau(  37) = (   0.8750001   0.0721687   0.6108633  )
        38           Ga  tau(  38) = (   0.8750001   0.0721687   1.0183331  )
        39           Ga  tau(  39) = (   0.7500001   0.2886751   0.2033935  )
        40           Ga  tau(  40) = (   0.7500001   0.2886751   0.6108633  )
        41           Ga  tau(  41) = (   0.7500001   0.2886751   1.0183331  )
        42           Ga  tau(  42) = (   0.6250001   0.5051814   0.2033935  )
        43           Ga  tau(  43) = (   0.6250001   0.5051814   0.6108633  )
        44           Ga  tau(  44) = (   0.6250001   0.5051814   1.0183331  )
        45           Ga  tau(  45) = (   0.5000001   0.7216878   0.2033935  )
        46           Ga  tau(  46) = (   0.5000001   0.7216878   0.6108633  )
        47           Ga  tau(  47) = (   0.5000001   0.7216878   1.0183331  )
        48           Ga  tau(  48) = (  -0.0000002   0.1443377   0.4071284  )
        49           Ga  tau(  49) = (  -0.0000002   0.1443377   0.8145982  )
        50           Ga  tau(  50) = (  -0.0000002   0.1443377   1.2220680  )
        51           Ga  tau(  51) = (  -0.1250002   0.3608440   0.4071284  )
        52           Ga  tau(  52) = (  -0.1250002   0.3608440   0.8145982  )
        53           Ga  tau(  53) = (  -0.1250002   0.3608440   1.2220680  )
        54           Ga  tau(  54) = (  -0.2500002   0.5773504   0.4071284  )
        55           Ga  tau(  55) = (  -0.2500002   0.5773504   0.8145982  )
        56           Ga  tau(  56) = (  -0.2500002   0.5773504   1.2220680  )
        57           Ga  tau(  57) = (  -0.3750001   0.7938567   0.4071284  )
        58           Ga  tau(  58) = (  -0.3750001   0.7938567   0.8145982  )
        59           Ga  tau(  59) = (  -0.3750001   0.7938567   1.2220680  )
        60           Ga  tau(  60) = (   0.2499998   0.1443377   0.4071284  )
        61           Ga  tau(  61) = (   0.2499998   0.1443377   0.8145982  )
        62           Ga  tau(  62) = (   0.2499998   0.1443377   1.2220680  )
        63           Ga  tau(  63) = (   0.1249998   0.3608440   0.4071284  )
        64           Ga  tau(  64) = (   0.1249998   0.3608440   0.8145982  )
        65           Ga  tau(  65) = (   0.1249998   0.3608440   1.2220680  )
        66           Ga  tau(  66) = (  -0.0000002   0.5773504   0.4071284  )
        67           Ga  tau(  67) = (  -0.0000002   0.5773504   0.8145982  )
        68           Ga  tau(  68) = (  -0.0000002   0.5773504   1.2220680  )
        69           Ga  tau(  69) = (  -0.1250002   0.7938567   0.4071284  )
        70           Ga  tau(  70) = (  -0.1250002   0.7938567   0.8145982  )
        71           Ga  tau(  71) = (  -0.1250002   0.7938567   1.2220680  )
        72           Ga  tau(  72) = (   0.4999998   0.1443377   0.4071284  )
        73           Ga  tau(  73) = (   0.4999998   0.1443377   0.8145982  )
        74           Ga  tau(  74) = (   0.4999998   0.1443377   1.2220680  )
        75           Ga  tau(  75) = (   0.3749998   0.3608440   0.4071284  )
        76           Ga  tau(  76) = (   0.3749998   0.3608440   0.8145982  )
        77           Ga  tau(  77) = (   0.3749998   0.3608440   1.2220680  )
        78           Ga  tau(  78) = (   0.2499998   0.5773504   0.4071284  )
        79           Ga  tau(  79) = (   0.2499998   0.5773504   0.8145982  )
        80           Ga  tau(  80) = (   0.2499998   0.5773504   1.2220680  )
        81           Ga  tau(  81) = (   0.1249998   0.7938567   0.4071284  )
        82           Ga  tau(  82) = (   0.1249998   0.7938567   0.8145982  )
        83           Ga  tau(  83) = (   0.1249998   0.7938567   1.2220680  )
        84           Ga  tau(  84) = (   0.7499998   0.1443377   0.4071284  )
        85           Ga  tau(  85) = (   0.7499998   0.1443377   0.8145982  )
        86           Ga  tau(  86) = (   0.7499998   0.1443377   1.2220680  )
        87           Ga  tau(  87) = (   0.6249998   0.3608440   0.4071284  )
        88           Ga  tau(  88) = (   0.6249998   0.3608440   0.8145982  )
        89           Ga  tau(  89) = (   0.6249998   0.3608440   1.2220680  )
        90           Ga  tau(  90) = (   0.4999998   0.5773504   0.4071284  )
        91           Ga  tau(  91) = (   0.4999998   0.5773504   0.8145982  )
        92           Ga  tau(  92) = (   0.4999998   0.5773504   1.2220680  )
        93           Ga  tau(  93) = (   0.3749998   0.7938567   0.4071284  )
        94           Ga  tau(  94) = (   0.3749998   0.7938567   0.8145982  )
        95           Ga  tau(  95) = (   0.3749998   0.7938567   1.2220680  )
        96           N   tau(  96) = (   0.1250001   0.0721687   0.3568774  )
        97           N   tau(  97) = (   0.1250001   0.0721687   0.7643472  )
        98           N   tau(  98) = (   0.1250001   0.0721687   1.1718169  )
        99           N   tau(  99) = (   0.0000001   0.2886751   0.3568774  )
       100           N   tau( 100) = (   0.0000001   0.2886751   0.7643472  )
       101           N   tau( 101) = (   0.0000001   0.2886751   1.1718169  )
       102           N   tau( 102) = (  -0.1249999   0.5051814   0.3568774  )
       103           N   tau( 103) = (  -0.1249999   0.5051814   0.7643472  )
       104           N   tau( 104) = (  -0.1249999   0.5051814   1.1718169  )
       105           N   tau( 105) = (  -0.2499999   0.7216878   0.3568774  )
       106           N   tau( 106) = (  -0.2499999   0.7216878   0.7643472  )
       107           N   tau( 107) = (  -0.2499999   0.7216878   1.1718169  )
       108           N   tau( 108) = (   0.3750001   0.0721687   0.3568774  )
       109           N   tau( 109) = (   0.3750001   0.0721687   0.7643472  )
       110           N   tau( 110) = (   0.3750001   0.0721687   1.1718169  )
       111           N   tau( 111) = (   0.2500001   0.2886751   0.3568774  )
       112           N   tau( 112) = (   0.2500001   0.2886751   0.7643472  )
       113           N   tau( 113) = (   0.2500001   0.2886751   1.1718169  )
       114           N   tau( 114) = (   0.1250001   0.5051814   0.3568774  )
       115           N   tau( 115) = (   0.1250001   0.5051814   0.7643472  )
       116           N   tau( 116) = (   0.1250001   0.5051814   1.1718169  )
       117           N   tau( 117) = (   0.0000001   0.7216878   0.3568774  )
       118           N   tau( 118) = (   0.0000001   0.7216878   0.7643472  )
       119           N   tau( 119) = (   0.0000001   0.7216878   1.1718169  )
       120           N   tau( 120) = (   0.6250001   0.0721687   0.3568774  )
       121           N   tau( 121) = (   0.6250001   0.0721687   0.7643472  )
       122           N   tau( 122) = (   0.6250001   0.0721687   1.1718169  )
       123           N   tau( 123) = (   0.5000001   0.2886751   0.3568774  )
       124           N   tau( 124) = (   0.5000001   0.2886751   0.7643472  )
       125           N   tau( 125) = (   0.5000001   0.2886751   1.1718169  )
       126           N   tau( 126) = (   0.3750001   0.5051814   0.3568774  )
       127           N   tau( 127) = (   0.3750001   0.5051814   0.7643472  )
       128           N   tau( 128) = (   0.3750001   0.5051814   1.1718169  )
       129           N   tau( 129) = (   0.2500001   0.7216878   0.3568774  )
       130           N   tau( 130) = (   0.2500001   0.7216878   0.7643472  )
       131           N   tau( 131) = (   0.2500001   0.7216878   1.1718169  )
       132           N   tau( 132) = (   0.8750001   0.0721687   0.3568774  )
       133           N   tau( 133) = (   0.8750001   0.0721687   0.7643472  )
       134           N   tau( 134) = (   0.8750001   0.0721687   1.1718169  )
       135           N   tau( 135) = (   0.7500001   0.2886751   0.3568774  )
       136           N   tau( 136) = (   0.7500001   0.2886751   0.7643472  )
       137           N   tau( 137) = (   0.7500001   0.2886751   1.1718169  )
       138           N   tau( 138) = (   0.6250001   0.5051814   0.3568774  )
       139           N   tau( 139) = (   0.6250001   0.5051814   0.7643472  )
       140           N   tau( 140) = (   0.6250001   0.5051814   1.1718169  )
       141           N   tau( 141) = (   0.5000001   0.7216878   0.3568774  )
       142           N   tau( 142) = (   0.5000001   0.7216878   0.7643472  )
       143           N   tau( 143) = (   0.5000001   0.7216878   1.1718169  )
       144           N   tau( 144) = (  -0.0000002   0.1443377   0.1531425  )
       145           N   tau( 145) = (  -0.0000002   0.1443377   0.5606123  )
       146           N   tau( 146) = (  -0.0000002   0.1443377   0.9680820  )
       147           N   tau( 147) = (  -0.1250002   0.3608440   0.1531425  )
       148           N   tau( 148) = (  -0.1250002   0.3608440   0.5606123  )
       149           N   tau( 149) = (  -0.1250002   0.3608440   0.9680820  )
       150           N   tau( 150) = (  -0.2500002   0.5773504   0.1531425  )
       151           N   tau( 151) = (  -0.2500002   0.5773504   0.5606123  )
       152           N   tau( 152) = (  -0.2500002   0.5773504   0.9680820  )
       153           N   tau( 153) = (  -0.3750001   0.7938567   0.1531425  )
       154           N   tau( 154) = (  -0.3750001   0.7938567   0.5606123  )
       155           N   tau( 155) = (  -0.3750001   0.7938567   0.9680820  )
       156           N   tau( 156) = (   0.2499998   0.1443377   0.1531425  )
       157           N   tau( 157) = (   0.2499998   0.1443377   0.5606123  )
       158           N   tau( 158) = (   0.2499998   0.1443377   0.9680820  )
       159           N   tau( 159) = (   0.1249998   0.3608440   0.1531425  )
       160           N   tau( 160) = (   0.1249998   0.3608440   0.5606123  )
       161           N   tau( 161) = (   0.1249998   0.3608440   0.9680820  )
       162           N   tau( 162) = (  -0.0000002   0.5773504   0.1531425  )
       163           N   tau( 163) = (  -0.0000002   0.5773504   0.5606123  )
       164           N   tau( 164) = (  -0.0000002   0.5773504   0.9680820  )
       165           N   tau( 165) = (  -0.1250002   0.7938567   0.1531425  )
       166           N   tau( 166) = (  -0.1250002   0.7938567   0.5606123  )
       167           N   tau( 167) = (  -0.1250002   0.7938567   0.9680820  )
       168           N   tau( 168) = (   0.4999998   0.1443377   0.1531425  )
       169           N   tau( 169) = (   0.4999998   0.1443377   0.5606123  )
       170           N   tau( 170) = (   0.4999998   0.1443377   0.9680820  )
       171           N   tau( 171) = (   0.3749998   0.3608440   0.1531425  )
       172           N   tau( 172) = (   0.3749998   0.3608440   0.5606123  )
       173           N   tau( 173) = (   0.3749998   0.3608440   0.9680820  )
       174           N   tau( 174) = (   0.2499998   0.5773504   0.1531425  )
       175           N   tau( 175) = (   0.2499998   0.5773504   0.5606123  )
       176           N   tau( 176) = (   0.2499998   0.5773504   0.9680820  )
       177           N   tau( 177) = (   0.1249998   0.7938567   0.1531425  )
       178           N   tau( 178) = (   0.1249998   0.7938567   0.5606123  )
       179           N   tau( 179) = (   0.1249998   0.7938567   0.9680820  )
       180           N   tau( 180) = (   0.7499998   0.1443377   0.1531425  )
       181           N   tau( 181) = (   0.7499998   0.1443377   0.5606123  )
       182           N   tau( 182) = (   0.7499998   0.1443377   0.9680820  )
       183           N   tau( 183) = (   0.6249998   0.3608440   0.1531425  )
       184           N   tau( 184) = (   0.6249998   0.3608440   0.5606123  )
       185           N   tau( 185) = (   0.6249998   0.3608440   0.9680820  )
       186           N   tau( 186) = (   0.4999998   0.5773504   0.1531425  )
       187           N   tau( 187) = (   0.4999998   0.5773504   0.5606123  )
       188           N   tau( 188) = (   0.4999998   0.5773504   0.9680820  )
       189           N   tau( 189) = (   0.3749998   0.7938567   0.1531425  )
       190           N   tau( 190) = (   0.3749998   0.7938567   0.5606123  )
       191           N   tau( 191) = (   0.3749998   0.7938567   0.9680820  )

   Crystallographic axes

     site n.     atom                  positions (cryst. coord.)
         1           Ga  tau(   1) = (  0.1666667  0.0833333  0.4997208  )
         2           Ga  tau(   2) = (  0.1666667  0.0833333  0.8330541  )
         3           Ga  tau(   3) = (  0.1666667  0.3333333  0.1663874  )
         4           Ga  tau(   4) = (  0.1666667  0.3333333  0.4997208  )
         5           Ga  tau(   5) = (  0.1666667  0.3333333  0.8330541  )
         6           Ga  tau(   6) = (  0.1666667  0.5833333  0.1663874  )
         7           Ga  tau(   7) = (  0.1666667  0.5833333  0.4997208  )
         8           Ga  tau(   8) = (  0.1666667  0.5833333  0.8330541  )
         9           Ga  tau(   9) = (  0.1666667  0.8333333  0.1663874  )
        10           Ga  tau(  10) = (  0.1666667  0.8333333  0.4997208  )
        11           Ga  tau(  11) = (  0.1666667  0.8333333  0.8330541  )
        12           Ga  tau(  12) = (  0.4166667  0.0833333  0.1663874  )
        13           Ga  tau(  13) = (  0.4166667  0.0833333  0.4997208  )
        14           Ga  tau(  14) = (  0.4166667  0.0833333  0.8330541  )
        15           Ga  tau(  15) = (  0.4166667  0.3333333  0.1663874  )
        16           Ga  tau(  16) = (  0.4166667  0.3333333  0.4997208  )
        17           Ga  tau(  17) = (  0.4166667  0.3333333  0.8330541  )
        18           Ga  tau(  18) = (  0.4166667  0.5833333  0.1663874  )
        19           Ga  tau(  19) = (  0.4166667  0.5833333  0.4997208  )
        20           Ga  tau(  20) = (  0.4166667  0.5833333  0.8330541  )
        21           Ga  tau(  21) = (  0.4166667  0.8333333  0.1663874  )
        22           Ga  tau(  22) = (  0.4166667  0.8333333  0.4997208  )
        23           Ga  tau(  23) = (  0.4166667  0.8333333  0.8330541  )
        24           Ga  tau(  24) = (  0.6666667  0.0833333  0.1663874  )
        25           Ga  tau(  25) = (  0.6666667  0.0833333  0.4997208  )
        26           Ga  tau(  26) = (  0.6666667  0.0833333  0.8330541  )
        27           Ga  tau(  27) = (  0.6666667  0.3333333  0.1663874  )
        28           Ga  tau(  28) = (  0.6666667  0.3333333  0.4997208  )
        29           Ga  tau(  29) = (  0.6666667  0.3333333  0.8330541  )
        30           Ga  tau(  30) = (  0.6666667  0.5833333  0.1663874  )
        31           Ga  tau(  31) = (  0.6666667  0.5833333  0.4997208  )
        32           Ga  tau(  32) = (  0.6666667  0.5833333  0.8330541  )
        33           Ga  tau(  33) = (  0.6666667  0.8333333  0.1663874  )
        34           Ga  tau(  34) = (  0.6666667  0.8333333  0.4997208  )
        35           Ga  tau(  35) = (  0.6666667  0.8333333  0.8330541  )
        36           Ga  tau(  36) = (  0.9166667  0.0833333  0.1663874  )
        37           Ga  tau(  37) = (  0.9166667  0.0833333  0.4997208  )
        38           Ga  tau(  38) = (  0.9166667  0.0833333  0.8330541  )
        39           Ga  tau(  39) = (  0.9166667  0.3333333  0.1663874  )
        40           Ga  tau(  40) = (  0.9166667  0.3333333  0.4997208  )
        41           Ga  tau(  41) = (  0.9166667  0.3333333  0.8330541  )
        42           Ga  tau(  42) = (  0.9166667  0.5833333  0.1663874  )
        43           Ga  tau(  43) = (  0.9166667  0.5833333  0.4997208  )
        44           Ga  tau(  44) = (  0.9166667  0.5833333  0.8330541  )
        45           Ga  tau(  45) = (  0.9166667  0.8333333  0.1663874  )
        46           Ga  tau(  46) = (  0.9166667  0.8333333  0.4997208  )
        47           Ga  tau(  47) = (  0.9166667  0.8333333  0.8330541  )
        48           Ga  tau(  48) = (  0.0833333  0.1666668  0.3330541  )
        49           Ga  tau(  49) = (  0.0833333  0.1666668  0.6663874  )
        50           Ga  tau(  50) = (  0.0833333  0.1666668  0.9997208  )
        51           Ga  tau(  51) = (  0.0833333  0.4166668  0.3330541  )
        52           Ga  tau(  52) = (  0.0833333  0.4166668  0.6663874  )
        53           Ga  tau(  53) = (  0.0833333  0.4166668  0.9997208  )
        54           Ga  tau(  54) = (  0.0833333  0.6666668  0.3330541  )
        55           Ga  tau(  55) = (  0.0833333  0.6666668  0.6663874  )
        56           Ga  tau(  56) = (  0.0833333  0.6666668  0.9997208  )
        57           Ga  tau(  57) = (  0.0833333  0.9166668  0.3330541  )
        58           Ga  tau(  58) = (  0.0833333  0.9166668  0.6663874  )
        59           Ga  tau(  59) = (  0.0833333  0.9166668  0.9997208  )
        60           Ga  tau(  60) = (  0.3333332  0.1666668  0.3330541  )
        61           Ga  tau(  61) = (  0.3333332  0.1666668  0.6663874  )
        62           Ga  tau(  62) = (  0.3333332  0.1666668  0.9997208  )
        63           Ga  tau(  63) = (  0.3333332  0.4166668  0.3330541  )
        64           Ga  tau(  64) = (  0.3333332  0.4166668  0.6663874  )
        65           Ga  tau(  65) = (  0.3333332  0.4166668  0.9997208  )
        66           Ga  tau(  66) = (  0.3333332  0.6666668  0.3330541  )
        67           Ga  tau(  67) = (  0.3333332  0.6666668  0.6663874  )
        68           Ga  tau(  68) = (  0.3333332  0.6666668  0.9997208  )
        69           Ga  tau(  69) = (  0.3333332  0.9166668  0.3330541  )
        70           Ga  tau(  70) = (  0.3333332  0.9166668  0.6663874  )
        71           Ga  tau(  71) = (  0.3333332  0.9166668  0.9997208  )
        72           Ga  tau(  72) = (  0.5833332  0.1666668  0.3330541  )
        73           Ga  tau(  73) = (  0.5833332  0.1666668  0.6663874  )
        74           Ga  tau(  74) = (  0.5833332  0.1666668  0.9997208  )
        75           Ga  tau(  75) = (  0.5833332  0.4166668  0.3330541  )
        76           Ga  tau(  76) = (  0.5833332  0.4166668  0.6663874  )
        77           Ga  tau(  77) = (  0.5833332  0.4166668  0.9997208  )
        78           Ga  tau(  78) = (  0.5833332  0.6666668  0.3330541  )
        79           Ga  tau(  79) = (  0.5833332  0.6666668  0.6663874  )
        80           Ga  tau(  80) = (  0.5833332  0.6666668  0.9997208  )
        81           Ga  tau(  81) = (  0.5833332  0.9166668  0.3330541  )
        82           Ga  tau(  82) = (  0.5833332  0.9166668  0.6663874  )
        83           Ga  tau(  83) = (  0.5833332  0.9166668  0.9997208  )
        84           Ga  tau(  84) = (  0.8333332  0.1666668  0.3330541  )
        85           Ga  tau(  85) = (  0.8333332  0.1666668  0.6663874  )
        86           Ga  tau(  86) = (  0.8333332  0.1666668  0.9997208  )
        87           Ga  tau(  87) = (  0.8333332  0.4166668  0.3330541  )
        88           Ga  tau(  88) = (  0.8333332  0.4166668  0.6663874  )
        89           Ga  tau(  89) = (  0.8333332  0.4166668  0.9997208  )
        90           Ga  tau(  90) = (  0.8333332  0.6666668  0.3330541  )
        91           Ga  tau(  91) = (  0.8333332  0.6666668  0.6663874  )
        92           Ga  tau(  92) = (  0.8333332  0.6666668  0.9997208  )
        93           Ga  tau(  93) = (  0.8333332  0.9166668  0.3330541  )
        94           Ga  tau(  94) = (  0.8333332  0.9166668  0.6663874  )
        95           Ga  tau(  95) = (  0.8333332  0.9166668  0.9997208  )
        96           N   tau(  96) = (  0.1666667  0.0833333  0.2919459  )
        97           N   tau(  97) = (  0.1666667  0.0833333  0.6252792  )
        98           N   tau(  98) = (  0.1666667  0.0833333  0.9586126  )
        99           N   tau(  99) = (  0.1666667  0.3333333  0.2919459  )
       100           N   tau( 100) = (  0.1666667  0.3333333  0.6252792  )
       101           N   tau( 101) = (  0.1666667  0.3333333  0.9586126  )
       102           N   tau( 102) = (  0.1666667  0.5833333  0.2919459  )
       103           N   tau( 103) = (  0.1666667  0.5833333  0.6252792  )
       104           N   tau( 104) = (  0.1666667  0.5833333  0.9586126  )
       105           N   tau( 105) = (  0.1666667  0.8333333  0.2919459  )
       106           N   tau( 106) = (  0.1666667  0.8333333  0.6252792  )
       107           N   tau( 107) = (  0.1666667  0.8333333  0.9586126  )
       108           N   tau( 108) = (  0.4166667  0.0833333  0.2919459  )
       109           N   tau( 109) = (  0.4166667  0.0833333  0.6252792  )
       110           N   tau( 110) = (  0.4166667  0.0833333  0.9586126  )
       111           N   tau( 111) = (  0.4166667  0.3333333  0.2919459  )
       112           N   tau( 112) = (  0.4166667  0.3333333  0.6252792  )
       113           N   tau( 113) = (  0.4166667  0.3333333  0.9586126  )
       114           N   tau( 114) = (  0.4166667  0.5833333  0.2919459  )
       115           N   tau( 115) = (  0.4166667  0.5833333  0.6252792  )
       116           N   tau( 116) = (  0.4166667  0.5833333  0.9586126  )
       117           N   tau( 117) = (  0.4166667  0.8333333  0.2919459  )
       118           N   tau( 118) = (  0.4166667  0.8333333  0.6252792  )
       119           N   tau( 119) = (  0.4166667  0.8333333  0.9586126  )
       120           N   tau( 120) = (  0.6666667  0.0833333  0.2919459  )
       121           N   tau( 121) = (  0.6666667  0.0833333  0.6252792  )
       122           N   tau( 122) = (  0.6666667  0.0833333  0.9586126  )
       123           N   tau( 123) = (  0.6666667  0.3333333  0.2919459  )
       124           N   tau( 124) = (  0.6666667  0.3333333  0.6252792  )
       125           N   tau( 125) = (  0.6666667  0.3333333  0.9586126  )
       126           N   tau( 126) = (  0.6666667  0.5833333  0.2919459  )
       127           N   tau( 127) = (  0.6666667  0.5833333  0.6252792  )
       128           N   tau( 128) = (  0.6666667  0.5833333  0.9586126  )
       129           N   tau( 129) = (  0.6666667  0.8333333  0.2919459  )
       130           N   tau( 130) = (  0.6666667  0.8333333  0.6252792  )
       131           N   tau( 131) = (  0.6666667  0.8333333  0.9586126  )
       132           N   tau( 132) = (  0.9166667  0.0833333  0.2919459  )
       133           N   tau( 133) = (  0.9166667  0.0833333  0.6252792  )
       134           N   tau( 134) = (  0.9166667  0.0833333  0.9586126  )
       135           N   tau( 135) = (  0.9166667  0.3333333  0.2919459  )
       136           N   tau( 136) = (  0.9166667  0.3333333  0.6252792  )
       137           N   tau( 137) = (  0.9166667  0.3333333  0.9586126  )
       138           N   tau( 138) = (  0.9166667  0.5833333  0.2919459  )
       139           N   tau( 139) = (  0.9166667  0.5833333  0.6252792  )
       140           N   tau( 140) = (  0.9166667  0.5833333  0.9586126  )
       141           N   tau( 141) = (  0.9166667  0.8333333  0.2919459  )
       142           N   tau( 142) = (  0.9166667  0.8333333  0.6252792  )
       143           N   tau( 143) = (  0.9166667  0.8333333  0.9586126  )
       144           N   tau( 144) = (  0.0833333  0.1666668  0.1252792  )
       145           N   tau( 145) = (  0.0833333  0.1666668  0.4586126  )
       146           N   tau( 146) = (  0.0833333  0.1666668  0.7919459  )
       147           N   tau( 147) = (  0.0833333  0.4166668  0.1252792  )
       148           N   tau( 148) = (  0.0833333  0.4166668  0.4586126  )
       149           N   tau( 149) = (  0.0833333  0.4166668  0.7919459  )
       150           N   tau( 150) = (  0.0833333  0.6666668  0.1252792  )
       151           N   tau( 151) = (  0.0833333  0.6666668  0.4586126  )
       152           N   tau( 152) = (  0.0833333  0.6666668  0.7919459  )
       153           N   tau( 153) = (  0.0833333  0.9166668  0.1252792  )
       154           N   tau( 154) = (  0.0833333  0.9166668  0.4586126  )
       155           N   tau( 155) = (  0.0833333  0.9166668  0.7919459  )
       156           N   tau( 156) = (  0.3333332  0.1666668  0.1252792  )
       157           N   tau( 157) = (  0.3333332  0.1666668  0.4586126  )
       158           N   tau( 158) = (  0.3333332  0.1666668  0.7919459  )
       159           N   tau( 159) = (  0.3333332  0.4166668  0.1252792  )
       160           N   tau( 160) = (  0.3333332  0.4166668  0.4586126  )
       161           N   tau( 161) = (  0.3333332  0.4166668  0.7919459  )
       162           N   tau( 162) = (  0.3333332  0.6666668  0.1252792  )
       163           N   tau( 163) = (  0.3333332  0.6666668  0.4586126  )
       164           N   tau( 164) = (  0.3333332  0.6666668  0.7919459  )
       165           N   tau( 165) = (  0.3333332  0.9166668  0.1252792  )
       166           N   tau( 166) = (  0.3333332  0.9166668  0.4586126  )
       167           N   tau( 167) = (  0.3333332  0.9166668  0.7919459  )
       168           N   tau( 168) = (  0.5833332  0.1666668  0.1252792  )
       169           N   tau( 169) = (  0.5833332  0.1666668  0.4586126  )
       170           N   tau( 170) = (  0.5833332  0.1666668  0.7919459  )
       171           N   tau( 171) = (  0.5833332  0.4166668  0.1252792  )
       172           N   tau( 172) = (  0.5833332  0.4166668  0.4586126  )
       173           N   tau( 173) = (  0.5833332  0.4166668  0.7919459  )
       174           N   tau( 174) = (  0.5833332  0.6666668  0.1252792  )
       175           N   tau( 175) = (  0.5833332  0.6666668  0.4586126  )
       176           N   tau( 176) = (  0.5833332  0.6666668  0.7919459  )
       177           N   tau( 177) = (  0.5833332  0.9166668  0.1252792  )
       178           N   tau( 178) = (  0.5833332  0.9166668  0.4586126  )
       179           N   tau( 179) = (  0.5833332  0.9166668  0.7919459  )
       180           N   tau( 180) = (  0.8333332  0.1666668  0.1252792  )
       181           N   tau( 181) = (  0.8333332  0.1666668  0.4586126  )
       182           N   tau( 182) = (  0.8333332  0.1666668  0.7919459  )
       183           N   tau( 183) = (  0.8333332  0.4166668  0.1252792  )
       184           N   tau( 184) = (  0.8333332  0.4166668  0.4586126  )
       185           N   tau( 185) = (  0.8333332  0.4166668  0.7919459  )
       186           N   tau( 186) = (  0.8333332  0.6666668  0.1252792  )
       187           N   tau( 187) = (  0.8333332  0.6666668  0.4586126  )
       188           N   tau( 188) = (  0.8333332  0.6666668  0.7919459  )
       189           N   tau( 189) = (  0.8333332  0.9166668  0.1252792  )
       190           N   tau( 190) = (  0.8333332  0.9166668  0.4586126  )
       191           N   tau( 191) = (  0.8333332  0.9166668  0.7919459  )

     number of k points=     4  Gaussian smearing, width (Ry)=  0.0100
                       cart. coord. in units 2pi/alat
        k(    1) = (   0.0000000   0.0000000   0.0000000), wk =   0.2500000
        k(    2) = (   0.0000000   0.0000000  -0.4090283), wk =   0.2500000
        k(    3) = (   0.0000000  -0.5773503   0.0000000), wk =   0.7500000
        k(    4) = (   0.0000000  -0.5773503  -0.4090283), wk =   0.7500000

                       cryst. coord.
        k(    1) = (   0.0000000   0.0000000   0.0000000), wk =   0.2500000
        k(    2) = (   0.0000000   0.0000000  -0.5000000), wk =   0.2500000
        k(    3) = (   0.0000000  -0.5000000   0.0000000), wk =   0.7500000
        k(    4) = (   0.0000000  -0.5000000  -0.5000000), wk =   0.7500000

     Dense  grid:  1726709 G-vectors     FFT dimensions: ( 160, 160, 180)

     Smooth grid:  1235535 G-vectors     FFT dimensions: ( 144, 144, 160)

     Dynamical RAM for                 wfc:      37.92 MB

     Dynamical RAM for     wfc (w. buffer):      37.92 MB

     Dynamical RAM for           str. fact:       0.82 MB

     Dynamical RAM for           local pot:       0.00 MB

     Dynamical RAM for          nlocal pot:      91.24 MB

     Dynamical RAM for                qrad:       3.00 MB

     Dynamical RAM for          rho,v,vnew:       2.99 MB

     Dynamical RAM for               rhoin:       1.00 MB

     Dynamical RAM for            rho*nmix:       6.59 MB

     Dynamical RAM for           G-vectors:       1.69 MB

     Dynamical RAM for          h,s,v(r/c):     777.03 MB

     Dynamical RAM for          <psi|beta>:      38.95 MB

     Dynamical RAM for                 psi:     151.70 MB

     Dynamical RAM for                hpsi:     151.70 MB

     Dynamical RAM for                spsi:     151.70 MB

     Dynamical RAM for      wfcinit/wfcrot:     100.14 MB

     Dynamical RAM for           addusdens:      29.33 MB

     Dynamical RAM for          addusforce:      49.16 MB

     Dynamical RAM for         addusstress:      20.84 MB

     Estimated static dynamical RAM per process >     142.83 MB

     Estimated max dynamical RAM per process >       1.39 GB

     Estimated total dynamical RAM >     353.89 GB

     Atomic positions and unit cell read from directory:
     ./GaN.save/
     Atomic positions from file used, from input discarded
 

     Check: negative core charge=   -0.000003

     The initial density is read from file :
     ./GaN.save/charge-density



     %%%%%%%%%%%%%%%%%%%%%%%%%%%%%%%%%%%%%%%%%%%%%%%%%%%%%%%%%%%%%%%%%%%%%%%%
     %                                                                      %
     % You are using vdW-DF, which was implemented by the Thonhauser group. %
     % Please cite the following two papers that made this development      %
     % possible and the two reviews that describe the various versions:     %
     %                                                                      %
     %   T. Thonhauser et al., PRL 115, 136402 (2015).                      %
     %   T. Thonhauser et al., PRB 76, 125112 (2007).                       %
     %   K. Berland et al., Rep. Prog. Phys. 78, 066501 (2015).             %
     %   D.C. Langreth et al., J. Phys.: Condens. Matter 21, 084203 (2009). %
     %                                                                      %
     % If you are calculating stress with vdW-DF, please also cite:         %
     %                                                                      %
     %   R. Sabatini et al., J. Phys.: Condens. Matter 24, 424209 (2012).   %
     %                                                                      %
     %%%%%%%%%%%%%%%%%%%%%%%%%%%%%%%%%%%%%%%%%%%%%%%%%%%%%%%%%%%%%%%%%%%%%%%%

     %%%%%%%%%%%%%%%%%%%%%%%%%%%%%%%%%%%%%%%%%%%%%%%%%%%%%%%%%%%%%%%%%%%%%%%%
     %                                                                      %
     %  vdW-DF NEWS:                                                        %
     %                                                                      %
     %  * vdW-DF3 is now available. DOI: 10.1021/acs.jctc.0c00471           %
     %    use with input_dft = 'vdW-DF3-opt1' or 'vdW-DF3-opt2'             %
     %                                                                      %
     %  * Unscreened and range-separated vdW-DF hybrid functionals          %
     %    DOI: 10.1063/1.4986522 and 10.1088/1361-648X/ac2ad2               %
     %    use with input_dft = 'vdW-DF-cx0' (etc) and 'vdW-DF-ahcx'         %
     %                                                                      %
     %%%%%%%%%%%%%%%%%%%%%%%%%%%%%%%%%%%%%%%%%%%%%%%%%%%%%%%%%%%%%%%%%%%%%%%%


     Carrying out vdW-DF run using the following parameters:
     Nqs    =  20  Npoints =  1024  r_max =  100.000
     q_mesh =  0.00001000  0.04494208  0.09755937  0.15916263
               0.23128650  0.31572767  0.41458969  0.53033537
               0.66584808  0.82450364  1.01025438  1.22772762
               1.48234092  1.78043706  2.12944203  2.53805004
               3.01644009  3.57652955  4.23227104  5.00000000


     -----------------------------------------------
     Non-local corr. energy    =      51.87584443 Ry
     -----------------------------------------------

     Wavefunctions not found or not readable, recomputing them from scratch
     Starting wfcs are 1239 randomized atomic wfcs
     Checking if some PAW data can be deallocated... 
       PAW data deallocated on   96 nodes for type:  1
       PAW data deallocated on  160 nodes for type:  2

     total cpu time spent up to now is       37.0 secs

     Self-consistent Calculation

     iteration #  1     ecut=    70.00 Ry     beta= 0.70
     Davidson diagonalization with overlap

---- Real-time Memory Report at c_bands before calling an iterative solver
           615 MiB given to the printing process from OS
             0 MiB allocation reported by mallinfo(arena+hblkhd)
       1920061 MiB available memory on the node where the printing process lives
------------------
     ethr =  1.00E-05,  avg # of iterations = 28.8

     Threshold (ethr) on eigenvalues was too large:
     Diagonalizing with lowered threshold

     Davidson diagonalization with overlap

---- Real-time Memory Report at c_bands before calling an iterative solver
          1563 MiB given to the printing process from OS
             0 MiB allocation reported by mallinfo(arena+hblkhd)
       1920928 MiB available memory on the node where the printing process lives
------------------
     c_bands:  4 eigenvalues not converged
     ethr =  2.28E-08,  avg # of iterations = 43.8


     -----------------------------------------------
     Non-local corr. energy    =      51.87578133 Ry
     -----------------------------------------------


     total cpu time spent up to now is     1371.4 secs

     End of self-consistent calculation

          k = 0.0000 0.0000 0.0000 (154543 PWs)   bands (ev):

    -6.9763  -6.7759  -6.7655  -6.6727  -6.6708  -6.6708  -6.6597  -6.6596
    -6.6364  -6.5689  -6.5669  -6.5669  -6.5659  -6.5619  -6.5619  -6.5590
    -6.5589  -6.5535  -6.5515  -6.5469  -6.5469  -6.5439  -6.5277  -6.5202
    -6.5174  -6.5174  -6.5123  -6.5021  -6.5021  -6.4944  -6.4917  -6.4916
    -6.4863  -6.4812  -6.4812  -6.4812  -6.4804  -6.4787  -6.4787  -6.4781
    -6.4781  -6.4765  -6.4756  -6.4756  -6.4741  -6.4719  -6.4719  -6.4710
    -6.4694  -6.4679  -6.4678  -6.4671  -6.4671  -6.4637  -6.4617  -6.4617
    -6.4596  -6.4596  -6.4586  -6.4586  -6.4579  -6.4569  -6.4569  -6.4563
    -6.4549  -6.4547  -6.4547  -6.4514  -6.4513  -6.4513  -6.4495  -6.4495
    -6.4463  -6.4447  -6.4442  -6.4435  -6.4435  -6.4383  -6.4361  -6.4361
    -6.4327  -6.4327  -6.4320  -6.4273  -6.4273  -6.4245  -6.4245  -6.4223
    -6.4220  -6.4141  -6.4068  -6.4068  -6.2363  -6.2115  -6.2115  -6.2030
    -5.3967  -5.3886  -5.3886  -5.3778  -5.3778  -5.3743  -5.3743  -5.3733
    -5.3716  -5.3713  -5.3713  -5.3592  -5.3591  -5.3590  -5.3581  -5.3581
    -5.3573  -5.3573  -5.3563  -5.3559  -5.3559  -5.3552  -5.3552  -5.3548
    -5.3523  -5.3522  -5.3522  -5.3508  -5.3508  -5.3482  -5.3481  -5.3481
    -5.3475  -5.3458  -5.3458  -5.3442  -5.3411  -5.3411  -5.3394  -5.3394
    -5.3387  -5.3377  -5.3377  -5.3356  -5.3354  -5.3348  -5.3348  -5.3320
    -5.3320  -5.3300  -5.3300  -5.3300  -5.3287  -5.3280  -5.3280  -5.3269
    -5.3264  -5.3247  -5.3247  -5.3240  -5.3240  -5.3226  -5.3221  -5.3208
    -5.3208  -5.3180  -5.3168  -5.3167  -5.3167  -5.3153  -5.3153  -5.3145
    -5.3115  -5.3115  -5.3115  -5.3107  -5.3107  -5.3101  -5.3101  -5.3101
    -5.3080  -5.3080  -5.3073  -5.3073  -5.3071  -5.3068  -5.3068  -5.3040
    -5.3030  -5.3030  -5.3030  -5.3023  -5.3014  -5.3014  -5.2992  -5.2983
    -5.2983  -5.2967  -5.2963  -5.2963  -5.2937  -5.2937  -5.2936  -5.2914
    -5.2914  -5.2891  -5.2874  -5.2845  -5.2845  -5.2840  -5.2836  -5.2836
    -5.2824  -5.2821  -5.2821  -5.2798  -5.2783  -5.2783  -5.2772  -5.2772
    -5.2769  -5.2769  -5.2757  -5.2746  -5.2723  -5.2701  -5.2693  -5.2693
    -5.2684  -5.2678  -5.2678  -5.2660  -5.2660  -5.2643  -5.2636  -5.2636
    -5.2627  -5.2618  -5.2618  -5.2595  -5.2579  -5.2579  -5.2574  -5.2568
    -5.2547  -5.2547  -5.2513  -5.2513  -5.2486  -5.2472  -5.2450  -5.2439
    -5.2431  -5.2431  -5.2413  -5.2413  -5.2390  -5.2387  -5.2387  -5.2382
    -5.2352  -5.2352  -5.2348  -5.2348  -5.2328  -5.2300  -5.2300  -5.2282
    -5.2277  -5.2277  -5.2275  -5.2264  -5.2264  -5.2256  -5.2256  -5.2246
    -5.2220  -5.2220  -5.2204  -5.2204  -5.2194  -5.2184  -5.2184  -5.2183
    -5.2167  -5.2152  -5.2149  -5.2149  -5.2134  -5.2134  -5.2126  -5.2124
    -5.2104  -5.2104  -5.2088  -5.2088  -5.2082  -5.2079  -5.2069  -5.2065
    -5.2065  -5.2058  -5.2053  -5.2053  -5.2045  -5.2045  -5.2040  -5.2029
    -5.2029  -5.2014  -5.2005  -5.2005  -5.2004  -5.2002  -5.1996  -5.1996
    -5.1992  -5.1983  -5.1983  -5.1979  -5.1970  -5.1970  -5.1970  -5.1968
    -5.1959  -5.1959  -5.1945  -5.1945  -5.1943  -5.1928  -5.1928  -5.1925
    -5.1925  -5.1921  -5.1911  -5.1911  -5.1899  -5.1898  -5.1898  -5.1885
    -5.1885  -5.1882  -5.1880  -5.1880  -5.1848  -5.1846  -5.1846  -5.1840
    -5.1814  -5.1808  -5.1799  -5.1799  -5.1794  -5.1794  -5.1780  -5.1780
    -5.1774  -5.1764  -5.1754  -5.1754  -5.1750  -5.1741  -5.1741  -5.1733
    -5.1733  -5.1722  -5.1709  -5.1695  -5.1695  -5.1676  -5.1676  -5.1659
    -5.1659  -5.1643  -5.1642  -5.1642  -5.1641  -5.1617  -5.1617  -5.1600
    -5.1595  -5.1595  -5.1578  -5.1578  -5.1550  -5.1543  -5.1531  -5.1509
    -5.1509  -5.1481  -5.1481  -5.1473  -5.1473  -5.1466  -5.1439  -5.1439
    -5.1426  -5.1425  -5.1420  -5.1417  -5.1417  -5.1397  -5.1390  -5.1390
    -5.1389  -5.1389  -5.1366  -5.1366  -5.1365  -5.1359  -5.1359  -5.1359
    -5.1328  -5.1327  -5.1326  -5.1321  -5.1321  -5.1309  -5.1309  -5.1307
    -5.1302  -5.1302  -5.1290  -5.1285  -5.1285  -5.1285  -5.1278  -5.1254
    -5.1254  -5.1254  -5.1243  -5.1239  -5.1239  -5.1220  -5.1220  -5.1215
    -5.1206  -5.1206  -5.1190  -5.1190  -5.1162  -5.1133  -5.1133  -5.1125
    -5.1125  -5.1123  -5.1116  -5.1091  -5.1091  -5.1077  -5.1074  -5.1074
    -5.1043  -5.1019  -5.1019  -5.1017  -5.0985  -5.0985  -5.0929  -5.0854
    -5.0854  -5.0848  -5.0847  -5.0727  -5.0727  -5.0720  -5.0682  -5.0682
    -5.0588  -5.0588  -5.0538  -5.0538  -5.0477  -5.0442  -5.0442  -5.0391
    -5.0391  -5.0368  -5.0298  -5.0256  -5.0256  -5.0194  -4.9602  -4.9584
    -4.9584  -4.9440  -4.9439  -4.9085  -4.7152  -4.7152  -4.7126  -4.7105
    -4.7047  -4.7046  -4.6992  -4.6992  -4.6854  -4.6853  -4.6846  -4.5575
    -4.3968  -4.3768  -3.9044  -3.9044  -3.9040  -3.9007  -3.8964  -3.8964
    -3.8964  -3.8932  -3.8932  -3.8864  -3.8864  -3.8814  -3.8808  -3.8808
    -3.8715  -3.8715  -3.8433  -3.8023  -3.7272  -3.7241  -3.7241  -3.7046
    -3.7046  -3.7031  -3.7031  -3.6998  -3.6970  -3.6970  -3.6914  -3.6890
    -3.6771  -3.6771  -3.6428  -3.6178  -3.6026  -3.6026  -3.5972  -3.5812
    -3.5812  -3.4114  -3.3089  -3.3024  -3.3024  -3.2952  -3.2952  -3.2938
    -3.2575  -3.2546  -3.2546  -3.2433  -3.2433  -3.2345  -3.2345  -3.2318
    -3.2318  -3.2290  -3.2290  -3.2253  -3.2253  -3.2159  -3.1780  -3.1780
    -3.1574  -3.1038  -3.0891  -3.0891  -3.0326  -2.9449  -2.9449  -2.9403
    -2.8978  -2.8866  -2.8866   1.9806   2.1885   2.1928   2.1928   2.2055
     2.2055   2.2381   2.4484   2.4485   2.4723   2.6625   2.6625   2.6626
     2.6752   2.6752   2.7258   2.7316   2.7317   2.7332   2.7407   2.7407
     2.7728   2.7728   2.7755   2.7774   2.7783   2.7783   2.7839   2.7898
     2.7901   2.7901   2.8264   2.8264   2.9413   3.0630   3.0630   3.0707
     3.0726   3.0727   3.1532   3.2156   3.2183   3.2184   3.2193   3.2193
     3.2210   3.2362   3.2394   3.2394   3.2701   3.2701   3.4162   3.4766
     3.4814   3.4867   3.4877   3.4888   3.4888   3.4904   3.4904   3.5005
     3.5006   3.5084   3.5084   3.5292   3.5437   3.5437   3.6056   3.7149
     3.7359   3.7359   3.7367   3.7671   3.7671   4.5083   4.6985   4.6985
     4.7265   4.7880   4.7928   4.7928   4.7938   4.7975   4.7975   4.8069
     4.8070   4.8239   4.8239   4.8303   4.8419   4.8468   4.8557   4.8557
     4.8656   4.8686   4.8686   4.8704   4.8704   4.8776   4.8776   4.8785
     4.8823   4.8930   4.8930   4.9572   4.9573   5.0269   5.0487   5.0504
     5.0582   5.0588   5.0636   5.0636   5.0726   5.0726   5.0778   5.0778
     5.2821   5.2821   5.6150   5.7796   5.7846   5.7846   5.8054   5.8054
     5.8122   5.8289   5.8289   5.8311   5.8333   5.8384   5.8384   5.8448
     5.8448   5.8784   5.8784   5.9026   5.9758   5.9833   5.9833   5.9833
     5.9840   5.9841   5.9881   5.9889   5.9981   5.9982   6.0115   6.0115
     6.0131   6.0245   6.0246   6.0681   6.0681   6.0836   6.0921   6.1715
     6.1715   6.2396   6.2836   6.2836   6.2918   6.3040   6.3053   6.3053
     6.3254   6.3254   6.3348   6.3348   6.3582   6.3723   6.4292   6.4292
     6.4350   6.4547   6.4966   6.4967   6.5023   6.6401   6.6401   6.6640
     6.6818   6.6913   6.6913   6.6924   6.7448   6.7448   6.7682   6.7879
     6.7879   6.7926   6.8487   6.8487   6.8555   6.8679   6.8679   6.9271
     6.9338   6.9338   7.0766   7.0928   7.0947   7.0948   7.0987   7.0993
     7.0993   7.1036   7.1036   7.1134   7.1587   7.1691   7.1691   7.1787
     7.1788   7.1870   7.1871   7.2028   7.2345   7.2368   7.2368   7.2715
     7.3445   7.3445   7.3533   7.3555   7.3578   7.3578   7.3659   7.3672
     7.3672   7.3847   7.3847   7.4439   7.4454   7.4454   7.4908   7.5036
     7.5036   7.5060   7.5084   7.5084   7.5167   7.5168   7.5200   7.5790
     7.5790   7.6750   7.6751   7.7046   7.7153   7.7153   7.7776   7.7873
     7.7876   7.7876   7.7884   7.7954   7.7955   7.8000   7.8000   7.8257
     7.8279   7.8702   7.8702   7.9042   7.9043   7.9408   7.9753   7.9753
     7.9934   7.9934   8.0179   8.1046   8.1046   8.1711   8.1799   8.1799
     8.1892   8.3390   8.3391   8.4022   8.4023   8.5094   8.6035   8.6036
     8.7698   8.8638   8.8638  10.2224  11.9025  11.9493  12.5837  12.6018
    12.6079  12.6079  12.6300  12.6300  12.6676  12.6949  12.7278  12.7397
    12.7398  12.7683  12.7684  12.7933  12.8240  12.9874  12.9998  12.9999
    13.0069  13.0069  13.0192  13.0193  13.0246  13.0593  13.0938  13.0938
    13.2382  13.6022  13.6023  13.6067  13.6232  13.6233  13.6457  13.7765
    13.7766  13.8293  13.9204  13.9205  13.9407  14.2376  14.2376  14.2481
    14.2488  14.2522  14.2523  14.2529  14.2549  14.2550  14.2620  14.2620
    14.2635  14.2635  14.2651  14.2655  14.2681  14.2681  14.2716  14.2739
    14.2740  14.2920  14.3199  14.3199  14.3355  14.3356  14.3369  14.4292
    14.4829  14.4830  14.6358  14.6389  14.6569  14.6569  14.6872  14.6872
    14.7046  14.7183  14.7273  14.7322  14.7323  14.7450  14.7522  14.7522
    14.7670  14.7670  14.7941  14.8018  14.8018  14.8279  14.8279  14.8519
    14.8700  14.8917  14.8917  15.0113  15.0113  15.3065  15.7960  15.8006
    15.8006  15.8061  15.8061  15.8124  15.8210  15.8210  15.8339  15.8378
    15.8378  15.8610  15.9499  15.9499  15.9546  15.9680  15.9810  15.9810
    16.0063  16.0063  16.0129  16.0345  16.0345  16.0504  16.0504  16.0540
    16.0745  16.0925  16.0925  16.1292  16.2378  16.2378  16.2681  16.2784
    16.2784  16.2841  16.3090  16.3114  16.3114  16.3201  16.3285  16.3285
    16.3416  16.3469  16.3469  16.3695  16.3695  16.3801  16.3993  16.3993
    16.4011  16.4051  16.4110  16.4110  16.4138  16.4138  16.4177  16.4275
    16.4369  16.4369  16.4375  16.4556  16.4556  16.4603  16.4811  16.4811
    16.4924  16.4952  16.4952  16.5182  16.5182  16.5866

     occupation numbers 
     1.0000   1.0000   1.0000   1.0000   1.0000   1.0000   1.0000   1.0000
     1.0000   1.0000   1.0000   1.0000   1.0000   1.0000   1.0000   1.0000
     1.0000   1.0000   1.0000   1.0000   1.0000   1.0000   1.0000   1.0000
     1.0000   1.0000   1.0000   1.0000   1.0000   1.0000   1.0000   1.0000
     1.0000   1.0000   1.0000   1.0000   1.0000   1.0000   1.0000   1.0000
     1.0000   1.0000   1.0000   1.0000   1.0000   1.0000   1.0000   1.0000
     1.0000   1.0000   1.0000   1.0000   1.0000   1.0000   1.0000   1.0000
     1.0000   1.0000   1.0000   1.0000   1.0000   1.0000   1.0000   1.0000
     1.0000   1.0000   1.0000   1.0000   1.0000   1.0000   1.0000   1.0000
     1.0000   1.0000   1.0000   1.0000   1.0000   1.0000   1.0000   1.0000
     1.0000   1.0000   1.0000   1.0000   1.0000   1.0000   1.0000   1.0000
     1.0000   1.0000   1.0000   1.0000   1.0000   1.0000   1.0000   1.0000
     1.0000   1.0000   1.0000   1.0000   1.0000   1.0000   1.0000   1.0000
     1.0000   1.0000   1.0000   1.0000   1.0000   1.0000   1.0000   1.0000
     1.0000   1.0000   1.0000   1.0000   1.0000   1.0000   1.0000   1.0000
     1.0000   1.0000   1.0000   1.0000   1.0000   1.0000   1.0000   1.0000
     1.0000   1.0000   1.0000   1.0000   1.0000   1.0000   1.0000   1.0000
     1.0000   1.0000   1.0000   1.0000   1.0000   1.0000   1.0000   1.0000
     1.0000   1.0000   1.0000   1.0000   1.0000   1.0000   1.0000   1.0000
     1.0000   1.0000   1.0000   1.0000   1.0000   1.0000   1.0000   1.0000
     1.0000   1.0000   1.0000   1.0000   1.0000   1.0000   1.0000   1.0000
     1.0000   1.0000   1.0000   1.0000   1.0000   1.0000   1.0000   1.0000
     1.0000   1.0000   1.0000   1.0000   1.0000   1.0000   1.0000   1.0000
     1.0000   1.0000   1.0000   1.0000   1.0000   1.0000   1.0000   1.0000
     1.0000   1.0000   1.0000   1.0000   1.0000   1.0000   1.0000   1.0000
     1.0000   1.0000   1.0000   1.0000   1.0000   1.0000   1.0000   1.0000
     1.0000   1.0000   1.0000   1.0000   1.0000   1.0000   1.0000   1.0000
     1.0000   1.0000   1.0000   1.0000   1.0000   1.0000   1.0000   1.0000
     1.0000   1.0000   1.0000   1.0000   1.0000   1.0000   1.0000   1.0000
     1.0000   1.0000   1.0000   1.0000   1.0000   1.0000   1.0000   1.0000
     1.0000   1.0000   1.0000   1.0000   1.0000   1.0000   1.0000   1.0000
     1.0000   1.0000   1.0000   1.0000   1.0000   1.0000   1.0000   1.0000
     1.0000   1.0000   1.0000   1.0000   1.0000   1.0000   1.0000   1.0000
     1.0000   1.0000   1.0000   1.0000   1.0000   1.0000   1.0000   1.0000
     1.0000   1.0000   1.0000   1.0000   1.0000   1.0000   1.0000   1.0000
     1.0000   1.0000   1.0000   1.0000   1.0000   1.0000   1.0000   1.0000
     1.0000   1.0000   1.0000   1.0000   1.0000   1.0000   1.0000   1.0000
     1.0000   1.0000   1.0000   1.0000   1.0000   1.0000   1.0000   1.0000
     1.0000   1.0000   1.0000   1.0000   1.0000   1.0000   1.0000   1.0000
     1.0000   1.0000   1.0000   1.0000   1.0000   1.0000   1.0000   1.0000
     1.0000   1.0000   1.0000   1.0000   1.0000   1.0000   1.0000   1.0000
     1.0000   1.0000   1.0000   1.0000   1.0000   1.0000   1.0000   1.0000
     1.0000   1.0000   1.0000   1.0000   1.0000   1.0000   1.0000   1.0000
     1.0000   1.0000   1.0000   1.0000   1.0000   1.0000   1.0000   1.0000
     1.0000   1.0000   1.0000   1.0000   1.0000   1.0000   1.0000   1.0000
     1.0000   1.0000   1.0000   1.0000   1.0000   1.0000   1.0000   1.0000
     1.0000   1.0000   1.0000   1.0000   1.0000   1.0000   1.0000   1.0000
     1.0000   1.0000   1.0000   1.0000   1.0000   1.0000   1.0000   1.0000
     1.0000   1.0000   1.0000   1.0000   1.0000   1.0000   1.0000   1.0000
     1.0000   1.0000   1.0000   1.0000   1.0000   1.0000   1.0000   1.0000
     1.0000   1.0000   1.0000   1.0000   1.0000   1.0000   1.0000   1.0000
     1.0000   1.0000   1.0000   1.0000   1.0000   1.0000   1.0000   1.0000
     1.0000   1.0000   1.0000   1.0000   1.0000   1.0000   1.0000   1.0000
     1.0000   1.0000   1.0000   1.0000   1.0000   1.0000   1.0000   1.0000
     1.0000   1.0000   1.0000   1.0000   1.0000   1.0000   1.0000   1.0000
     1.0000   1.0000   1.0000   1.0000   1.0000   1.0000   1.0000   1.0000
     1.0000   1.0000   1.0000   1.0000   1.0000   1.0000   1.0000   1.0000
     1.0000   1.0000   1.0000   1.0000   1.0000   1.0000   1.0000   1.0000
     1.0000   1.0000   1.0000   1.0000   1.0000   1.0000   1.0000   1.0000
     1.0000   1.0000   1.0000   1.0000   1.0000   1.0000   1.0000   1.0000
     1.0000   1.0000   1.0000   1.0000   1.0000   1.0000   1.0000   1.0000
     1.0000   1.0000   1.0000   1.0000   1.0000   1.0000   1.0000   1.0000
     1.0000   1.0000   1.0000   1.0000   1.0000   1.0000   1.0000   1.0000
     1.0000   1.0000   1.0000   1.0000   1.0000   1.0000   1.0000   1.0000
     1.0000   1.0000   1.0000   1.0000   1.0000   1.0000   1.0000   1.0000
     1.0000   1.0000   1.0000   1.0000   1.0000   1.0000   1.0000   1.0000
     1.0000   1.0000   1.0000   1.0000   1.0000   1.0000   1.0000   1.0000
     1.0000   1.0000   1.0000   1.0000   1.0000   1.0000   1.0000   1.0000
     1.0000   1.0000   1.0000   1.0000   1.0000   1.0000   1.0000   1.0000
     1.0000   1.0000   1.0000   1.0000   1.0000   1.0000   1.0000   1.0000
     1.0000   1.0000   1.0000   1.0000   1.0000   1.0000   1.0000   1.0000
     1.0000   1.0000   1.0000   1.0000   1.0000   1.0000   1.0000   1.0000
     1.0000   1.0000   1.0000   1.0000   1.0000   1.0000   1.0000   1.0000
     1.0000   1.0000   1.0000   1.0000   1.0000   1.0000   1.0000   1.0000
     1.0000   1.0000   1.0000   1.0000   1.0000   1.0000   1.0000   1.0000
     1.0000   1.0000   1.0000   1.0000   1.0000   1.0000   1.0000   1.0000
     1.0000   1.0000   1.0000   1.0000   1.0000   1.0000   1.0000   1.0000
     1.0000   1.0000   1.0000   1.0000   1.0000   1.0000   1.0000   1.0000
     1.0000   1.0000   1.0000   1.0000   1.0000   1.0000   1.0000   1.0000
     1.0000   1.0000   1.0000   1.0000   1.0000   1.0000   1.0000   1.0000
     1.0000   1.0000   1.0000   1.0000   1.0000   1.0000   1.0000   1.0000
     1.0000   1.0000   1.0000   1.0000   1.0000   1.0000   1.0000   1.0000
     1.0000   1.0000   1.0000   1.0000   1.0000   1.0000   1.0000   1.0000
     1.0000   1.0000   1.0000   1.0000   1.0000   1.0000   1.0000   1.0000
     1.0000   1.0000   1.0000   1.0000   1.0000   1.0000   1.0000   1.0000
     1.0000   1.0000   1.0000   1.0000   1.0000   1.0000   1.0000   1.0000
     1.0000   1.0000   1.0000   1.0000   1.0000   1.0000   1.0000   1.0000
     1.0000   1.0000   1.0000   1.0000   1.0000   1.0000   1.0000   1.0000
     1.0000   1.0000   1.0000   1.0000   1.0000   1.0000   1.0000   1.0000
     1.0000   1.0000   1.0000   1.0000   1.0000   1.0000   1.0000   1.0000
     1.0000   1.0000   1.0000   1.0000   1.0000   1.0000   1.0000   1.0000
     1.0000   1.0000   1.0000   1.0000   1.0000   1.0000   1.0000   1.0000
     1.0000   1.0000   1.0000   1.0000   1.0000   1.0000   1.0000   1.0000
     1.0000   1.0000   1.0000   1.0000   1.0000   1.0000   1.0000   1.0000
     1.0000   1.0000   1.0000   1.0000   1.0000   1.0000   1.0000   1.0000
     1.0000   1.0000   1.0000   1.0000   1.0000   1.0000   1.0000   1.0000
     1.0000   1.0000   1.0000   1.0000   1.0000   1.0000   1.0000   1.0000
     1.0000   1.0000   1.0000   1.0000   1.0000   1.0000   1.0000   1.0000
     1.0000   1.0000   1.0000   1.0000   1.0000   1.0000   1.0000   1.0000
     1.0000   1.0000   1.0000   1.0000   1.0000   1.0000   1.0000   1.0000
     1.0000   1.0000   1.0000   1.0000   1.0000   1.0000   1.0000   1.0000
     1.0000   1.0000   1.0000   1.0000   1.0000   1.0000   1.0000   1.0000
     1.0000   1.0000   1.0000   1.0000   1.0000   1.0000   1.0000   1.0000
     1.0000   1.0000   1.0000   1.0000   1.0000   1.0000   1.0000   1.0000
     1.0000   1.0000   1.0000   1.0000   1.0000   1.0000   1.0000   1.0000
     1.0000   1.0000   1.0000   1.0000   1.0000   1.0000   1.0000   1.0000
     1.0000   1.0000   1.0000   0.9999   0.9999   0.9968   0.9600   0.9599
     0.5090   0.1699   0.1698   0.0000   0.0000   0.0000   0.0000   0.0000
     0.0000   0.0000   0.0000   0.0000   0.0000   0.0000   0.0000   0.0000
     0.0000   0.0000   0.0000   0.0000   0.0000   0.0000   0.0000   0.0000
     0.0000   0.0000   0.0000   0.0000   0.0000   0.0000   0.0000   0.0000
     0.0000   0.0000   0.0000   0.0000   0.0000   0.0000   0.0000   0.0000
     0.0000   0.0000   0.0000   0.0000   0.0000   0.0000   0.0000   0.0000
     0.0000   0.0000   0.0000   0.0000   0.0000   0.0000   0.0000   0.0000
     0.0000   0.0000   0.0000   0.0000   0.0000   0.0000   0.0000   0.0000
     0.0000   0.0000   0.0000   0.0000   0.0000   0.0000   0.0000   0.0000
     0.0000   0.0000   0.0000   0.0000   0.0000   0.0000   0.0000   0.0000
     0.0000   0.0000   0.0000   0.0000   0.0000   0.0000   0.0000   0.0000
     0.0000   0.0000   0.0000   0.0000   0.0000   0.0000   0.0000   0.0000
     0.0000   0.0000   0.0000   0.0000   0.0000   0.0000   0.0000   0.0000
     0.0000   0.0000   0.0000   0.0000   0.0000   0.0000   0.0000   0.0000
     0.0000   0.0000   0.0000   0.0000   0.0000   0.0000   0.0000   0.0000
     0.0000   0.0000   0.0000   0.0000   0.0000   0.0000   0.0000   0.0000
     0.0000   0.0000   0.0000   0.0000   0.0000   0.0000   0.0000   0.0000
     0.0000   0.0000   0.0000   0.0000   0.0000   0.0000   0.0000   0.0000
     0.0000   0.0000   0.0000   0.0000   0.0000   0.0000   0.0000   0.0000
     0.0000   0.0000   0.0000   0.0000   0.0000   0.0000   0.0000   0.0000
     0.0000   0.0000   0.0000   0.0000   0.0000   0.0000   0.0000   0.0000
     0.0000   0.0000   0.0000   0.0000   0.0000   0.0000

          k = 0.0000 0.0000-0.4090 (154532 PWs)   bands (ev):

    -6.9272  -6.9041  -6.6439  -6.6439  -6.6431  -6.6394  -6.6368  -6.6368
    -6.6313  -6.6312  -6.6312  -6.6307  -6.6190  -6.6154  -6.6154  -6.5794
    -6.5300  -6.5195  -6.5094  -6.5094  -6.5093  -6.5077  -6.5052  -6.5052
    -6.5043  -6.5034  -6.5034  -6.4983  -6.4966  -6.4966  -6.4953  -6.4952
    -6.4928  -6.4928  -6.4921  -6.4921  -6.4902  -6.4886  -6.4844  -6.4844
    -6.4830  -6.4826  -6.4825  -6.4782  -6.4772  -6.4772  -6.4761  -6.4745
    -6.4734  -6.4734  -6.4706  -6.4702  -6.4702  -6.4659  -6.4658  -6.4650
    -6.4627  -6.4563  -6.4563  -6.4553  -6.4552  -6.4552  -6.4546  -6.4545
    -6.4544  -6.4530  -6.4525  -6.4525  -6.4484  -6.4480  -6.4480  -6.4473
    -6.4473  -6.4452  -6.4452  -6.4413  -6.4401  -6.4379  -6.4340  -6.4340
    -6.4331  -6.4331  -6.4312  -6.4275  -6.4275  -6.4238  -6.4238  -6.4230
    -6.4220  -6.4132  -6.4073  -6.4073  -6.2361  -6.2114  -6.2114  -6.2032
    -5.3887  -5.3887  -5.3782  -5.3782  -5.3669  -5.3668  -5.3665  -5.3646
    -5.3646  -5.3641  -5.3639  -5.3639  -5.3634  -5.3631  -5.3602  -5.3602
    -5.3600  -5.3590  -5.3590  -5.3585  -5.3568  -5.3560  -5.3560  -5.3546
    -5.3546  -5.3542  -5.3542  -5.3541  -5.3532  -5.3516  -5.3516  -5.3484
    -5.3456  -5.3453  -5.3453  -5.3446  -5.3446  -5.3432  -5.3432  -5.3425
    -5.3410  -5.3410  -5.3403  -5.3384  -5.3384  -5.3372  -5.3372  -5.3362
    -5.3361  -5.3357  -5.3357  -5.3341  -5.3339  -5.3334  -5.3334  -5.3310
    -5.3310  -5.3304  -5.3304  -5.3275  -5.3266  -5.3266  -5.3247  -5.3224
    -5.3224  -5.3201  -5.3201  -5.3200  -5.3197  -5.3197  -5.3195  -5.3172
    -5.3172  -5.3171  -5.3141  -5.3141  -5.3066  -5.3050  -5.3045  -5.3045
    -5.3033  -5.3023  -5.3016  -5.3016  -5.3004  -5.3002  -5.3002  -5.2993
    -5.2993  -5.2992  -5.2985  -5.2985  -5.2967  -5.2967  -5.2963  -5.2963
    -5.2942  -5.2934  -5.2934  -5.2919  -5.2913  -5.2909  -5.2909  -5.2906
    -5.2906  -5.2885  -5.2879  -5.2873  -5.2873  -5.2859  -5.2848  -5.2847
    -5.2847  -5.2819  -5.2802  -5.2802  -5.2782  -5.2782  -5.2782  -5.2753
    -5.2736  -5.2736  -5.2731  -5.2705  -5.2705  -5.2688  -5.2684  -5.2669
    -5.2664  -5.2664  -5.2643  -5.2643  -5.2643  -5.2634  -5.2634  -5.2621
    -5.2615  -5.2615  -5.2609  -5.2595  -5.2591  -5.2591  -5.2564  -5.2562
    -5.2562  -5.2550  -5.2550  -5.2533  -5.2515  -5.2515  -5.2508  -5.2508
    -5.2486  -5.2486  -5.2444  -5.2420  -5.2420  -5.2417  -5.2399  -5.2382
    -5.2382  -5.2382  -5.2375  -5.2357  -5.2357  -5.2349  -5.2330  -5.2326
    -5.2326  -5.2323  -5.2321  -5.2321  -5.2298  -5.2298  -5.2266  -5.2266
    -5.2266  -5.2243  -5.2233  -5.2233  -5.2224  -5.2224  -5.2221  -5.2219
    -5.2181  -5.2181  -5.2174  -5.2172  -5.2172  -5.2150  -5.2150  -5.2145
    -5.2135  -5.2135  -5.2100  -5.2100  -5.2090  -5.2077  -5.2064  -5.2064
    -5.2051  -5.2051  -5.2046  -5.2044  -5.2039  -5.2039  -5.2039  -5.2019
    -5.2015  -5.2015  -5.2007  -5.2007  -5.1993  -5.1992  -5.1992  -5.1983
    -5.1981  -5.1981  -5.1981  -5.1971  -5.1965  -5.1965  -5.1960  -5.1956
    -5.1956  -5.1949  -5.1949  -5.1931  -5.1931  -5.1925  -5.1918  -5.1918
    -5.1909  -5.1908  -5.1908  -5.1895  -5.1881  -5.1881  -5.1876  -5.1876
    -5.1875  -5.1871  -5.1858  -5.1858  -5.1850  -5.1850  -5.1828  -5.1827
    -5.1827  -5.1815  -5.1811  -5.1789  -5.1789  -5.1778  -5.1778  -5.1770
    -5.1770  -5.1767  -5.1758  -5.1758  -5.1758  -5.1749  -5.1733  -5.1733
    -5.1723  -5.1709  -5.1709  -5.1667  -5.1667  -5.1664  -5.1657  -5.1631
    -5.1631  -5.1609  -5.1595  -5.1595  -5.1578  -5.1574  -5.1574  -5.1540
    -5.1540  -5.1528  -5.1528  -5.1525  -5.1513  -5.1513  -5.1500  -5.1490
    -5.1485  -5.1485  -5.1479  -5.1479  -5.1477  -5.1457  -5.1452  -5.1452
    -5.1431  -5.1420  -5.1420  -5.1413  -5.1403  -5.1403  -5.1400  -5.1400
    -5.1398  -5.1383  -5.1383  -5.1380  -5.1380  -5.1380  -5.1375  -5.1371
    -5.1353  -5.1334  -5.1334  -5.1322  -5.1322  -5.1306  -5.1306  -5.1306
    -5.1295  -5.1295  -5.1291  -5.1285  -5.1279  -5.1279  -5.1257  -5.1244
    -5.1242  -5.1242  -5.1237  -5.1237  -5.1220  -5.1220  -5.1204  -5.1204
    -5.1181  -5.1176  -5.1176  -5.1168  -5.1144  -5.1144  -5.1116  -5.1111
    -5.1111  -5.1102  -5.1097  -5.1097  -5.1091  -5.1091  -5.1067  -5.1064
    -5.1019  -5.1019  -5.1013  -5.0993  -5.0993  -5.0945  -5.0878  -5.0858
    -5.0858  -5.0848  -5.0735  -5.0726  -5.0726  -5.0681  -5.0681  -5.0589
    -5.0588  -5.0539  -5.0539  -5.0477  -5.0440  -5.0440  -5.0391  -5.0390
    -5.0366  -5.0298  -5.0258  -5.0258  -5.0196  -4.9091  -4.9050  -4.9018
    -4.9018  -4.9013  -4.8993  -4.8993  -4.8980  -4.8980  -4.8957  -4.8856
    -4.8698  -4.8698  -4.7523  -4.3712  -4.3712  -4.3689  -4.3666  -4.3610
    -4.3610  -4.3526  -4.3526  -4.3435  -4.3435  -4.3267  -4.2188  -3.8813
    -3.8638  -3.8468  -3.8468  -3.8436  -3.8436  -3.8433  -3.8396  -3.8396
    -3.8387  -3.8256  -3.8148  -3.8148  -3.7689  -3.7008  -3.7008  -3.7001
    -3.6750  -3.6750  -3.6352  -3.4885  -3.4878  -3.4878  -3.4865  -3.4856
    -3.4855  -3.4841  -3.4841  -3.4820  -3.4820  -3.4808  -3.4666  -3.4612
    -3.4612  -3.4589  -3.4539  -3.4523  -3.4518  -3.4518  -3.4506  -3.4487
    -3.4487  -3.4463  -3.4463  -3.4329  -3.4329  -3.3899  -3.3899  -3.3307
    -3.1887  -3.1822  -3.1817  -3.1817  -3.1446  -3.1446  -3.1096  -3.0288
    -3.0288  -3.0242  -3.0227  -3.0227  -3.0205  -3.0205  -3.0150  -2.9974
    -2.9281  -2.9275  -2.9275   2.2997   2.2998   2.3007   2.3133   2.3133
     2.3172   2.3283   2.3404   2.3405   2.3635   2.3635   2.3947   2.4232
     2.4395   2.8869   2.8869   2.8891   2.8897   2.8898   2.8941   2.8955
     2.9002   2.9002   2.9008   2.9008   2.9041   2.9041   2.9055   2.9055
     2.9060   2.9066   2.9097   2.9112   2.9122   2.9122   2.9144   2.9157
     2.9157   2.9180   2.9180   2.9221   2.9221   2.9258   2.9416   2.9416
     2.9598   2.9783   2.9783   3.0332   3.2148   3.2348   3.2349   3.2387
     3.2683   3.2684   3.5025   3.5659   3.5713   3.5714   3.5787   3.5788
     3.5818   3.5891   3.6022   3.6023   3.6504   3.6504   4.0505   4.1484
     4.1516   4.1539   4.1540   4.1569   4.1569   4.1749   4.1750   4.2054
     4.2054   4.2309   4.6562   4.8412   4.8528   4.8541   4.8541   4.8551
     4.8595   4.8596   4.8627   4.8627   4.8834   4.8975   4.9481   4.9481
     4.9641   5.0076   5.0090   5.0090   5.0095   5.0095   5.0161   5.0323
     5.0324   5.0367   5.0800   5.0800   5.1091   5.1135   5.1136   5.1497
     5.1497   5.1544   5.2942   5.3145   5.3145   5.3222   5.3222   5.3267
     5.3318   5.3318   5.3335   5.3770   5.3770   5.4411   5.4843   5.4911
     5.4915   5.4947   5.4947   5.5041   5.5041   5.5093   5.5143   5.5143
     5.5553   5.5768   5.5769   5.5812   5.5856   5.5857   5.6003   5.6078
     5.6078   5.6123   5.6124   5.7320   5.7781   5.7781   6.1579   6.1580
     6.1597   6.1980   6.2249   6.2249   6.4391   6.4935   6.4956   6.4956
     6.4989   6.5030   6.5090   6.5090   6.5183   6.5183   6.6074   6.6074
     6.6323   6.6869   6.6887   6.6887   6.6925   6.6927   6.6927   6.7012
     6.7012   6.7160   6.7160   6.7666   6.8085   6.8086   6.8144   6.8144
     6.8183   6.8235   6.8275   6.8435   6.8437   6.8443   6.8443   6.8541
     6.8542   6.8569   6.8569   6.8577   6.8590   6.8590   6.8599   6.8744
     6.8761   6.8761   6.8970   6.8971   6.9052   6.9053   6.9097   6.9301
     7.0197   7.0510   7.0510   7.0731   7.0731   7.0739   7.0747   7.0747
     7.0813   7.0826   7.0826   7.0876   7.0904   7.0904   7.0932   7.0947
     7.0948   7.0996   7.1052   7.1052   7.1109   7.1659   7.1659   7.2462
     7.2462   7.4148   7.4287   7.4315   7.4315   7.4325   7.4391   7.4391
     7.4418   7.4419   7.4484   7.5128   7.5129   7.5594   7.5627   7.5627
     7.6194   7.6574   7.6708   7.6709   7.6990   7.7247   7.7248   7.7834
     7.8535   7.8535   7.8965   7.9167   7.9167   7.9179   7.9247   7.9247
     7.9391   7.9391   7.9445   7.9668   7.9668   8.0156   8.0560   8.0613
     8.0614   8.0614   8.0707   8.0708   8.0717   8.0849   8.0849   8.1026
     8.1294   8.1294   8.1522   8.1523   8.4977   8.4977   8.5840   8.5841
     8.6756   8.8602   8.8602  10.9111  10.9739  12.5378  12.5600  12.6104
    12.6454  12.6548  12.6549  12.6555  12.6688  12.6689  12.6769  12.6769
    12.6813  12.7130  12.7130  12.7283  12.8653  13.0195  13.0196  13.0393
    13.0394  13.0463  13.0657  13.2405  13.2405  13.2468  13.2709  13.2710
    13.3398  13.6561  13.6683  13.6684  13.6714  13.6715  13.6764  13.6876
    13.6877  13.7079  13.7279  13.7279  13.7443  13.7488  13.7489  13.7940
    13.8667  13.8668  13.9600  14.3285  14.3315  14.3352  14.3353  14.3370
    14.3418  14.3419  14.3463  14.3464  14.3554  14.3555  14.3582  14.3596
    14.3596  14.3653  14.3795  14.3913  14.3914  14.4192  14.4192  14.4514
    14.4962  14.4963  14.5891  14.5891  14.5971  14.5972  14.5972  14.6125
    14.6290  14.6290  14.6397  14.6714  14.6714  14.7097  14.7271  14.7365
    14.7451  14.7451  14.7553  14.7617  14.7738  14.7738  14.8177  14.8178
    15.0161  15.0161  15.2290  15.5537  15.5538  15.5610  15.5610  15.5664
    15.6110  15.8804  15.8919  15.8919  15.8967  15.8967  15.8972  15.9261
    15.9261  15.9451  15.9530  15.9747  15.9747  16.0432  16.0432  16.0552
    16.0552  16.0608  16.0624  16.0726  16.0726  16.0766  16.0921  16.0932
    16.0932  16.1030  16.1101  16.1101  16.1188  16.1217  16.1217  16.1517
    16.1593  16.1594  16.1700  16.1700  16.1791  16.2005  16.2005  16.2567
    16.2611  16.2611  16.3169  16.3805  16.3806  16.3871  16.3886  16.3907
    16.3907  16.3988  16.4028  16.4028  16.4041  16.4080  16.4080  16.4159
    16.4167  16.4167  16.4208  16.4335  16.4335  16.4736  16.4794  16.4794
    16.4917  16.4917  16.5372  16.5643  16.5643  16.6072

     occupation numbers 
     1.0000   1.0000   1.0000   1.0000   1.0000   1.0000   1.0000   1.0000
     1.0000   1.0000   1.0000   1.0000   1.0000   1.0000   1.0000   1.0000
     1.0000   1.0000   1.0000   1.0000   1.0000   1.0000   1.0000   1.0000
     1.0000   1.0000   1.0000   1.0000   1.0000   1.0000   1.0000   1.0000
     1.0000   1.0000   1.0000   1.0000   1.0000   1.0000   1.0000   1.0000
     1.0000   1.0000   1.0000   1.0000   1.0000   1.0000   1.0000   1.0000
     1.0000   1.0000   1.0000   1.0000   1.0000   1.0000   1.0000   1.0000
     1.0000   1.0000   1.0000   1.0000   1.0000   1.0000   1.0000   1.0000
     1.0000   1.0000   1.0000   1.0000   1.0000   1.0000   1.0000   1.0000
     1.0000   1.0000   1.0000   1.0000   1.0000   1.0000   1.0000   1.0000
     1.0000   1.0000   1.0000   1.0000   1.0000   1.0000   1.0000   1.0000
     1.0000   1.0000   1.0000   1.0000   1.0000   1.0000   1.0000   1.0000
     1.0000   1.0000   1.0000   1.0000   1.0000   1.0000   1.0000   1.0000
     1.0000   1.0000   1.0000   1.0000   1.0000   1.0000   1.0000   1.0000
     1.0000   1.0000   1.0000   1.0000   1.0000   1.0000   1.0000   1.0000
     1.0000   1.0000   1.0000   1.0000   1.0000   1.0000   1.0000   1.0000
     1.0000   1.0000   1.0000   1.0000   1.0000   1.0000   1.0000   1.0000
     1.0000   1.0000   1.0000   1.0000   1.0000   1.0000   1.0000   1.0000
     1.0000   1.0000   1.0000   1.0000   1.0000   1.0000   1.0000   1.0000
     1.0000   1.0000   1.0000   1.0000   1.0000   1.0000   1.0000   1.0000
     1.0000   1.0000   1.0000   1.0000   1.0000   1.0000   1.0000   1.0000
     1.0000   1.0000   1.0000   1.0000   1.0000   1.0000   1.0000   1.0000
     1.0000   1.0000   1.0000   1.0000   1.0000   1.0000   1.0000   1.0000
     1.0000   1.0000   1.0000   1.0000   1.0000   1.0000   1.0000   1.0000
     1.0000   1.0000   1.0000   1.0000   1.0000   1.0000   1.0000   1.0000
     1.0000   1.0000   1.0000   1.0000   1.0000   1.0000   1.0000   1.0000
     1.0000   1.0000   1.0000   1.0000   1.0000   1.0000   1.0000   1.0000
     1.0000   1.0000   1.0000   1.0000   1.0000   1.0000   1.0000   1.0000
     1.0000   1.0000   1.0000   1.0000   1.0000   1.0000   1.0000   1.0000
     1.0000   1.0000   1.0000   1.0000   1.0000   1.0000   1.0000   1.0000
     1.0000   1.0000   1.0000   1.0000   1.0000   1.0000   1.0000   1.0000
     1.0000   1.0000   1.0000   1.0000   1.0000   1.0000   1.0000   1.0000
     1.0000   1.0000   1.0000   1.0000   1.0000   1.0000   1.0000   1.0000
     1.0000   1.0000   1.0000   1.0000   1.0000   1.0000   1.0000   1.0000
     1.0000   1.0000   1.0000   1.0000   1.0000   1.0000   1.0000   1.0000
     1.0000   1.0000   1.0000   1.0000   1.0000   1.0000   1.0000   1.0000
     1.0000   1.0000   1.0000   1.0000   1.0000   1.0000   1.0000   1.0000
     1.0000   1.0000   1.0000   1.0000   1.0000   1.0000   1.0000   1.0000
     1.0000   1.0000   1.0000   1.0000   1.0000   1.0000   1.0000   1.0000
     1.0000   1.0000   1.0000   1.0000   1.0000   1.0000   1.0000   1.0000
     1.0000   1.0000   1.0000   1.0000   1.0000   1.0000   1.0000   1.0000
     1.0000   1.0000   1.0000   1.0000   1.0000   1.0000   1.0000   1.0000
     1.0000   1.0000   1.0000   1.0000   1.0000   1.0000   1.0000   1.0000
     1.0000   1.0000   1.0000   1.0000   1.0000   1.0000   1.0000   1.0000
     1.0000   1.0000   1.0000   1.0000   1.0000   1.0000   1.0000   1.0000
     1.0000   1.0000   1.0000   1.0000   1.0000   1.0000   1.0000   1.0000
     1.0000   1.0000   1.0000   1.0000   1.0000   1.0000   1.0000   1.0000
     1.0000   1.0000   1.0000   1.0000   1.0000   1.0000   1.0000   1.0000
     1.0000   1.0000   1.0000   1.0000   1.0000   1.0000   1.0000   1.0000
     1.0000   1.0000   1.0000   1.0000   1.0000   1.0000   1.0000   1.0000
     1.0000   1.0000   1.0000   1.0000   1.0000   1.0000   1.0000   1.0000
     1.0000   1.0000   1.0000   1.0000   1.0000   1.0000   1.0000   1.0000
     1.0000   1.0000   1.0000   1.0000   1.0000   1.0000   1.0000   1.0000
     1.0000   1.0000   1.0000   1.0000   1.0000   1.0000   1.0000   1.0000
     1.0000   1.0000   1.0000   1.0000   1.0000   1.0000   1.0000   1.0000
     1.0000   1.0000   1.0000   1.0000   1.0000   1.0000   1.0000   1.0000
     1.0000   1.0000   1.0000   1.0000   1.0000   1.0000   1.0000   1.0000
     1.0000   1.0000   1.0000   1.0000   1.0000   1.0000   1.0000   1.0000
     1.0000   1.0000   1.0000   1.0000   1.0000   1.0000   1.0000   1.0000
     1.0000   1.0000   1.0000   1.0000   1.0000   1.0000   1.0000   1.0000
     1.0000   1.0000   1.0000   1.0000   1.0000   1.0000   1.0000   1.0000
     1.0000   1.0000   1.0000   1.0000   1.0000   1.0000   1.0000   1.0000
     1.0000   1.0000   1.0000   1.0000   1.0000   1.0000   1.0000   1.0000
     1.0000   1.0000   1.0000   1.0000   1.0000   1.0000   1.0000   1.0000
     1.0000   1.0000   1.0000   1.0000   1.0000   1.0000   1.0000   1.0000
     1.0000   1.0000   1.0000   1.0000   1.0000   1.0000   1.0000   1.0000
     1.0000   1.0000   1.0000   1.0000   1.0000   1.0000   1.0000   1.0000
     1.0000   1.0000   1.0000   1.0000   1.0000   1.0000   1.0000   1.0000
     1.0000   1.0000   1.0000   1.0000   1.0000   1.0000   1.0000   1.0000
     1.0000   1.0000   1.0000   1.0000   1.0000   1.0000   1.0000   1.0000
     1.0000   1.0000   1.0000   1.0000   1.0000   1.0000   1.0000   1.0000
     1.0000   1.0000   1.0000   1.0000   1.0000   1.0000   1.0000   1.0000
     1.0000   1.0000   1.0000   1.0000   1.0000   1.0000   1.0000   1.0000
     1.0000   1.0000   1.0000   1.0000   1.0000   1.0000   1.0000   1.0000
     1.0000   1.0000   1.0000   1.0000   1.0000   1.0000   1.0000   1.0000
[...]



     -----------------------------------------------
     Non-local corr. energy    =      51.87578133 Ry
     -----------------------------------------------

          total   stress  (Ry/bohr**3)                   (kbar)     P=        2.48
   0.00001201  -0.00000000   0.00000000            1.77       -0.00        0.00
  -0.00000000   0.00001201   0.00000000           -0.00        1.77        0.00
   0.00000000  -0.00000000   0.00002657            0.00       -0.00        3.91

     kinetic stress (kbar)  18330.82     -0.00      0.00
                                0.00  18330.82      0.00
                                0.00      0.00  18331.80

     local   stress (kbar)   4882.05     -0.07     -0.00
                               -0.07   4881.96     -0.00
                               -0.00     -0.00   3297.10

     nonloc. stress (kbar)     61.40      0.00      0.00
                                0.00     61.40      0.00
                                0.00      0.00     70.26

     hartree stress (kbar)  19629.40     -0.00     -0.00
                               -0.00  19629.40      0.00
                               -0.00      0.00  20346.88

     exc-cor stress (kbar)   5154.27      0.00     -0.00
                                0.00   5154.27      0.00
                               -0.00      0.00   5154.72

     corecor stress (kbar) -13969.73     -0.00     -0.00
                               -0.00 -13969.73      0.00
                               -0.00      0.00 -13969.33

     ewald   stress (kbar) -34247.09      0.09      0.00
                                0.09 -34246.97     -0.00
                                0.00     -0.00 -33387.28

     hubbard stress (kbar)      0.00      0.00      0.00
                                0.00      0.00      0.00
                                0.00      0.00      0.00

     DFT-D   stress (kbar)      0.00      0.00      0.00
                                0.00      0.00      0.00
                                0.00      0.00      0.00

     XDM     stress (kbar)      0.00      0.00      0.00
                                0.00      0.00      0.00
                                0.00      0.00      0.00

     dft-nl  stress (kbar)    160.65     -0.00     -0.00
                               -0.00    160.65     -0.00
                               -0.00     -0.00    159.77

     TS-vdW  stress (kbar)      0.00      0.00      0.00
                                0.00      0.00      0.00
                                0.00      0.00      0.00

     MDB     stress (kbar)      0.00      0.00      0.00
                                0.00      0.00      0.00
                                0.00      0.00      0.00

     3D-RISM stress (kbar)      0.00      0.00      0.00
                                0.00      0.00      0.00
                                0.00      0.00      0.00


     BFGS Geometry Optimization
     Energy error            =      0.0E+00 Ry
     Gradient error          =      8.3E-04 Ry/Bohr

     bfgs converged in   1 scf cycles and   0 bfgs steps
     (criteria: energy <  1.0E-04 Ry, force <  1.0E-03 Ry/Bohr)

     End of BFGS Geometry Optimization

     Final energy             =  -29696.0166457466 Ry
Begin final coordinates

ATOMIC_POSITIONS (angstrom)
Ga            1.6222756606        0.9366198184        7.9005997724
Ga            1.6222756606        0.9366198184       13.2124771968
Ga            0.0187943458        3.7377289482        2.6518064160
Ga           -0.0018754190        3.7487729583        7.9249012097
Ga            0.0019085662        3.7457221903       13.2130538715
Ga           -1.6128904897        6.5617593789        2.6480573847
Ga           -1.6226575109        6.5561203865        7.9271496652
Ga           -1.6224131578        6.5562614639       13.2180418662
Ga           -3.2427301658        9.3868551126        2.6518064160
Ga           -3.2435006549        9.3634325662        7.9249012097
Ga           -3.2442507050        9.3682349775       13.2130538715
Ga            4.8498479831        0.9247208066        2.6518064160
Ga            4.8697472589        0.9370993430        7.9249012097
Ga            4.8652132236        0.9353476997       13.2130538715
Ga            3.2257569754        3.7377289482        2.6518064160
Ga            3.2464267402        3.7487729583        7.9249012097
Ga            3.2426427550        3.7457221903       13.2130538715
Ga            1.6222756606        6.5585635306        2.6424889877
Ga            1.6222756606        6.5570417854        7.9289582539
Ga            1.6222756606        6.5558738752       13.2153413494
Ga            0.0019248997        9.3650933746        2.6424889877
Ga            0.0006070297        9.3658542472        7.9289582539
Ga           -0.0004044102        9.3664382023       13.2153413494
Ga            8.1113724947        0.9257861099        2.6480573847
Ga            8.1113724947        0.9370640945        7.9271496652
Ga            8.1113724947        0.9367819399       13.2180418662
Ga            6.4848492559        3.7440279927        2.6387456006
Ga            6.4891336350        3.7465015801        7.9263250529
Ga            6.4876696741        3.7456563619       13.2180371534
Ga            4.8574418109        6.5617593789        2.6480573847
Ga            4.8672088321        6.5561203865        7.9271496652
Ga            4.8669644790        6.5562614639       13.2180418662
Ga            3.2426264215        9.3650933746        2.6424889877
Ga            3.2439442915        9.3658542472        7.9289582539
Ga            3.2449557314        9.3664382023       13.2153413494
Ga           11.3728970064        0.9247208066        2.6518064160
Ga           11.3529977306        0.9370993430        7.9249012097
Ga           11.3575317659        0.9353476997       13.2130538715
Ga            9.7378957336        3.7440279927        2.6387456006
Ga            9.7336113545        3.7465015801        7.9263250529
Ga            9.7350753154        3.7456563619       13.2180371534
Ga            8.1113724947        6.5612488822        2.6387456006
Ga            8.1113724947        6.5563017073        7.9263250529
Ga            8.1113724947        6.5579921438       13.2180371534
Ga            6.4872814870        9.3868551126        2.6518064160
Ga            6.4880519761        9.3634325662        7.9249012097
Ga            6.4888020262        9.3682349775       13.2130538715
Ga            0.0002883013        1.8730748613        5.2591343806
Ga            0.0024396260        1.8718327934       10.5637412202
Ga            0.0058965897        1.8698369145       15.8814507287
Ga           -1.6229370064        4.6840705079        5.2832809880
Ga           -1.6222892387        4.6830169340       10.5711694594
Ga           -1.6170780596        4.6796177472       15.8633816470
Ga           -3.2440436045        7.4919095003        5.2832809880
Ga           -3.2446321424        7.4929972706       10.5711694594
Ga           -3.2449703349        7.4992098774       15.8633816470
Ga           -4.8668245904       10.3031616761        5.2591343806
Ga           -4.8668245904       10.3056458120       10.5637412202
Ga           -4.8668245904       10.3096375698       15.8814507287
Ga            3.2442561862        1.8730748613        5.2591343806
Ga            3.2421048615        1.8718327934       10.5637412202
Ga            3.2386478978        1.8698369145       15.8814507287
Ga            1.6222722437        4.6838256908        5.2892811171
Ga            1.6222722437        4.6829281264       10.5686408195
Ga            1.6222722437        4.6824923004       15.8589997089
Ga            0.0010990282        7.4936008113        5.2867675481
Ga           -0.0002896268        7.4927990710       10.5719478114
Ga           -0.0003136583        7.4927851964       15.8603849762
Ga           -1.6216509972       10.3024655601        5.2892811171
Ga           -1.6224283107       10.3029143423       10.5686408195
Ga           -1.6228057471       10.3031322553       15.8589997089
Ga            6.4902624798        1.8733313906        5.2832809880
Ga            6.4890261741        1.8732971942       10.5711694594
Ga            6.4834768025        1.8704837741       15.8633816470
Ga            4.8674814939        4.6840705079        5.2832809880
Ga            4.8668337262        4.6830169340       10.5711694594
Ga            4.8616225471        4.6796177472       15.8633816470
Ga            3.2434454593        7.4936008113        5.2867675481
Ga            3.2448341143        7.4927990710       10.5719478114
Ga            3.2448581458        7.4927851964       15.8603849762
Ga            1.6222722437       10.3015551885        5.2867675481
Ga            1.6222722437       10.3031586691       10.5719478114
Ga            1.6222722437       10.3031864183       15.8603849762
Ga            9.7324756759        1.8733313906        5.2832809880
Ga            9.7337119816        1.8732971942       10.5711694594
Ga            9.7392613532        1.8704837741       15.8633816470
Ga            8.1113690779        4.6831037996        5.2806246874
Ga            8.1113690779        4.6831037996       10.5716917414
Ga            8.1113690779        4.6831037996       15.8600086123
Ga            6.4885880919        7.4919095003        5.2832809880
Ga            6.4891766298        7.4929972706       10.5711694594
Ga            6.4895148223        7.4992098774       15.8633816470
Ga            4.8661954847       10.3024655601        5.2892811171
Ga            4.8669727982       10.3029143423       10.5686408195
Ga            4.8673502346       10.3031322553       15.8589997089
N             1.6222756606        0.9366198184        4.8173105390
N             1.6222756606        0.9366198184        9.9055900781
N             1.6222756606        0.9366198184       15.2061138702
N            -0.0007253573        3.7553788347        4.6366478529
N            -0.0003443638        3.7473957568        9.9173510758
N             0.0034767100        3.7496711375       15.1989820451
N            -1.6199581818        6.5576788449        4.6342448655
N            -1.6223201137        6.5563151829        9.9189771303
N            -1.6230888147        6.5558713731       15.2094600311
N            -3.2372047674        9.3611256106        4.6366478529
N            -3.2439278188        9.3654470996        9.9173510758
N            -3.2400467444        9.3676185562       15.1989820451
N             4.8748930848        0.9328004222        4.6366478529
N             4.8677890397        0.9364620111        9.9173510758
N             4.8678490403        0.9320151737       15.1989820451
N             3.2452766785        3.7553788347        4.6366478529
N             3.2448956850        3.7473957568        9.9173510758
N             3.2410746112        3.7496711375       15.1989820451
N             1.6222756606        6.5572767700        4.6337615421
N             1.6222756606        6.5568995023        9.9194105435
N             1.6222756606        6.5574692256       15.2071089100
N             0.0008105323        9.3657367549        4.6337615421
N             0.0004838089        9.3659253888        9.9194105435
N             0.0009772038        9.3656405271       15.2071089100
N             8.1113724947        0.9339471777        4.6342448655
N             8.1113724947        0.9366745018        9.9189771303
N             8.1113724947        0.9375621213       15.2094600311
N             6.4885063292        3.7461394049        4.6297429708
N             6.4890603455        3.7464592664        9.9187664014
N             6.4867946381        3.7451511597       15.2106851212
N             4.8645095030        6.5576788449        4.6342448655
N             4.8668714349        6.5563151829        9.9189771303
N             4.8676401359        6.5558713731       15.2094600311
N             3.2437407889        9.3657367549        4.6337615421
N             3.2440675123        9.3659253888        9.9194105435
N             3.2435741174        9.3656405271       15.2071089100
N            11.3478519047        0.9328004222        4.6366478529
N            11.3549559497        0.9364620111        9.9173510758
N            11.3548959492        0.9320151737       15.1989820451
N             9.7342386603        3.7461394049        4.6297429708
N             9.7336846440        3.7464592664        9.9187664014
N             9.7359503514        3.7451511597       15.2106851212
N             8.1113724947        6.5570260577        4.6297429708
N             8.1113724947        6.5563863347        9.9187664014
N             8.1113724947        6.5590025483       15.2106851212
N             6.4817560886        9.3611256106        4.6366478529
N             6.4884791400        9.3654470996        9.9173510758
N             6.4845980656        9.3676185562       15.1989820451
N            -0.1528419637        1.9614846610        1.9364477877
N            -0.0105778474        1.8793484352        7.2808458040
N             0.0005482821        1.8729247613       12.5576277286
N            -1.6270315921        4.6951735367        1.9892541540
N            -1.6239102569        4.6849137070        7.2743828540
N            -1.6221022827        4.6830971218       12.5628880391
N            -3.2364753923        7.4828119707        1.9892541540
N            -3.2437999979        7.4906450411        7.2743828540
N            -3.2444692198        7.4931190853       12.5628880391
N            -4.8668245904       10.1263420767        1.9364477877
N            -4.8668245904       10.2906145283        7.2808458040
N            -4.8668245904       10.3034618761       12.5576277286
N             3.3973864512        1.9614846610        1.9364477877
N             3.2551223349        1.8793484352        7.2808458040
N             3.2439962054        1.8729247613       12.5576277286
N             1.6222722437        4.6922870504        1.9871597558
N             1.6222722437        4.6846436220        7.2786105259
N             1.6222722437        4.6836370759       12.5584810087
N             0.0027697944        7.4945654286        1.9880583672
N             0.0002223280        7.4930946482        7.2770535883
N            -0.0003869291        7.4927428935       12.5633480281
N            -1.6143232448       10.2982348803        1.9871597558
N            -1.6209426480       10.3020565945        7.2786105259
N            -1.6218143425       10.3025598676       12.5584810087
N             6.5019252776        1.8713258914        1.9892541540
N             6.4914793369        1.8737526507        7.2743828540
N             6.4890021408        1.8730951917       12.5628880391
N             4.8715760796        4.6951735367        1.9892541540
N             4.8684547444        4.6849137070        7.2743828540
N             4.8666467702        4.6830971218       12.5628880391
N             3.2417746931        7.4945654286        1.9880583672
N             3.2443221595        7.4930946482        7.2770535883
N             3.2449314166        7.4927428935       12.5633480281
N             1.6222722437       10.2996259539        1.9880583672
N             1.6222722437       10.3025675146        7.2770535883
N             1.6222722437       10.3032710242       12.5633480281
N             9.7208128781        1.8713258914        1.9892541540
N             9.7312588188        1.8737526507        7.2743828540
N             9.7337360149        1.8730951917       12.5628880391
N             8.1113690779        4.6831037996        1.9884136898
N             8.1113690779        4.6831037996        7.2736074315
N             8.1113690779        4.6831037996       12.5652274821
N             6.4810198797        7.4828119707        1.9892541540
N             6.4883444853        7.4906450411        7.2743828540
N             6.4890137072        7.4931190853       12.5628880391
N             4.8588677323       10.2982348803        1.9871597558
N             4.8654871355       10.3020565945        7.2786105259
N             4.8663588300       10.3025598676       12.5584810087
End final coordinates



     Writing all to output data dir ./GaN.save/
 
     init_run     :     24.57s CPU     34.98s WALL (       1 calls)
     electrons    :   1320.16s CPU   1335.44s WALL (       1 calls)
     forces       :     10.02s CPU     10.22s WALL (       1 calls)
     stress       :    170.54s CPU    172.30s WALL (       1 calls)

     Called by init_run:
     wfcinit      :     21.22s CPU     31.39s WALL (       1 calls)
     wfcinit:atom :      0.08s CPU      0.08s WALL (       1 calls)
     wfcinit:wfcr :     20.24s CPU     30.17s WALL (       1 calls)
     potinit      :      1.01s CPU      1.09s WALL (       1 calls)
     hinit0       :      1.13s CPU      1.23s WALL (       1 calls)

     Called by electrons:
     c_bands      :   1311.26s CPU   1325.90s WALL (       2 calls)
     sum_band     :      6.80s CPU      6.96s WALL (       2 calls)
     v_of_rho     :      1.22s CPU      1.30s WALL (       2 calls)
     v_h          :      0.01s CPU      0.01s WALL (       2 calls)
     v_xc         :      2.25s CPU      2.36s WALL (       4 calls)
     newd         :      0.24s CPU      0.25s WALL (       2 calls)
     PAW_pot      :      0.55s CPU      0.56s WALL (       2 calls)
     mix_rho      :      0.00s CPU      0.00s WALL (       2 calls)
     vdW_kernel   :      0.16s CPU      0.17s WALL (       1 calls)

     Called by c_bands:
     init_us_2    :      0.33s CPU      0.42s WALL (       5 calls)
     init_us_2:cp :      0.33s CPU      0.42s WALL (       5 calls)
     cegterg      :    772.69s CPU    783.29s WALL (       3 calls)

     Called by sum_band:
     sum_band:wei :      0.01s CPU      0.01s WALL (       2 calls)
     sum_band:loo :      6.42s CPU      6.49s WALL (       2 calls)
     sum_band:buf :      0.00s CPU      0.00s WALL (       2 calls)
     sum_band:ini :      0.21s CPU      0.21s WALL (       2 calls)
     sum_band:cal :      3.86s CPU      3.89s WALL (       2 calls)
     sum_band:bec :      0.05s CPU      0.05s WALL (       2 calls)
     addusdens    :      0.24s CPU      0.26s WALL (       2 calls)
     addusd:skk   :      0.04s CPU      0.04s WALL (       4 calls)
     addusd:dgemm :      0.08s CPU      0.10s WALL (       4 calls)
     addusd:qvan2 :      0.03s CPU      0.03s WALL (       4 calls)

     Called by *egterg:
     cdiaghg      :    526.61s CPU    540.56s WALL (      52 calls)
     cegterg:over :     55.88s CPU     57.45s WALL (      51 calls)
     cegterg:upda :     34.70s CPU     35.25s WALL (      51 calls)
     cegterg:last :     31.17s CPU     31.42s WALL (       6 calls)
     h_psi        :    101.67s CPU    103.45s WALL (      55 calls)
     s_psi        :     31.39s CPU     32.12s WALL (      55 calls)
     g_psi        :      0.17s CPU      0.17s WALL (      51 calls)

     Called by h_psi:
     h_psi:calbec :     33.46s CPU     33.75s WALL (      55 calls)
     vloc_psi     :     36.12s CPU     36.55s WALL (      55 calls)
     add_vuspsi   :     31.47s CPU     32.24s WALL (      55 calls)

     General routines
     calbec       :     47.00s CPU     47.39s WALL (      62 calls)
     fft          :      1.06s CPU      1.09s WALL (     294 calls)
     ffts         :      0.02s CPU      0.02s WALL (       4 calls)
     fftw         :     35.95s CPU     36.35s WALL (   35734 calls)
     interpolate  :      0.01s CPU      0.01s WALL (       2 calls)
 
     Parallel routines

     PAW routines
     PAW_pot      :      0.55s CPU      0.56s WALL (       2 calls)
     PAW_symme    :      0.01s CPU      0.01s WALL (       3 calls)
 
     PWSCF        :  25m27.78s CPU  26m 1.84s WALL

 
   This run was terminated on:  14:23:15  12Feb2024            

=------------------------------------------------------------------------------=
   JOB DONE.
=------------------------------------------------------------------------------=
