
     Program PWSCF v.7.1 starts on 12Feb2024 at  8:16:21 

     This program is part of the open-source Quantum ESPRESSO suite
     for quantum simulation of materials; please cite
         "P. Giannozzi et al., J. Phys.:Condens. Matter 21 395502 (2009);
         "P. Giannozzi et al., J. Phys.:Condens. Matter 29 465901 (2017);
         "P. Giannozzi et al., J. Chem. Phys. 152 154105 (2020);
          URL http://www.quantum-espresso.org", 
     in publications or presentations arising from this work. More details at
     http://www.quantum-espresso.org/quote

     Parallel version (MPI & OpenMP), running on     128 processor cores
     Number of MPI processes:               128
     Threads/MPI process:                     1

     MPI processes distributed on     1 nodes
     1935043 MiB available memory on the printing compute node when the environment starts
 
     Reading input from espresso.pwi

     Current dimensions of program PWSCF are:
     Max number of different atomic species (ntypx) = 10
     Max number of k-points (npk) =  40000
     Max angular momentum in pseudopotentials (lmaxx) =  4
     file Pb.pbe-dn-kjpaw_psl.1.0.0.UPF: wavefunction(s)  6S 6P 5D renormalized
     file I.pbe-dn-kjpaw_psl.1.0.0.UPF: wavefunction(s)  5S 5P renormalized

     **************************************************************************
     Initializing libbeef V0.1.2 with the BEEF-vdW functional.
     Citation: Wellendorff et al., PRB 85, 235149 (2012).
     **************************************************************************


     IMPORTANT: XC functional enforced from input :
     Exchange-correlation= BEEF-VDW
                           (   1   4  43  14   2   0   0)
     Any further DFT definition will be discarded
     Please, verify this is what you really want

 
     K-points division:     npool     =       4
     R & G space division:  proc/nbgrp/npool/nimage =      32
     Subspace diagonalization in iterative solution of the eigenvalue problem:
     a serial algorithm will be used

 
     Parallelization info
     --------------------
     sticks:   dense  smooth     PW     G-vecs:    dense   smooth      PW
     Min          56      46     13                 3106     2232     329
     Max          57      47     14                 3117     2235     332
     Sum        1813    1483    421                99597    71479   10575
 
     Using Slab Decomposition
 


     bravais-lattice index     =            4
     lattice parameter (alat)  =       8.7168  a.u.
     unit-cell volume          =     902.4058 (a.u.)^3
     number of atoms/cell      =            3
     number of atomic types    =            2
     number of electrons       =        48.00
     number of Kohn-Sham states=           29
     kinetic-energy cutoff     =      70.0000  Ry
     charge density cutoff     =     350.0000  Ry
     scf convergence threshold =      1.0E-07
     mixing beta               =       0.7000
     number of iterations used =            8  plain     mixing
     energy convergence thresh.=      1.0E-04
     force convergence thresh. =      1.0E-03
     press convergence thresh. =      5.0E-01
     Exchange-correlation= BEEF-VDW
                           (   1   4  43  14   2   0   0)
     nstep                     =           50


     celldm(1)=   8.716793  celldm(2)=   0.000000  celldm(3)=   1.573262
     celldm(4)=   0.000000  celldm(5)=   0.000000  celldm(6)=   0.000000

     crystal axes: (cart. coord. in units of alat)
               a(1) = (   1.000000   0.000000   0.000000 )  
               a(2) = (  -0.500000   0.866025   0.000000 )  
               a(3) = (   0.000000   0.000000   1.573262 )  

     reciprocal axes: (cart. coord. in units 2 pi/alat)
               b(1) = (  1.000000  0.577350 -0.000000 )  
               b(2) = (  0.000000  1.154701  0.000000 )  
               b(3) = (  0.000000 -0.000000  0.635622 )  


     PseudoPot. # 1 for Pb read from file:
     /trace/group/acmegroup/atimmins/packages/espresso/pseudo/psl_1.0.0/pslibrary.1.0.0/pbe/PSEUDOPOTENTIALS/Pb.pbe-dn-kjpaw_psl.1.0.0.UPF
     MD5 check sum: 39ab5b8a6bbd56b7735ad9f188aac93a
     Pseudo is Projector augmented-wave + core cor, Zval = 14.0
     Generated using 'atomic' code by A. Dal Corso  v.7.1
     Shape of augmentation charge: PSQ
     Using radial grid of 1281 points,  6 beta functions with: 
                l(1) =   0
                l(2) =   0
                l(3) =   1
                l(4) =   1
                l(5) =   2
                l(6) =   2
     Q(r) pseudized with 0 coefficients 


     PseudoPot. # 2 for I  read from file:
     /trace/group/acmegroup/atimmins/packages/espresso/pseudo/psl_1.0.0/pslibrary.1.0.0/pbe/PSEUDOPOTENTIALS/I.pbe-dn-kjpaw_psl.1.0.0.UPF
     MD5 check sum: bfa8781bc1224d19af3f3980e3fab11e
     Pseudo is Projector augmented-wave + core cor, Zval = 17.0
     Generated using 'atomic' code by A. Dal Corso  v.7.1
     Shape of augmentation charge: PSQ
     Using radial grid of 1247 points,  6 beta functions with: 
                l(1) =   0
                l(2) =   0
                l(3) =   1
                l(4) =   1
                l(5) =   2
                l(6) =   2
     Q(r) pseudized with 0 coefficients 


     atomic species   valence    mass     pseudopotential
        Pb            14.00   207.20000     Pb( 1.00)
        I             17.00   126.90447     I ( 1.00)

     No symmetry found


                                    s                        frac. trans.

      isym =  1     identity                                     

 cryst.   s( 1) = (     1          0          0      )
                  (     0          1          0      )
                  (     0          0          1      )

 cart.    s( 1) = (  1.0000000  0.0000000  0.0000000 )
                  (  0.0000000  1.0000000  0.0000000 )
                  (  0.0000000  0.0000000  1.0000000 )


     point group C_1 (1)    
     there are  1 classes
     the character table:

       E    
A      1.00

     the symmetry operations in each class and the name of the first element:

     E        1
          identity                                               

   Cartesian axes

     site n.     atom                  positions (alat units)
         1           Pb  tau(   1) = (   0.4999919   0.8659920  -0.0000128  )
         2           I   tau(   2) = (   0.5000218   0.2886270   1.1657005  )
         3           I   tau(   3) = (  -0.0000197   0.5773387   0.4075485  )

   Crystallographic axes

     site n.     atom                  positions (cryst. coord.)
         1           Pb  tau(   1) = (  0.9999726  0.9999614 -0.0000081  )
         2           I   tau(   2) = (  0.6666607  0.3332778  0.7409450  )
         3           I   tau(   3) = (  0.3333070  0.6666534  0.2590469  )

     number of k points=    20  Gaussian smearing, width (Ry)=  0.0100
                       cart. coord. in units 2pi/alat
        k(    1) = (   0.0000000   0.0000000   0.0000000), wk =   0.0625000
        k(    2) = (   0.0000000   0.0000000  -0.3178111), wk =   0.0625000
        k(    3) = (   0.0000000   0.2886751   0.0000000), wk =   0.1250000
        k(    4) = (   0.0000000   0.2886751  -0.3178111), wk =   0.1250000
        k(    5) = (   0.0000000  -0.5773503   0.0000000), wk =   0.0625000
        k(    6) = (   0.0000000  -0.5773503  -0.3178111), wk =   0.0625000
        k(    7) = (   0.2500000   0.4330127   0.0000000), wk =   0.1250000
        k(    8) = (   0.2500000   0.4330127  -0.3178111), wk =   0.1250000
        k(    9) = (  -0.2500000   0.1443376   0.0000000), wk =   0.1250000
        k(   10) = (   0.2500000   0.1443376   0.0000000), wk =   0.1250000
        k(   11) = (  -0.2500000   0.1443376  -0.3178111), wk =   0.1250000
        k(   12) = (   0.2500000   0.1443376  -0.3178111), wk =   0.1250000
        k(   13) = (   0.5000000  -0.2886751   0.0000000), wk =   0.0625000
        k(   14) = (  -0.5000000  -0.2886751   0.0000000), wk =   0.0625000
        k(   15) = (   0.5000000  -0.2886751  -0.3178111), wk =   0.0625000
        k(   16) = (  -0.5000000  -0.2886751  -0.3178111), wk =   0.0625000
        k(   17) = (  -0.2500000   0.4330127   0.0000000), wk =   0.1250000
        k(   18) = (   0.5000000   0.0000000   0.0000000), wk =   0.1250000
        k(   19) = (  -0.2500000   0.4330127   0.3178111), wk =   0.1250000
        k(   20) = (   0.5000000   0.0000000  -0.3178111), wk =   0.1250000

                       cryst. coord.
        k(    1) = (   0.0000000   0.0000000   0.0000000), wk =   0.0625000
        k(    2) = (   0.0000000   0.0000000  -0.5000000), wk =   0.0625000
        k(    3) = (   0.0000000   0.2500000   0.0000000), wk =   0.1250000
        k(    4) = (   0.0000000   0.2500000  -0.5000000), wk =   0.1250000
        k(    5) = (   0.0000000  -0.5000000   0.0000000), wk =   0.0625000
        k(    6) = (   0.0000000  -0.5000000  -0.5000000), wk =   0.0625000
        k(    7) = (   0.2500000   0.2500000   0.0000000), wk =   0.1250000
        k(    8) = (   0.2500000   0.2500000  -0.5000000), wk =   0.1250000
        k(    9) = (  -0.2500000   0.2500000   0.0000000), wk =   0.1250000
        k(   10) = (   0.2500000   0.0000000   0.0000000), wk =   0.1250000
        k(   11) = (  -0.2500000   0.2500000  -0.5000000), wk =   0.1250000
        k(   12) = (   0.2500000   0.0000000  -0.5000000), wk =   0.1250000
        k(   13) = (   0.5000000  -0.5000000   0.0000000), wk =   0.0625000
        k(   14) = (  -0.5000000  -0.0000000   0.0000000), wk =   0.0625000
        k(   15) = (   0.5000000  -0.5000000  -0.5000000), wk =   0.0625000
        k(   16) = (  -0.5000000  -0.0000000  -0.5000000), wk =   0.0625000
        k(   17) = (  -0.2500000   0.5000000   0.0000000), wk =   0.1250000
        k(   18) = (   0.5000000  -0.2500000   0.0000000), wk =   0.1250000
        k(   19) = (  -0.2500000   0.5000000   0.5000000), wk =   0.1250000
        k(   20) = (   0.5000000  -0.2500000  -0.5000000), wk =   0.1250000

     Dense  grid:    99597 G-vectors     FFT dimensions: (  54,  54,  81)

     Smooth grid:    71479 G-vectors     FFT dimensions: (  48,  48,  75)

     Dynamical RAM for                 wfc:       0.12 MB

     Dynamical RAM for     wfc (w. buffer):       0.74 MB

     Dynamical RAM for           str. fact:       0.10 MB

     Dynamical RAM for           local pot:       0.00 MB

     Dynamical RAM for          nlocal pot:       0.23 MB

     Dynamical RAM for                qrad:       6.01 MB

     Dynamical RAM for          rho,v,vnew:       0.34 MB

     Dynamical RAM for               rhoin:       0.11 MB

     Dynamical RAM for            rho*nmix:       0.76 MB

     Dynamical RAM for           G-vectors:       0.20 MB

     Dynamical RAM for          h,s,v(r/c):       0.62 MB

     Dynamical RAM for          <psi|beta>:       0.02 MB

     Dynamical RAM for                 psi:       0.49 MB

     Dynamical RAM for                hpsi:       0.49 MB

     Dynamical RAM for                spsi:       0.49 MB

     Dynamical RAM for      wfcinit/wfcrot:       0.27 MB

     Dynamical RAM for           addusdens:       2.27 MB

     Dynamical RAM for          addusforce:       2.29 MB

     Dynamical RAM for         addusstress:       2.40 MB

     Estimated static dynamical RAM per process >       8.20 MB

     Estimated max dynamical RAM per process >      11.36 MB

     Estimated total dynamical RAM >       1.35 GB

     Check: negative core charge=   -0.000001

     Initial potential from superposition of free atoms

     starting charge      47.9975, renormalised to      48.0000


     %%%%%%%%%%%%%%%%%%%%%%%%%%%%%%%%%%%%%%%%%%%%%%%%%%%%%%%%%%%%%%%%%%%%%%%%
     %                                                                      %
     % You are using vdW-DF, which was implemented by the Thonhauser group. %
     % Please cite the following two papers that made this development      %
     % possible and the two reviews that describe the various versions:     %
     %                                                                      %
     %   T. Thonhauser et al., PRL 115, 136402 (2015).                      %
     %   T. Thonhauser et al., PRB 76, 125112 (2007).                       %
     %   K. Berland et al., Rep. Prog. Phys. 78, 066501 (2015).             %
     %   D.C. Langreth et al., J. Phys.: Condens. Matter 21, 084203 (2009). %
     %                                                                      %
     % If you are calculating stress with vdW-DF, please also cite:         %
     %                                                                      %
     %   R. Sabatini et al., J. Phys.: Condens. Matter 24, 424209 (2012).   %
     %                                                                      %
     %%%%%%%%%%%%%%%%%%%%%%%%%%%%%%%%%%%%%%%%%%%%%%%%%%%%%%%%%%%%%%%%%%%%%%%%

     %%%%%%%%%%%%%%%%%%%%%%%%%%%%%%%%%%%%%%%%%%%%%%%%%%%%%%%%%%%%%%%%%%%%%%%%
     %                                                                      %
     %  vdW-DF NEWS:                                                        %
     %                                                                      %
     %  * vdW-DF3 is now available. DOI: 10.1021/acs.jctc.0c00471           %
     %    use with input_dft = 'vdW-DF3-opt1' or 'vdW-DF3-opt2'             %
     %                                                                      %
     %  * Unscreened and range-separated vdW-DF hybrid functionals          %
     %    DOI: 10.1063/1.4986522 and 10.1088/1361-648X/ac2ad2               %
     %    use with input_dft = 'vdW-DF-cx0' (etc) and 'vdW-DF-ahcx'         %
     %                                                                      %
     %%%%%%%%%%%%%%%%%%%%%%%%%%%%%%%%%%%%%%%%%%%%%%%%%%%%%%%%%%%%%%%%%%%%%%%%


     Carrying out vdW-DF run using the following parameters:
     Nqs    =  20  Npoints =  1024  r_max =  100.000
     q_mesh =  0.00001000  0.04494208  0.09755937  0.15916263
               0.23128650  0.31572767  0.41458969  0.53033537
               0.66584808  0.82450364  1.01025438  1.22772762
               1.48234092  1.78043706  2.12944203  2.53805004
               3.01644009  3.57652955  4.23227104  5.00000000


     -----------------------------------------------
     Non-local corr. energy    =       1.42382292 Ry
     -----------------------------------------------

     Starting wfcs are   27 randomized atomic wfcs +    2 random wfcs
     Checking if some PAW data can be deallocated... 
       PAW data deallocated on   85 nodes for type:  1
       PAW data deallocated on   43 nodes for type:  2

     total cpu time spent up to now is        1.3 secs

     Self-consistent Calculation

     iteration #  1     ecut=    70.00 Ry     beta= 0.70
     Davidson diagonalization with overlap

---- Real-time Memory Report at c_bands before calling an iterative solver
           156 MiB given to the printing process from OS
             0 MiB allocation reported by mallinfo(arena+hblkhd)
       1929958 MiB available memory on the node where the printing process lives
------------------
     ethr =  1.00E-02,  avg # of iterations =  7.0

     Threshold (ethr) on eigenvalues was too large:
     Diagonalizing with lowered threshold

     Davidson diagonalization with overlap

---- Real-time Memory Report at c_bands before calling an iterative solver
           158 MiB given to the printing process from OS
             0 MiB allocation reported by mallinfo(arena+hblkhd)
       1929956 MiB available memory on the node where the printing process lives
------------------
     ethr =  1.83E-04,  avg # of iterations =  8.0


     -----------------------------------------------
     Non-local corr. energy    =       1.43453009 Ry
     -----------------------------------------------


     total cpu time spent up to now is        2.0 secs

     total energy              =   -2023.59681238 Ry
     estimated scf accuracy    <       0.08075458 Ry

     iteration #  2     ecut=    70.00 Ry     beta= 0.70
     Davidson diagonalization with overlap

---- Real-time Memory Report at c_bands before calling an iterative solver
           163 MiB given to the printing process from OS
             0 MiB allocation reported by mallinfo(arena+hblkhd)
       1929846 MiB available memory on the node where the printing process lives
------------------
     ethr =  1.68E-04,  avg # of iterations =  4.3


     -----------------------------------------------
     Non-local corr. energy    =       1.43111110 Ry
     -----------------------------------------------


     total cpu time spent up to now is        2.3 secs

     total energy              =   -2023.60467224 Ry
     estimated scf accuracy    <       0.10619985 Ry

     iteration #  3     ecut=    70.00 Ry     beta= 0.70
     Davidson diagonalization with overlap

---- Real-time Memory Report at c_bands before calling an iterative solver
           164 MiB given to the printing process from OS
             0 MiB allocation reported by mallinfo(arena+hblkhd)
       1929600 MiB available memory on the node where the printing process lives
------------------
     ethr =  1.68E-04,  avg # of iterations =  3.5


     -----------------------------------------------
     Non-local corr. energy    =       1.43062420 Ry
     -----------------------------------------------


     total cpu time spent up to now is        2.7 secs

     total energy              =   -2023.62923270 Ry
     estimated scf accuracy    <       0.00345867 Ry

     iteration #  4     ecut=    70.00 Ry     beta= 0.70
     Davidson diagonalization with overlap

---- Real-time Memory Report at c_bands before calling an iterative solver
           165 MiB given to the printing process from OS
             0 MiB allocation reported by mallinfo(arena+hblkhd)
       1929625 MiB available memory on the node where the printing process lives
------------------
     ethr =  7.21E-06,  avg # of iterations =  3.8


     -----------------------------------------------
     Non-local corr. energy    =       1.43107546 Ry
     -----------------------------------------------


     total cpu time spent up to now is        3.0 secs

     total energy              =   -2023.63005950 Ry
     estimated scf accuracy    <       0.00013883 Ry

     iteration #  5     ecut=    70.00 Ry     beta= 0.70
     Davidson diagonalization with overlap

---- Real-time Memory Report at c_bands before calling an iterative solver
           166 MiB given to the printing process from OS
             0 MiB allocation reported by mallinfo(arena+hblkhd)
       1929611 MiB available memory on the node where the printing process lives
------------------
     ethr =  2.89E-07,  avg # of iterations =  5.5


     -----------------------------------------------
     Non-local corr. energy    =       1.43110613 Ry
     -----------------------------------------------


     total cpu time spent up to now is        3.5 secs

     total energy              =   -2023.63018387 Ry
     estimated scf accuracy    <       0.00009572 Ry

     iteration #  6     ecut=    70.00 Ry     beta= 0.70
     Davidson diagonalization with overlap

---- Real-time Memory Report at c_bands before calling an iterative solver
           167 MiB given to the printing process from OS
             0 MiB allocation reported by mallinfo(arena+hblkhd)
       1929931 MiB available memory on the node where the printing process lives
------------------
     ethr =  1.99E-07,  avg # of iterations =  1.2


     -----------------------------------------------
     Non-local corr. energy    =       1.43128241 Ry
     -----------------------------------------------


     total cpu time spent up to now is        3.7 secs

     total energy              =   -2023.63017428 Ry
     estimated scf accuracy    <       0.00006092 Ry

     iteration #  7     ecut=    70.00 Ry     beta= 0.70
     Davidson diagonalization with overlap

---- Real-time Memory Report at c_bands before calling an iterative solver
           168 MiB given to the printing process from OS
             0 MiB allocation reported by mallinfo(arena+hblkhd)
       1929964 MiB available memory on the node where the printing process lives
------------------
     ethr =  1.27E-07,  avg # of iterations =  3.0


     -----------------------------------------------
     Non-local corr. energy    =       1.43126048 Ry
     -----------------------------------------------


     total cpu time spent up to now is        4.0 secs

     total energy              =   -2023.63017853 Ry
     estimated scf accuracy    <       0.00000546 Ry

     iteration #  8     ecut=    70.00 Ry     beta= 0.70
     Davidson diagonalization with overlap

---- Real-time Memory Report at c_bands before calling an iterative solver
           168 MiB given to the printing process from OS
             0 MiB allocation reported by mallinfo(arena+hblkhd)
       1930102 MiB available memory on the node where the printing process lives
------------------
     ethr =  1.14E-08,  avg # of iterations =  5.7


     -----------------------------------------------
     Non-local corr. energy    =       1.43125555 Ry
     -----------------------------------------------


     total cpu time spent up to now is        4.5 secs

     total energy              =   -2023.63018099 Ry
     estimated scf accuracy    <       0.00000590 Ry

     iteration #  9     ecut=    70.00 Ry     beta= 0.70
     Davidson diagonalization with overlap

---- Real-time Memory Report at c_bands before calling an iterative solver
           168 MiB given to the printing process from OS
             0 MiB allocation reported by mallinfo(arena+hblkhd)
       1930104 MiB available memory on the node where the printing process lives
------------------
     ethr =  1.14E-08,  avg # of iterations =  1.1


     -----------------------------------------------
     Non-local corr. energy    =       1.43126348 Ry
     -----------------------------------------------


     total cpu time spent up to now is        4.7 secs

     total energy              =   -2023.63018075 Ry
     estimated scf accuracy    <       0.00000163 Ry

     iteration # 10     ecut=    70.00 Ry     beta= 0.70
     Davidson diagonalization with overlap

---- Real-time Memory Report at c_bands before calling an iterative solver
           168 MiB given to the printing process from OS
             0 MiB allocation reported by mallinfo(arena+hblkhd)
       1930162 MiB available memory on the node where the printing process lives
------------------
     ethr =  3.39E-09,  avg # of iterations =  4.2


     -----------------------------------------------
     Non-local corr. energy    =       1.43126411 Ry
     -----------------------------------------------


     total cpu time spent up to now is        5.1 secs

     total energy              =   -2023.63018102 Ry
     estimated scf accuracy    <       0.00000024 Ry

     iteration # 11     ecut=    70.00 Ry     beta= 0.70
     Davidson diagonalization with overlap

---- Real-time Memory Report at c_bands before calling an iterative solver
           168 MiB given to the printing process from OS
             0 MiB allocation reported by mallinfo(arena+hblkhd)
       1930171 MiB available memory on the node where the printing process lives
------------------
     c_bands:  1 eigenvalues not converged
     ethr =  5.06E-10,  avg # of iterations =  4.5


     -----------------------------------------------
     Non-local corr. energy    =       1.43126462 Ry
     -----------------------------------------------


     total cpu time spent up to now is        5.4 secs

     End of self-consistent calculation

          k = 0.0000 0.0000 0.0000 (  8983 PWs)   bands (ev):

   -40.2082 -40.2082 -40.2081 -40.2074 -40.2074 -40.2073 -40.2050 -40.2050
   -40.2042 -40.2042 -12.2234 -12.2234 -12.2144 -12.2086 -12.2086  -7.6652
    -7.0558  -2.5551   3.2702   3.3753   3.3756   3.4913   3.4914   3.5808
     6.8637   7.6485   7.6489  10.7281  11.9166

     occupation numbers 
     1.0000   1.0000   1.0000   1.0000   1.0000   1.0000   1.0000   1.0000
     1.0000   1.0000   1.0000   1.0000   1.0000   1.0000   1.0000   1.0000
     1.0000   1.0000   1.0000   1.0000   1.0000   1.0000   1.0000   1.0000
     0.0000   0.0000   0.0000   0.0000   0.0000

          k = 0.0000 0.0000-0.3178 (  8988 PWs)   bands (ev):

   -40.2082 -40.2082 -40.2081 -40.2074 -40.2074 -40.2073 -40.2050 -40.2050
   -40.2042 -40.2042 -12.2234 -12.2234 -12.2144 -12.2086 -12.2085  -7.5545
    -7.2034  -2.4375   2.6448   3.2840   3.2843   3.6098   3.6098   4.2010
     6.6491   7.5256   7.5260  11.0388  11.8998

     occupation numbers 
     1.0000   1.0000   1.0000   1.0000   1.0000   1.0000   1.0000   1.0000
     1.0000   1.0000   1.0000   1.0000   1.0000   1.0000   1.0000   1.0000
     1.0000   1.0000   1.0000   1.0000   1.0000   1.0000   1.0000   1.0000
     0.0000   0.0000   0.0000   0.0000   0.0000

          k = 0.0000 0.2887 0.0000 (  8934 PWs)   bands (ev):

   -40.2082 -40.2082 -40.2081 -40.2074 -40.2074 -40.2073 -40.2050 -40.2049
   -40.2042 -40.2042 -12.2366 -12.2185 -12.2130 -12.2081 -12.2061  -7.4329
    -6.9653  -2.7436   1.9796   2.5328   2.7826   3.5696   3.6248   4.0342
     7.2095   7.9258   8.0269  10.4628  11.6254

     occupation numbers 
     1.0000   1.0000   1.0000   1.0000   1.0000   1.0000   1.0000   1.0000
     1.0000   1.0000   1.0000   1.0000   1.0000   1.0000   1.0000   1.0000
     1.0000   1.0000   1.0000   1.0000   1.0000   1.0000   1.0000   1.0000
     0.0000   0.0000   0.0000   0.0000   0.0000

          k = 0.0000 0.2887-0.3178 (  8918 PWs)   bands (ev):

   -40.2082 -40.2082 -40.2081 -40.2074 -40.2074 -40.2073 -40.2050 -40.2049
   -40.2042 -40.2042 -12.2366 -12.2185 -12.2130 -12.2081 -12.2061  -7.3397
    -7.0779  -2.7120   2.1094   2.8088   2.8978   3.0632   3.4587   3.9035
     7.4605   8.0233   8.2383  10.6271  11.5484

     occupation numbers 
     1.0000   1.0000   1.0000   1.0000   1.0000   1.0000   1.0000   1.0000
     1.0000   1.0000   1.0000   1.0000   1.0000   1.0000   1.0000   1.0000
     1.0000   1.0000   1.0000   1.0000   1.0000   1.0000   1.0000   1.0000
     0.0000   0.0000   0.0000   0.0000   0.0000

          k = 0.0000-0.5774 0.0000 (  8912 PWs)   bands (ev):

   -40.2082 -40.2082 -40.2080 -40.2074 -40.2074 -40.2073 -40.2049 -40.2048
   -40.2042 -40.2041 -12.2510 -12.2173 -12.2156 -12.2025 -12.2000  -7.0998
    -6.9376  -3.0262   1.5708   2.1817   2.4381   2.9604   3.5648   3.8710
     7.2802   8.0285   8.8424   9.7241  12.3239

     occupation numbers 
     1.0000   1.0000   1.0000   1.0000   1.0000   1.0000   1.0000   1.0000
     1.0000   1.0000   1.0000   1.0000   1.0000   1.0000   1.0000   1.0000
     1.0000   1.0000   1.0000   1.0000   1.0000   1.0000   1.0000   1.0000
     0.0000   0.0000   0.0000   0.0000   0.0000

          k = 0.0000-0.5774-0.3178 (  8924 PWs)   bands (ev):

   -40.2082 -40.2082 -40.2080 -40.2074 -40.2074 -40.2073 -40.2049 -40.2048
   -40.2042 -40.2041 -12.2511 -12.2173 -12.2156 -12.2025 -12.2000  -7.0533
    -6.9815  -3.0435   1.2629   2.5857   2.6782   3.1514   3.3180   3.6092
     7.5758   8.0935   8.3413  10.3213  12.0075

     occupation numbers 
     1.0000   1.0000   1.0000   1.0000   1.0000   1.0000   1.0000   1.0000
     1.0000   1.0000   1.0000   1.0000   1.0000   1.0000   1.0000   1.0000
     1.0000   1.0000   1.0000   1.0000   1.0000   1.0000   1.0000   1.0000
     0.0000   0.0000   0.0000   0.0000   0.0000

          k = 0.2500 0.4330 0.0000 (  8904 PWs)   bands (ev):

   -40.2082 -40.2082 -40.2080 -40.2074 -40.2074 -40.2073 -40.2049 -40.2049
   -40.2042 -40.2041 -12.2418 -12.2253 -12.2104 -12.2075 -12.2016  -7.1208
    -6.9154  -3.0200   1.8392   1.9574   2.5562   2.8155   3.2844   3.8238
     8.1867   8.2090   8.5095  10.7013  11.0445

     occupation numbers 
     1.0000   1.0000   1.0000   1.0000   1.0000   1.0000   1.0000   1.0000
     1.0000   1.0000   1.0000   1.0000   1.0000   1.0000   1.0000   1.0000
     1.0000   1.0000   1.0000   1.0000   1.0000   1.0000   1.0000   1.0000
     0.0000   0.0000   0.0000   0.0000   0.0000

          k = 0.2500 0.4330-0.3178 (  8914 PWs)   bands (ev):

   -40.2082 -40.2082 -40.2080 -40.2074 -40.2074 -40.2073 -40.2049 -40.2049
   -40.2042 -40.2041 -12.2419 -12.2254 -12.2104 -12.2075 -12.2016  -7.0718
    -6.9649  -3.0179   1.6267   1.8386   2.2878   3.3926   3.4705   4.0783
     7.6782   7.9863   8.3674  11.0930  11.9030

     occupation numbers 
     1.0000   1.0000   1.0000   1.0000   1.0000   1.0000   1.0000   1.0000
     1.0000   1.0000   1.0000   1.0000   1.0000   1.0000   1.0000   1.0000
     1.0000   1.0000   1.0000   1.0000   1.0000   1.0000   1.0000   1.0000
     0.0000   0.0000   0.0000   0.0000   0.0000

          k =-0.2500 0.1443 0.0000 (  8934 PWs)   bands (ev):

   -40.2082 -40.2082 -40.2081 -40.2074 -40.2074 -40.2073 -40.2050 -40.2049
   -40.2042 -40.2042 -12.2365 -12.2186 -12.2130 -12.2081 -12.2061  -7.4329
    -6.9653  -2.7437   1.9794   2.5327   2.7827   3.5698   3.6249   4.0342
     7.2094   7.9256   8.0272  10.4626  11.6252

     occupation numbers 
     1.0000   1.0000   1.0000   1.0000   1.0000   1.0000   1.0000   1.0000
     1.0000   1.0000   1.0000   1.0000   1.0000   1.0000   1.0000   1.0000
     1.0000   1.0000   1.0000   1.0000   1.0000   1.0000   1.0000   1.0000
     0.0000   0.0000   0.0000   0.0000   0.0000

          k = 0.2500 0.1443 0.0000 (  8934 PWs)   bands (ev):

   -40.2082 -40.2082 -40.2081 -40.2074 -40.2074 -40.2073 -40.2050 -40.2049
   -40.2042 -40.2042 -12.2366 -12.2185 -12.2130 -12.2081 -12.2061  -7.4329
    -6.9653  -2.7436   1.9795   2.5328   2.7826   3.5697   3.6248   4.0342
     7.2094   7.9258   8.0270  10.4628  11.6253

     occupation numbers 
     1.0000   1.0000   1.0000   1.0000   1.0000   1.0000   1.0000   1.0000
     1.0000   1.0000   1.0000   1.0000   1.0000   1.0000   1.0000   1.0000
     1.0000   1.0000   1.0000   1.0000   1.0000   1.0000   1.0000   1.0000
     0.0000   0.0000   0.0000   0.0000   0.0000

          k =-0.2500 0.1443-0.3178 (  8918 PWs)   bands (ev):

   -40.2082 -40.2082 -40.2081 -40.2074 -40.2074 -40.2073 -40.2050 -40.2049
   -40.2042 -40.2042 -12.2366 -12.2185 -12.2130 -12.2081 -12.2061  -7.3397
    -7.0779  -2.7121   2.1093   2.8087   2.8980   3.0630   3.4587   3.9037
     7.4606   8.0232   8.2388  10.6270  11.5483

     occupation numbers 
     1.0000   1.0000   1.0000   1.0000   1.0000   1.0000   1.0000   1.0000
     1.0000   1.0000   1.0000   1.0000   1.0000   1.0000   1.0000   1.0000
     1.0000   1.0000   1.0000   1.0000   1.0000   1.0000   1.0000   1.0000
     0.0000   0.0000   0.0000   0.0000   0.0000

          k = 0.2500 0.1443-0.3178 (  8918 PWs)   bands (ev):

   -40.2082 -40.2082 -40.2081 -40.2074 -40.2074 -40.2073 -40.2050 -40.2049
   -40.2042 -40.2042 -12.2366 -12.2185 -12.2130 -12.2081 -12.2061  -7.3397
    -7.0779  -2.7120   2.1094   2.8087   2.8979   3.0631   3.4587   3.9036
     7.4605   8.0233   8.2384  10.6271  11.5484

     occupation numbers 
     1.0000   1.0000   1.0000   1.0000   1.0000   1.0000   1.0000   1.0000
     1.0000   1.0000   1.0000   1.0000   1.0000   1.0000   1.0000   1.0000
     1.0000   1.0000   1.0000   1.0000   1.0000   1.0000   1.0000   1.0000
     0.0000   0.0000   0.0000   0.0000   0.0000

          k = 0.5000-0.2887 0.0000 (  8912 PWs)   bands (ev):

   -40.2082 -40.2082 -40.2080 -40.2074 -40.2074 -40.2073 -40.2049 -40.2048
   -40.2042 -40.2041 -12.2509 -12.2173 -12.2156 -12.2025 -12.2000  -7.0998
    -6.9375  -3.0264   1.5707   2.1814   2.4382   2.9607   3.5649   3.8710
     7.2802   8.0285   8.8430   9.7238  12.3238

     occupation numbers 
     1.0000   1.0000   1.0000   1.0000   1.0000   1.0000   1.0000   1.0000
     1.0000   1.0000   1.0000   1.0000   1.0000   1.0000   1.0000   1.0000
     1.0000   1.0000   1.0000   1.0000   1.0000   1.0000   1.0000   1.0000
     0.0000   0.0000   0.0000   0.0000   0.0000

          k =-0.5000-0.2887 0.0000 (  8912 PWs)   bands (ev):

   -40.2082 -40.2082 -40.2080 -40.2074 -40.2074 -40.2073 -40.2049 -40.2048
   -40.2042 -40.2041 -12.2510 -12.2173 -12.2156 -12.2025 -12.2000  -7.0998
    -6.9376  -3.0263   1.5708   2.1816   2.4381   2.9604   3.5649   3.8710
     7.2802   8.0285   8.8425   9.7240  12.3239

     occupation numbers 
     1.0000   1.0000   1.0000   1.0000   1.0000   1.0000   1.0000   1.0000
     1.0000   1.0000   1.0000   1.0000   1.0000   1.0000   1.0000   1.0000
     1.0000   1.0000   1.0000   1.0000   1.0000   1.0000   1.0000   1.0000
     0.0000   0.0000   0.0000   0.0000   0.0000

          k = 0.5000-0.2887-0.3178 (  8924 PWs)   bands (ev):

   -40.2082 -40.2082 -40.2080 -40.2074 -40.2074 -40.2073 -40.2049 -40.2048
   -40.2042 -40.2041 -12.2511 -12.2173 -12.2157 -12.2025 -12.2000  -7.0533
    -6.9814  -3.0437   1.2629   2.5858   2.6781   3.1512   3.3180   3.6094
     7.5762   8.0938   8.3412  10.3212  12.0072

     occupation numbers 
     1.0000   1.0000   1.0000   1.0000   1.0000   1.0000   1.0000   1.0000
     1.0000   1.0000   1.0000   1.0000   1.0000   1.0000   1.0000   1.0000
     1.0000   1.0000   1.0000   1.0000   1.0000   1.0000   1.0000   1.0000
     0.0000   0.0000   0.0000   0.0000   0.0000

          k =-0.5000-0.2887-0.3178 (  8924 PWs)   bands (ev):

   -40.2082 -40.2082 -40.2080 -40.2074 -40.2074 -40.2073 -40.2049 -40.2048
   -40.2042 -40.2041 -12.2511 -12.2173 -12.2157 -12.2025 -12.2000  -7.0533
    -6.9815  -3.0436   1.2629   2.5857   2.6782   3.1513   3.3180   3.6092
     7.5759   8.0936   8.3413  10.3213  12.0074

     occupation numbers 
     1.0000   1.0000   1.0000   1.0000   1.0000   1.0000   1.0000   1.0000
     1.0000   1.0000   1.0000   1.0000   1.0000   1.0000   1.0000   1.0000
     1.0000   1.0000   1.0000   1.0000   1.0000   1.0000   1.0000   1.0000
     0.0000   0.0000   0.0000   0.0000   0.0000

          k =-0.2500 0.4330 0.0000 (  8904 PWs)   bands (ev):

   -40.2082 -40.2082 -40.2080 -40.2074 -40.2074 -40.2073 -40.2049 -40.2049
   -40.2042 -40.2041 -12.2418 -12.2253 -12.2104 -12.2075 -12.2015  -7.1208
    -6.9154  -3.0201   1.8391   1.9573   2.5563   2.8156   3.2845   3.8237
     8.1863   8.2094   8.5098  10.7012  11.0445

     occupation numbers 
     1.0000   1.0000   1.0000   1.0000   1.0000   1.0000   1.0000   1.0000
     1.0000   1.0000   1.0000   1.0000   1.0000   1.0000   1.0000   1.0000
     1.0000   1.0000   1.0000   1.0000   1.0000   1.0000   1.0000   1.0000
     0.0000   0.0000   0.0000   0.0000   0.0000

          k = 0.5000 0.0000 0.0000 (  8904 PWs)   bands (ev):

   -40.2082 -40.2082 -40.2080 -40.2074 -40.2074 -40.2073 -40.2049 -40.2049
   -40.2042 -40.2041 -12.2418 -12.2253 -12.2104 -12.2075 -12.2015  -7.1208
    -6.9154  -3.0201   1.8391   1.9573   2.5564   2.8156   3.2846   3.8237
     8.1862   8.2094   8.5098  10.7012  11.0445

     occupation numbers 
     1.0000   1.0000   1.0000   1.0000   1.0000   1.0000   1.0000   1.0000
     1.0000   1.0000   1.0000   1.0000   1.0000   1.0000   1.0000   1.0000
     1.0000   1.0000   1.0000   1.0000   1.0000   1.0000   1.0000   1.0000
     0.0000   0.0000   0.0000   0.0000   0.0000

          k =-0.2500 0.4330 0.3178 (  8914 PWs)   bands (ev):

   -40.2082 -40.2082 -40.2080 -40.2074 -40.2074 -40.2073 -40.2049 -40.2049
   -40.2042 -40.2041 -12.2418 -12.2254 -12.2104 -12.2075 -12.2015  -7.0718
    -6.9649  -3.0180   1.6267   1.8386   2.2878   3.3926   3.4705   4.0783
     7.6780   7.9867   8.3675  11.0933  11.9028

     occupation numbers 
     1.0000   1.0000   1.0000   1.0000   1.0000   1.0000   1.0000   1.0000
     1.0000   1.0000   1.0000   1.0000   1.0000   1.0000   1.0000   1.0000
     1.0000   1.0000   1.0000   1.0000   1.0000   1.0000   1.0000   1.0000
     0.0000   0.0000   0.0000   0.0000   0.0000

          k = 0.5000 0.0000-0.3178 (  8914 PWs)   bands (ev):

   -40.2082 -40.2082 -40.2080 -40.2074 -40.2074 -40.2073 -40.2049 -40.2049
   -40.2042 -40.2041 -12.2418 -12.2254 -12.2104 -12.2075 -12.2015  -7.0718
    -6.9648  -3.0180   1.6267   1.8386   2.2878   3.3926   3.4705   4.0783
     7.6779   7.9868   8.3675  11.0933  11.9027

     occupation numbers 
     1.0000   1.0000   1.0000   1.0000   1.0000   1.0000   1.0000   1.0000
     1.0000   1.0000   1.0000   1.0000   1.0000   1.0000   1.0000   1.0000
     1.0000   1.0000   1.0000   1.0000   1.0000   1.0000   1.0000   1.0000
     0.0000   0.0000   0.0000   0.0000   0.0000

     the Fermi energy is     5.0512 ev

!    total energy              =   -2023.63018101 Ry
     total all-electron energy =    -70280.320623 Ry
     estimated scf accuracy    <       0.00000007 Ry
     smearing contrib. (-TS)   =      -0.00000000 Ry
     internal energy E=F+TS    =   -2023.63018101 Ry

     The total energy is F=E-TS. E is the sum of the following terms:
     one-electron contribution =    -360.22647997 Ry
     hartree contribution      =     203.08692647 Ry
     xc contribution           =    -141.81811533 Ry
     ewald contribution        =    -316.20935342 Ry
     one-center paw contrib.   =   -1408.46315876 Ry
      -> PAW hartree energy AE =      96.22321823 Ry
      -> PAW hartree energy PS =     -96.46398188 Ry
      -> PAW xc energy AE      =    -798.45474014 Ry
      -> PAW xc energy PS      =      33.33412049 Ry
      -> total E_H with PAW    =     202.84616282 Ry
      -> total E_XC with PAW   =    -906.93873498 Ry

     convergence has been achieved in  11 iterations


     -----------------------------------------------
     Non-local corr. energy    =       1.43126462 Ry
     -----------------------------------------------


     Forces acting on atoms (cartesian axes, Ry/au):

     atom    1 type  1   force =    -0.00000206    0.00000284   -0.00001950
     atom    2 type  2   force =    -0.00000698    0.00000284   -0.00624018
     atom    3 type  2   force =     0.00000904   -0.00000568    0.00625967
     The non-local contrib.  to forces
     atom    1 type  1   force =    -0.00002194   -0.00000805   -0.00003065
     atom    2 type  2   force =     0.00000470    0.00000306    0.25176057
     atom    3 type  2   force =     0.00000615   -0.00000073   -0.25174963
     The ionic contribution  to forces
     atom    1 type  1   force =     0.00034498    0.00013502    0.00025637
     atom    2 type  2   force =    -0.00072441    0.00041995  -14.25436749
     atom    3 type  2   force =     0.00037944   -0.00055497   14.25411112
     The local contribution  to forces
     atom    1 type  1   force =    -0.00032235   -0.00012654   -0.00026901
     atom    2 type  2   force =     0.00070851   -0.00041395   14.00160076
     atom    3 type  2   force =    -0.00037966    0.00054441  -14.00136171
     The core correction contribution to forces
     atom    1 type  1   force =     0.00000014    0.00000002   -0.00000096
     atom    2 type  2   force =     0.00000059   -0.00000094   -0.00531013
     atom    3 type  2   force =    -0.00000081    0.00000017    0.00531200
     The Hubbard contrib.    to forces
     atom    1 type  1   force =     0.00000000    0.00000000    0.00000000
     atom    2 type  2   force =     0.00000000    0.00000000    0.00000000
     atom    3 type  2   force =     0.00000000    0.00000000    0.00000000
     The SCF correction term to forces
     atom    1 type  1   force =    -0.00000254   -0.00000096    0.00001916
     atom    2 type  2   force =     0.00000399   -0.00000863    0.00007052
     atom    3 type  2   force =     0.00000427    0.00000209   -0.00005769

     Total force =     0.008839     Total SCF correction =     0.000094


     Computing stress (Cartesian axis) and pressure



     -----------------------------------------------
     Non-local corr. energy    =       1.43126462 Ry
     -----------------------------------------------

          total   stress  (Ry/bohr**3)                   (kbar)     P=       13.45
   0.00009288  -0.00000004   0.00000007           13.66       -0.01        0.01
  -0.00000004   0.00009281  -0.00000006           -0.01       13.65       -0.01
   0.00000007  -0.00000006   0.00008852            0.01       -0.01       13.02

     kinetic stress (kbar)  15910.05     -0.00      0.01
                               -0.00  15910.05     -0.01
                                0.01     -0.01  15918.64

     local   stress (kbar)  -6891.36      0.76     -0.67
                                0.76  -6890.02      0.59
                               -0.67      0.59   1553.63

     nonloc. stress (kbar)  -1132.73     -0.00      0.00
                               -0.00  -1132.73     -0.00
                                0.00     -0.00  -1140.82

     hartree stress (kbar)  12304.56     -0.28      0.25
                               -0.28  12304.07     -0.22
                                0.25     -0.22   8497.45

     exc-cor stress (kbar)   7365.24     -0.00      0.00
                               -0.00   7365.24     -0.00
                                0.00     -0.00   7364.37

     corecor stress (kbar) -11994.86      0.00     -0.00
                                0.00 -11994.86      0.00
                               -0.00      0.00 -11994.67

     ewald   stress (kbar) -15635.44     -0.48      0.41
                               -0.48 -15636.28     -0.37
                                0.41     -0.37 -20274.94

     hubbard stress (kbar)      0.00      0.00      0.00
                                0.00      0.00      0.00
                                0.00      0.00      0.00

     DFT-D   stress (kbar)      0.00      0.00      0.00
                                0.00      0.00      0.00
                                0.00      0.00      0.00

     XDM     stress (kbar)      0.00      0.00      0.00
                                0.00      0.00      0.00
                                0.00      0.00      0.00

     dft-nl  stress (kbar)     88.20      0.00     -0.00
                                0.00     88.20      0.00
                               -0.00      0.00     89.37

     TS-vdW  stress (kbar)      0.00      0.00      0.00
                                0.00      0.00      0.00
                                0.00      0.00      0.00

     MDB     stress (kbar)      0.00      0.00      0.00
                                0.00      0.00      0.00
                                0.00      0.00      0.00

     3D-RISM stress (kbar)      0.00      0.00      0.00
                                0.00      0.00      0.00
                                0.00      0.00      0.00


     BFGS Geometry Optimization
     Energy error            =      0.0E+00 Ry
     Gradient error          =      6.3E-03 Ry/Bohr
     Cell gradient error     =      1.4E+01 kbar

     number of scf cycles    =   1
     number of bfgs steps    =   0

     enthalpy           new  =   -2023.6301810062 Ry

     new trust radius        =       0.0139511460 bohr
     new conv_thr            =       0.0000001000 Ry

     new unit-cell volume =    908.60635 a.u.^3 (   134.64157 Ang^3 )
     density =      5.68564 g/cm^3

CELL_PARAMETERS (alat=  8.71679314)
   1.002322089  -0.000000955   0.000001730
  -0.501161871   0.868035345  -0.000002205
   0.000002721  -0.000002434   1.576743590

ATOMIC_POSITIONS (angstrom)
Pb            2.3116774216        4.0038538263       -0.0000717105
I             2.3118247152        1.3344381179        5.3856519661
I            -0.0000854406        2.6692801027        1.8873867198



     Writing config-only to output data dir ./PbI2.save/
     NEW-OLD atomic charge density approx. for the potential

     Check: negative core charge=   -0.000001


     -----------------------------------------------
     Non-local corr. energy    =       1.43775080 Ry
     -----------------------------------------------

     extrapolated charge   48.32755, renormalised to   48.00000

     total cpu time spent up to now is        6.4 secs

     Self-consistent Calculation

     iteration #  1     ecut=    70.00 Ry     beta= 0.70
     Davidson diagonalization with overlap

---- Real-time Memory Report at c_bands before calling an iterative solver
           169 MiB given to the printing process from OS
             0 MiB allocation reported by mallinfo(arena+hblkhd)
       1930138 MiB available memory on the node where the printing process lives
------------------
     ethr =  1.00E-06,  avg # of iterations =  5.2


     -----------------------------------------------
     Non-local corr. energy    =       1.41646014 Ry
     -----------------------------------------------


     total cpu time spent up to now is        6.9 secs

     total energy              =   -2023.60508450 Ry
     estimated scf accuracy    <       0.02584262 Ry

     iteration #  2     ecut=    70.00 Ry     beta= 0.70
     Davidson diagonalization with overlap

---- Real-time Memory Report at c_bands before calling an iterative solver
           169 MiB given to the printing process from OS
             0 MiB allocation reported by mallinfo(arena+hblkhd)
       1930129 MiB available memory on the node where the printing process lives
------------------
     ethr =  5.38E-05,  avg # of iterations =  3.3


     -----------------------------------------------
     Non-local corr. energy    =       1.42493139 Ry
     -----------------------------------------------


     total cpu time spent up to now is        7.3 secs

     total energy              =   -2023.63021877 Ry
     estimated scf accuracy    <       0.04595709 Ry

     iteration #  3     ecut=    70.00 Ry     beta= 0.70
     Davidson diagonalization with overlap

---- Real-time Memory Report at c_bands before calling an iterative solver
           169 MiB given to the printing process from OS
             0 MiB allocation reported by mallinfo(arena+hblkhd)
       1930149 MiB available memory on the node where the printing process lives
------------------
     ethr =  5.38E-05,  avg # of iterations =  2.0


     -----------------------------------------------
     Non-local corr. energy    =       1.42688656 Ry
     -----------------------------------------------


     total cpu time spent up to now is        7.5 secs

     total energy              =   -2023.63131215 Ry
     estimated scf accuracy    <       0.01177179 Ry

     iteration #  4     ecut=    70.00 Ry     beta= 0.70
     Davidson diagonalization with overlap

---- Real-time Memory Report at c_bands before calling an iterative solver
           169 MiB given to the printing process from OS
             0 MiB allocation reported by mallinfo(arena+hblkhd)
       1930136 MiB available memory on the node where the printing process lives
------------------
     ethr =  2.45E-05,  avg # of iterations =  1.0


     -----------------------------------------------
     Non-local corr. energy    =       1.42913716 Ry
     -----------------------------------------------


     total cpu time spent up to now is        7.8 secs

     total energy              =   -2023.63060773 Ry
     estimated scf accuracy    <       0.00673199 Ry

     iteration #  5     ecut=    70.00 Ry     beta= 0.70
     Davidson diagonalization with overlap

---- Real-time Memory Report at c_bands before calling an iterative solver
           170 MiB given to the printing process from OS
             0 MiB allocation reported by mallinfo(arena+hblkhd)
       1930139 MiB available memory on the node where the printing process lives
------------------
     ethr =  1.40E-05,  avg # of iterations =  1.9


     -----------------------------------------------
     Non-local corr. energy    =       1.43149590 Ry
     -----------------------------------------------


     total cpu time spent up to now is        8.1 secs

     total energy              =   -2023.63029728 Ry
     estimated scf accuracy    <       0.00307046 Ry

     iteration #  6     ecut=    70.00 Ry     beta= 0.70
     Davidson diagonalization with overlap

---- Real-time Memory Report at c_bands before calling an iterative solver
           170 MiB given to the printing process from OS
             0 MiB allocation reported by mallinfo(arena+hblkhd)
       1930127 MiB available memory on the node where the printing process lives
------------------
     ethr =  6.40E-06,  avg # of iterations =  3.2


     -----------------------------------------------
     Non-local corr. energy    =       1.43144687 Ry
     -----------------------------------------------


     total cpu time spent up to now is        8.4 secs

     total energy              =   -2023.63072014 Ry
     estimated scf accuracy    <       0.00027678 Ry

     iteration #  7     ecut=    70.00 Ry     beta= 0.70
     Davidson diagonalization with overlap

---- Real-time Memory Report at c_bands before calling an iterative solver
           170 MiB given to the printing process from OS
             0 MiB allocation reported by mallinfo(arena+hblkhd)
       1930138 MiB available memory on the node where the printing process lives
------------------
     ethr =  5.77E-07,  avg # of iterations =  4.0


     -----------------------------------------------
     Non-local corr. energy    =       1.43130635 Ry
     -----------------------------------------------


     total cpu time spent up to now is        8.7 secs

     total energy              =   -2023.63082286 Ry
     estimated scf accuracy    <       0.00015141 Ry

     iteration #  8     ecut=    70.00 Ry     beta= 0.70
     Davidson diagonalization with overlap

---- Real-time Memory Report at c_bands before calling an iterative solver
           170 MiB given to the printing process from OS
             0 MiB allocation reported by mallinfo(arena+hblkhd)
       1930121 MiB available memory on the node where the printing process lives
------------------
     ethr =  3.15E-07,  avg # of iterations =  1.8


     -----------------------------------------------
     Non-local corr. energy    =       1.43132449 Ry
     -----------------------------------------------


     total cpu time spent up to now is        9.0 secs

     total energy              =   -2023.63082239 Ry
     estimated scf accuracy    <       0.00017657 Ry

     iteration #  9     ecut=    70.00 Ry     beta= 0.70
     Davidson diagonalization with overlap

---- Real-time Memory Report at c_bands before calling an iterative solver
           171 MiB given to the printing process from OS
             0 MiB allocation reported by mallinfo(arena+hblkhd)
       1930100 MiB available memory on the node where the printing process lives
------------------
     ethr =  3.15E-07,  avg # of iterations =  1.0


     -----------------------------------------------
     Non-local corr. energy    =       1.43087353 Ry
     -----------------------------------------------


     total cpu time spent up to now is        9.3 secs

     total energy              =   -2023.63083316 Ry
     estimated scf accuracy    <       0.00017369 Ry

     iteration # 10     ecut=    70.00 Ry     beta= 0.70
     Davidson diagonalization with overlap

---- Real-time Memory Report at c_bands before calling an iterative solver
           171 MiB given to the printing process from OS
             0 MiB allocation reported by mallinfo(arena+hblkhd)
       1930049 MiB available memory on the node where the printing process lives
------------------
     ethr =  3.15E-07,  avg # of iterations =  1.0


     -----------------------------------------------
     Non-local corr. energy    =       1.43075255 Ry
     -----------------------------------------------


     total cpu time spent up to now is        9.5 secs

     total energy              =   -2023.63076775 Ry
     estimated scf accuracy    <       0.00024714 Ry

     iteration # 11     ecut=    70.00 Ry     beta= 0.70
     Davidson diagonalization with overlap

---- Real-time Memory Report at c_bands before calling an iterative solver
           171 MiB given to the printing process from OS
             0 MiB allocation reported by mallinfo(arena+hblkhd)
       1929988 MiB available memory on the node where the printing process lives
------------------
     ethr =  3.15E-07,  avg # of iterations =  2.6


     -----------------------------------------------
     Non-local corr. energy    =       1.43033803 Ry
     -----------------------------------------------


     total cpu time spent up to now is        9.8 secs

     total energy              =   -2023.63080434 Ry
     estimated scf accuracy    <       0.00014956 Ry

     iteration # 12     ecut=    70.00 Ry     beta= 0.70
     Davidson diagonalization with overlap

---- Real-time Memory Report at c_bands before calling an iterative solver
           171 MiB given to the printing process from OS
             0 MiB allocation reported by mallinfo(arena+hblkhd)
       1929990 MiB available memory on the node where the printing process lives
------------------
     ethr =  3.12E-07,  avg # of iterations =  1.0


     -----------------------------------------------
     Non-local corr. energy    =       1.43154680 Ry
     -----------------------------------------------


     total cpu time spent up to now is       10.1 secs

     total energy              =   -2023.63076379 Ry
     estimated scf accuracy    <       0.00026772 Ry

     iteration # 13     ecut=    70.00 Ry     beta= 0.70
     Davidson diagonalization with overlap

---- Real-time Memory Report at c_bands before calling an iterative solver
           171 MiB given to the printing process from OS
             0 MiB allocation reported by mallinfo(arena+hblkhd)
       1929954 MiB available memory on the node where the printing process lives
------------------
     ethr =  3.12E-07,  avg # of iterations =  1.0


     -----------------------------------------------
     Non-local corr. energy    =       1.43191061 Ry
     -----------------------------------------------


     total cpu time spent up to now is       10.4 secs

     total energy              =   -2023.63076423 Ry
     estimated scf accuracy    <       0.00004919 Ry

     iteration # 14     ecut=    70.00 Ry     beta= 0.70
     Davidson diagonalization with overlap

---- Real-time Memory Report at c_bands before calling an iterative solver
           171 MiB given to the printing process from OS
             0 MiB allocation reported by mallinfo(arena+hblkhd)
       1929941 MiB available memory on the node where the printing process lives
------------------
     ethr =  1.02E-07,  avg # of iterations =  2.8


     -----------------------------------------------
     Non-local corr. energy    =       1.43211208 Ry
     -----------------------------------------------


     total cpu time spent up to now is       10.6 secs

     total energy              =   -2023.63076382 Ry
     estimated scf accuracy    <       0.00001350 Ry

     iteration # 15     ecut=    70.00 Ry     beta= 0.70
     Davidson diagonalization with overlap

---- Real-time Memory Report at c_bands before calling an iterative solver
           171 MiB given to the printing process from OS
             0 MiB allocation reported by mallinfo(arena+hblkhd)
       1929947 MiB available memory on the node where the printing process lives
------------------
     ethr =  2.81E-08,  avg # of iterations =  3.0


     -----------------------------------------------
     Non-local corr. energy    =       1.43217192 Ry
     -----------------------------------------------


     total cpu time spent up to now is       10.9 secs

     total energy              =   -2023.63076536 Ry
     estimated scf accuracy    <       0.00000088 Ry

     iteration # 16     ecut=    70.00 Ry     beta= 0.70
     Davidson diagonalization with overlap

---- Real-time Memory Report at c_bands before calling an iterative solver
           172 MiB given to the printing process from OS
             0 MiB allocation reported by mallinfo(arena+hblkhd)
       1929949 MiB available memory on the node where the printing process lives
------------------
     ethr =  1.83E-09,  avg # of iterations =  4.5


     -----------------------------------------------
     Non-local corr. energy    =       1.43214592 Ry
     -----------------------------------------------


     total cpu time spent up to now is       11.3 secs

     total energy              =   -2023.63076577 Ry
     estimated scf accuracy    <       0.00000013 Ry

     iteration # 17     ecut=    70.00 Ry     beta= 0.70
     Davidson diagonalization with overlap

---- Real-time Memory Report at c_bands before calling an iterative solver
           172 MiB given to the printing process from OS
             0 MiB allocation reported by mallinfo(arena+hblkhd)
       1929877 MiB available memory on the node where the printing process lives
------------------
     c_bands:  1 eigenvalues not converged
     ethr =  2.64E-10,  avg # of iterations =  4.0


     -----------------------------------------------
     Non-local corr. energy    =       1.43218006 Ry
     -----------------------------------------------


     total cpu time spent up to now is       11.6 secs

     End of self-consistent calculation

          k = 0.0000 0.0000 0.0000 (  8983 PWs)   bands (ev):

   -40.2736 -40.2735 -40.2735 -40.2731 -40.2730 -40.2730 -40.2702 -40.2702
   -40.2698 -40.2698 -12.3111 -12.3111 -12.3025 -12.2970 -12.2970  -7.7090
    -7.1131  -2.6390   3.1950   3.3129   3.3132   3.4252   3.4253   3.5096
     6.7866   7.5591   7.5595  10.6333  11.8303

     occupation numbers 
     1.0000   1.0000   1.0000   1.0000   1.0000   1.0000   1.0000   1.0000
     1.0000   1.0000   1.0000   1.0000   1.0000   1.0000   1.0000   1.0000
     1.0000   1.0000   1.0000   1.0000   1.0000   1.0000   1.0000   1.0000
     0.0000   0.0000   0.0000   0.0000   0.0000

          k = 0.0000-0.0000-0.3171 (  8988 PWs)   bands (ev):

   -40.2736 -40.2735 -40.2735 -40.2731 -40.2730 -40.2730 -40.2702 -40.2702
   -40.2698 -40.2698 -12.3111 -12.3111 -12.3025 -12.2969 -12.2969  -7.5985
    -7.2595  -2.5258   2.5840   3.2214   3.2216   3.5436   3.5436   4.1203
     6.5679   7.4380   7.4384  10.9566  11.8255

     occupation numbers 
     1.0000   1.0000   1.0000   1.0000   1.0000   1.0000   1.0000   1.0000
     1.0000   1.0000   1.0000   1.0000   1.0000   1.0000   1.0000   1.0000
     1.0000   1.0000   1.0000   1.0000   1.0000   1.0000   1.0000   1.0000
     0.0000   0.0000   0.0000   0.0000   0.0000

          k = 0.0000 0.2880 0.0000 (  8934 PWs)   bands (ev):

   -40.2735 -40.2735 -40.2735 -40.2731 -40.2730 -40.2730 -40.2702 -40.2702
   -40.2698 -40.2697 -12.3234 -12.3062 -12.3013 -12.2966 -12.2948  -7.4814
    -7.0254  -2.8218   1.9315   2.4760   2.7273   3.5015   3.5574   3.9523
     7.1223   7.8288   7.9258  10.3912  11.5504

     occupation numbers 
     1.0000   1.0000   1.0000   1.0000   1.0000   1.0000   1.0000   1.0000
     1.0000   1.0000   1.0000   1.0000   1.0000   1.0000   1.0000   1.0000
     1.0000   1.0000   1.0000   1.0000   1.0000   1.0000   1.0000   1.0000
     0.0000   0.0000   0.0000   0.0000   0.0000

          k = 0.0000 0.2880-0.3171 (  8918 PWs)   bands (ev):

   -40.2735 -40.2735 -40.2735 -40.2731 -40.2730 -40.2730 -40.2702 -40.2702
   -40.2698 -40.2697 -12.3235 -12.3061 -12.3013 -12.2965 -12.2948  -7.3887
    -7.1370  -2.7913   2.0609   2.7474   2.8426   3.0026   3.3920   3.8221
     7.3706   7.9246   8.1346  10.5591  11.4683

     occupation numbers 
     1.0000   1.0000   1.0000   1.0000   1.0000   1.0000   1.0000   1.0000
     1.0000   1.0000   1.0000   1.0000   1.0000   1.0000   1.0000   1.0000
     1.0000   1.0000   1.0000   1.0000   1.0000   1.0000   1.0000   1.0000
     0.0000   0.0000   0.0000   0.0000   0.0000

          k =-0.0000-0.5760-0.0000 (  8912 PWs)   bands (ev):

   -40.2736 -40.2735 -40.2735 -40.2731 -40.2730 -40.2730 -40.2702 -40.2701
   -40.2698 -40.2696 -12.3371 -12.3049 -12.3039 -12.2911 -12.2889  -7.1563
    -6.9989  -3.0945   1.5289   2.1270   2.3870   2.8933   3.4982   3.7958
     7.1916   7.9290   8.7266   9.6560  12.2392

     occupation numbers 
     1.0000   1.0000   1.0000   1.0000   1.0000   1.0000   1.0000   1.0000
     1.0000   1.0000   1.0000   1.0000   1.0000   1.0000   1.0000   1.0000
     1.0000   1.0000   1.0000   1.0000   1.0000   1.0000   1.0000   1.0000
     0.0000   0.0000   0.0000   0.0000   0.0000

          k =-0.0000-0.5760-0.3171 (  8924 PWs)   bands (ev):

   -40.2736 -40.2735 -40.2735 -40.2731 -40.2730 -40.2730 -40.2702 -40.2701
   -40.2698 -40.2696 -12.3372 -12.3049 -12.3039 -12.2911 -12.2889  -7.1101
    -7.0425  -3.1112   1.2217   2.5350   2.6199   3.0833   3.2522   3.5351
     7.4826   7.9989   8.2357  10.2538  11.9132

     occupation numbers 
     1.0000   1.0000   1.0000   1.0000   1.0000   1.0000   1.0000   1.0000
     1.0000   1.0000   1.0000   1.0000   1.0000   1.0000   1.0000   1.0000
     1.0000   1.0000   1.0000   1.0000   1.0000   1.0000   1.0000   1.0000
     0.0000   0.0000   0.0000   0.0000   0.0000

          k = 0.2494 0.4320 0.0000 (  8904 PWs)   bands (ev):

   -40.2736 -40.2735 -40.2735 -40.2731 -40.2730 -40.2730 -40.2702 -40.2701
   -40.2697 -40.2697 -12.3283 -12.3126 -12.2989 -12.2960 -12.2903  -7.1769
    -6.9772  -3.0886   1.7949   1.9094   2.5026   2.7557   3.2184   3.7412
     8.0844   8.0995   8.4048  10.6325  10.9717

     occupation numbers 
     1.0000   1.0000   1.0000   1.0000   1.0000   1.0000   1.0000   1.0000
     1.0000   1.0000   1.0000   1.0000   1.0000   1.0000   1.0000   1.0000
     1.0000   1.0000   1.0000   1.0000   1.0000   1.0000   1.0000   1.0000
     0.0000   0.0000   0.0000   0.0000   0.0000

          k = 0.2494 0.4320-0.3171 (  8914 PWs)   bands (ev):

   -40.2735 -40.2735 -40.2735 -40.2731 -40.2730 -40.2730 -40.2702 -40.2701
   -40.2697 -40.2697 -12.3283 -12.3126 -12.2989 -12.2960 -12.2903  -7.1283
    -7.0262  -3.0866   1.5835   1.7910   2.2348   3.3272   3.4035   3.9947
     7.5833   7.8818   8.2658  11.0224  11.8224

     occupation numbers 
     1.0000   1.0000   1.0000   1.0000   1.0000   1.0000   1.0000   1.0000
     1.0000   1.0000   1.0000   1.0000   1.0000   1.0000   1.0000   1.0000
     1.0000   1.0000   1.0000   1.0000   1.0000   1.0000   1.0000   1.0000
     0.0000   0.0000   0.0000   0.0000   0.0000

          k =-0.2494 0.1440 0.0000 (  8934 PWs)   bands (ev):

   -40.2735 -40.2735 -40.2735 -40.2731 -40.2730 -40.2730 -40.2702 -40.2702
   -40.2698 -40.2697 -12.3234 -12.3062 -12.3013 -12.2966 -12.2948  -7.4814
    -7.0254  -2.8219   1.9313   2.4760   2.7274   3.5016   3.5575   3.9524
     7.1223   7.8286   7.9261  10.3911  11.5502

     occupation numbers 
     1.0000   1.0000   1.0000   1.0000   1.0000   1.0000   1.0000   1.0000
     1.0000   1.0000   1.0000   1.0000   1.0000   1.0000   1.0000   1.0000
     1.0000   1.0000   1.0000   1.0000   1.0000   1.0000   1.0000   1.0000
     0.0000   0.0000   0.0000   0.0000   0.0000

          k = 0.2494 0.1440-0.0000 (  8934 PWs)   bands (ev):

   -40.2735 -40.2735 -40.2735 -40.2731 -40.2730 -40.2730 -40.2702 -40.2702
   -40.2698 -40.2697 -12.3234 -12.3062 -12.3013 -12.2966 -12.2948  -7.4814
    -7.0254  -2.8219   1.9314   2.4760   2.7273   3.5015   3.5574   3.9523
     7.1223   7.8287   7.9258  10.3912  11.5504

     occupation numbers 
     1.0000   1.0000   1.0000   1.0000   1.0000   1.0000   1.0000   1.0000
     1.0000   1.0000   1.0000   1.0000   1.0000   1.0000   1.0000   1.0000
     1.0000   1.0000   1.0000   1.0000   1.0000   1.0000   1.0000   1.0000
     0.0000   0.0000   0.0000   0.0000   0.0000

          k =-0.2494 0.1440-0.3171 (  8918 PWs)   bands (ev):

   -40.2735 -40.2735 -40.2735 -40.2731 -40.2730 -40.2730 -40.2702 -40.2702
   -40.2698 -40.2697 -12.3235 -12.3061 -12.3014 -12.2965 -12.2948  -7.3887
    -7.1370  -2.7914   2.0609   2.7473   2.8427   3.0024   3.3921   3.8223
     7.3707   7.9244   8.1350  10.5590  11.4681

     occupation numbers 
     1.0000   1.0000   1.0000   1.0000   1.0000   1.0000   1.0000   1.0000
     1.0000   1.0000   1.0000   1.0000   1.0000   1.0000   1.0000   1.0000
     1.0000   1.0000   1.0000   1.0000   1.0000   1.0000   1.0000   1.0000
     0.0000   0.0000   0.0000   0.0000   0.0000

          k = 0.2494 0.1440-0.3171 (  8918 PWs)   bands (ev):

   -40.2735 -40.2735 -40.2735 -40.2731 -40.2730 -40.2730 -40.2702 -40.2702
   -40.2698 -40.2697 -12.3235 -12.3061 -12.3013 -12.2965 -12.2948  -7.3887
    -7.1370  -2.7913   2.0609   2.7474   2.8426   3.0026   3.3920   3.8221
     7.3706   7.9245   8.1346  10.5591  11.4682

     occupation numbers 
     1.0000   1.0000   1.0000   1.0000   1.0000   1.0000   1.0000   1.0000
     1.0000   1.0000   1.0000   1.0000   1.0000   1.0000   1.0000   1.0000
     1.0000   1.0000   1.0000   1.0000   1.0000   1.0000   1.0000   1.0000
     0.0000   0.0000   0.0000   0.0000   0.0000

          k = 0.4988-0.2880-0.0000 (  8912 PWs)   bands (ev):

   -40.2736 -40.2735 -40.2735 -40.2731 -40.2730 -40.2730 -40.2702 -40.2701
   -40.2698 -40.2696 -12.3371 -12.3050 -12.3039 -12.2911 -12.2889  -7.1563
    -6.9988  -3.0947   1.5289   2.1268   2.3871   2.8936   3.4982   3.7958
     7.1916   7.9289   8.7271   9.6558  12.2390

     occupation numbers 
     1.0000   1.0000   1.0000   1.0000   1.0000   1.0000   1.0000   1.0000
     1.0000   1.0000   1.0000   1.0000   1.0000   1.0000   1.0000   1.0000
     1.0000   1.0000   1.0000   1.0000   1.0000   1.0000   1.0000   1.0000
     0.0000   0.0000   0.0000   0.0000   0.0000

          k =-0.4988-0.2880 0.0000 (  8912 PWs)   bands (ev):

   -40.2736 -40.2735 -40.2735 -40.2731 -40.2730 -40.2730 -40.2702 -40.2701
   -40.2698 -40.2696 -12.3371 -12.3050 -12.3039 -12.2911 -12.2889  -7.1563
    -6.9989  -3.0946   1.5289   2.1269   2.3871   2.8934   3.4982   3.7958
     7.1916   7.9289   8.7267   9.6560  12.2392

     occupation numbers 
     1.0000   1.0000   1.0000   1.0000   1.0000   1.0000   1.0000   1.0000
     1.0000   1.0000   1.0000   1.0000   1.0000   1.0000   1.0000   1.0000
     1.0000   1.0000   1.0000   1.0000   1.0000   1.0000   1.0000   1.0000
     0.0000   0.0000   0.0000   0.0000   0.0000

          k = 0.4988-0.2880-0.3171 (  8924 PWs)   bands (ev):

   -40.2736 -40.2735 -40.2735 -40.2731 -40.2730 -40.2730 -40.2702 -40.2701
   -40.2698 -40.2696 -12.3372 -12.3049 -12.3039 -12.2911 -12.2889  -7.1101
    -7.0425  -3.1113   1.2217   2.5351   2.6198   3.0832   3.2522   3.5353
     7.4830   7.9992   8.2356  10.2537  11.9129

     occupation numbers 
     1.0000   1.0000   1.0000   1.0000   1.0000   1.0000   1.0000   1.0000
     1.0000   1.0000   1.0000   1.0000   1.0000   1.0000   1.0000   1.0000
     1.0000   1.0000   1.0000   1.0000   1.0000   1.0000   1.0000   1.0000
     0.0000   0.0000   0.0000   0.0000   0.0000

          k =-0.4988-0.2880-0.3171 (  8924 PWs)   bands (ev):

   -40.2736 -40.2735 -40.2735 -40.2731 -40.2730 -40.2730 -40.2702 -40.2701
   -40.2698 -40.2696 -12.3372 -12.3049 -12.3039 -12.2911 -12.2889  -7.1101
    -7.0425  -3.1112   1.2217   2.5350   2.6199   3.0833   3.2522   3.5351
     7.4827   7.9990   8.2357  10.2538  11.9131

     occupation numbers 
     1.0000   1.0000   1.0000   1.0000   1.0000   1.0000   1.0000   1.0000
     1.0000   1.0000   1.0000   1.0000   1.0000   1.0000   1.0000   1.0000
     1.0000   1.0000   1.0000   1.0000   1.0000   1.0000   1.0000   1.0000
     0.0000   0.0000   0.0000   0.0000   0.0000

          k =-0.2494 0.4320 0.0000 (  8904 PWs)   bands (ev):

   -40.2736 -40.2735 -40.2735 -40.2731 -40.2730 -40.2730 -40.2702 -40.2701
   -40.2697 -40.2697 -12.3282 -12.3126 -12.2989 -12.2960 -12.2903  -7.1769
    -6.9772  -3.0887   1.7949   1.9094   2.5027   2.7557   3.2185   3.7411
     8.0840   8.0998   8.4050  10.6325  10.9717

     occupation numbers 
     1.0000   1.0000   1.0000   1.0000   1.0000   1.0000   1.0000   1.0000
     1.0000   1.0000   1.0000   1.0000   1.0000   1.0000   1.0000   1.0000
     1.0000   1.0000   1.0000   1.0000   1.0000   1.0000   1.0000   1.0000
     0.0000   0.0000   0.0000   0.0000   0.0000

          k = 0.4988 0.0000-0.0000 (  8904 PWs)   bands (ev):

   -40.2736 -40.2735 -40.2735 -40.2731 -40.2730 -40.2730 -40.2702 -40.2701
   -40.2697 -40.2697 -12.3282 -12.3126 -12.2989 -12.2960 -12.2903  -7.1769
    -6.9771  -3.0887   1.7949   1.9093   2.5028   2.7557   3.2186   3.7411
     8.0839   8.0998   8.4051  10.6324  10.9718

     occupation numbers 
     1.0000   1.0000   1.0000   1.0000   1.0000   1.0000   1.0000   1.0000
     1.0000   1.0000   1.0000   1.0000   1.0000   1.0000   1.0000   1.0000
     1.0000   1.0000   1.0000   1.0000   1.0000   1.0000   1.0000   1.0000
     0.0000   0.0000   0.0000   0.0000   0.0000

          k =-0.2494 0.4320 0.3171 (  8914 PWs)   bands (ev):

   -40.2736 -40.2735 -40.2735 -40.2731 -40.2730 -40.2730 -40.2702 -40.2701
   -40.2697 -40.2697 -12.3283 -12.3126 -12.2989 -12.2960 -12.2903  -7.1283
    -7.0262  -3.0866   1.5835   1.7910   2.2348   3.3272   3.4035   3.9948
     7.5830   7.8821   8.2659  11.0227  11.8222

     occupation numbers 
     1.0000   1.0000   1.0000   1.0000   1.0000   1.0000   1.0000   1.0000
     1.0000   1.0000   1.0000   1.0000   1.0000   1.0000   1.0000   1.0000
     1.0000   1.0000   1.0000   1.0000   1.0000   1.0000   1.0000   1.0000
     0.0000   0.0000   0.0000   0.0000   0.0000

          k = 0.4988-0.0000-0.3171 (  8914 PWs)   bands (ev):

   -40.2736 -40.2735 -40.2735 -40.2731 -40.2730 -40.2730 -40.2702 -40.2701
   -40.2697 -40.2697 -12.3283 -12.3126 -12.2989 -12.2960 -12.2903  -7.1283
    -7.0262  -3.0866   1.5835   1.7910   2.2348   3.3272   3.4035   3.9948
     7.5830   7.8822   8.2659  11.0227  11.8221

     occupation numbers 
     1.0000   1.0000   1.0000   1.0000   1.0000   1.0000   1.0000   1.0000
     1.0000   1.0000   1.0000   1.0000   1.0000   1.0000   1.0000   1.0000
     1.0000   1.0000   1.0000   1.0000   1.0000   1.0000   1.0000   1.0000
     0.0000   0.0000   0.0000   0.0000   0.0000

     the Fermi energy is     4.9695 ev

!    total energy              =   -2023.63076577 Ry
     total all-electron energy =    -70280.321208 Ry
     estimated scf accuracy    <       0.00000008 Ry
     smearing contrib. (-TS)   =      -0.00000000 Ry
     internal energy E=F+TS    =   -2023.63076577 Ry

     The total energy is F=E-TS. E is the sum of the following terms:
     one-electron contribution =    -361.07817510 Ry
     hartree contribution      =     203.38697312 Ry
     xc contribution           =    -141.80997687 Ry
     ewald contribution        =    -315.66752895 Ry
     one-center paw contrib.   =   -1408.46205797 Ry
      -> PAW hartree energy AE =      96.16826584 Ry
      -> PAW hartree energy PS =     -96.40831299 Ry
      -> PAW xc energy AE      =    -798.45039914 Ry
      -> PAW xc energy PS      =      33.32995179 Ry
      -> total E_H with PAW    =     203.14692597 Ry
      -> total E_XC with PAW   =    -906.93042422 Ry

     convergence has been achieved in  17 iterations


     -----------------------------------------------
     Non-local corr. energy    =       1.43218006 Ry
     -----------------------------------------------


     Forces acting on atoms (cartesian axes, Ry/au):

     atom    1 type  1   force =     0.00000545    0.00000326    0.00005209
     atom    2 type  2   force =    -0.00000658    0.00000439   -0.00435701
     atom    3 type  2   force =     0.00000113   -0.00000765    0.00430491
     The non-local contrib.  to forces
     atom    1 type  1   force =    -0.00001552   -0.00000620   -0.00005126
     atom    2 type  2   force =    -0.00000026    0.00000362    0.25189447
     atom    3 type  2   force =     0.00000154   -0.00000081   -0.25202497
     The ionic contribution  to forces
     atom    1 type  1   force =     0.00035537    0.00011557    0.00039186
     atom    2 type  2   force =    -0.00063799    0.00035616  -14.08358053
     atom    3 type  2   force =     0.00028262   -0.00047174   14.08318867
     The local contribution  to forces
     atom    1 type  1   force =    -0.00032776   -0.00010990   -0.00032652
     atom    2 type  2   force =     0.00063329   -0.00035486   13.83266411
     atom    3 type  2   force =    -0.00026680    0.00046111  -13.83197281
     The core correction contribution to forces
     atom    1 type  1   force =     0.00000037   -0.00000005    0.00000002
     atom    2 type  2   force =     0.00000049   -0.00000074   -0.00531989
     atom    3 type  2   force =    -0.00000033    0.00000018    0.00532845
     The Hubbard contrib.    to forces
     atom    1 type  1   force =     0.00000000    0.00000000    0.00000000
     atom    2 type  2   force =     0.00000000    0.00000000    0.00000000
     atom    3 type  2   force =     0.00000000    0.00000000    0.00000000
     The SCF correction term to forces
     atom    1 type  1   force =    -0.00000663    0.00000143   -0.00005182
     atom    2 type  2   force =    -0.00000171   -0.00000220   -0.00010500
     atom    3 type  2   force =    -0.00001552    0.00000121   -0.00030425

     Total force =     0.006125     Total SCF correction =     0.000326


     Computing stress (Cartesian axis) and pressure



     -----------------------------------------------
     Non-local corr. energy    =       1.43218006 Ry
     -----------------------------------------------

          total   stress  (Ry/bohr**3)                   (kbar)     P=       11.10
   0.00007708  -0.00000003   0.00000005           11.34       -0.01        0.01
  -0.00000003   0.00007702  -0.00000005           -0.01       11.33       -0.01
   0.00000005  -0.00000005   0.00007220            0.01       -0.01       10.62

     kinetic stress (kbar)  15799.94      0.00      0.01
                                0.00  15799.94     -0.01
                                0.01     -0.01  15807.94

     local   stress (kbar)  -6823.58      0.62     -0.53
                                0.62  -6822.46      0.48
                               -0.53      0.48   1365.79

     nonloc. stress (kbar)  -1126.01     -0.00      0.00
                               -0.00  -1126.01     -0.00
                                0.00     -0.00  -1134.08

     hartree stress (kbar)  12207.57     -0.23      0.20
                               -0.23  12207.15     -0.18
                                0.20     -0.18   8514.01

     exc-cor stress (kbar)   7315.26     -0.00      0.00
                               -0.00   7315.26     -0.00
                                0.00     -0.00   7314.46

     corecor stress (kbar) -11912.98      0.00     -0.00
                                0.00 -11912.98      0.00
                               -0.00      0.00 -11912.80

     ewald   stress (kbar) -15536.50     -0.40      0.33
                               -0.40 -15537.21     -0.30
                                0.33     -0.30 -20033.46

     hubbard stress (kbar)      0.00      0.00      0.00
                                0.00      0.00      0.00
                                0.00      0.00      0.00

     DFT-D   stress (kbar)      0.00      0.00      0.00
                                0.00      0.00      0.00
                                0.00      0.00      0.00

     XDM     stress (kbar)      0.00      0.00      0.00
                                0.00      0.00      0.00
                                0.00      0.00      0.00

     dft-nl  stress (kbar)     87.64      0.00     -0.00
                                0.00     87.64      0.00
                               -0.00      0.00     88.76

     TS-vdW  stress (kbar)      0.00      0.00      0.00
                                0.00      0.00      0.00
                                0.00      0.00      0.00

     MDB     stress (kbar)      0.00      0.00      0.00
                                0.00      0.00      0.00
                                0.00      0.00      0.00

     3D-RISM stress (kbar)      0.00      0.00      0.00
                                0.00      0.00      0.00
                                0.00      0.00      0.00

     Energy error            =      5.8E-04 Ry
     Gradient error          =      4.4E-03 Ry/Bohr
     Cell gradient error     =      1.1E+01 kbar

     number of scf cycles    =   2
     number of bfgs steps    =   1

     enthalpy           old  =   -2023.6301810062 Ry
     enthalpy           new  =   -2023.6307657742 Ry

     CASE: enthalpy          _new < enthalpy          _old


     WARNING: bfgs curvature condition failed, Theta= 0.984
     new trust radius        =       0.0153632190 bohr
     new conv_thr            =       0.0000000044 Ry

     new unit-cell volume =    915.42263 a.u.^3 (   135.65164 Ang^3 )
     density =      5.64330 g/cm^3

CELL_PARAMETERS (alat=  8.71679314)
   1.004876386  -0.000002079   0.000003522
  -0.502439993   0.870246300  -0.000004488
   0.000005540  -0.000004955   1.580509523

ATOMIC_POSITIONS (angstrom)
Pb            2.3175676765        4.0140490618       -0.0000387405
I             2.3177196081        1.3378280629        5.3954392281
I            -0.0000843547        2.6760688944        1.8949328945



     Writing config-only to output data dir ./PbI2.save/
     NEW-OLD atomic charge density approx. for the potential

     Check: negative core charge=   -0.000001


     -----------------------------------------------
     Non-local corr. energy    =       1.43924995 Ry
     -----------------------------------------------

     extrapolated charge   48.35739, renormalised to   48.00000

     total cpu time spent up to now is       12.6 secs

     Self-consistent Calculation

     iteration #  1     ecut=    70.00 Ry     beta= 0.70
     Davidson diagonalization with overlap

---- Real-time Memory Report at c_bands before calling an iterative solver
           174 MiB given to the printing process from OS
             0 MiB allocation reported by mallinfo(arena+hblkhd)
       1929125 MiB available memory on the node where the printing process lives
------------------
     ethr =  1.00E-06,  avg # of iterations =  5.2


     -----------------------------------------------
     Non-local corr. energy    =       1.41599118 Ry
     -----------------------------------------------


     total cpu time spent up to now is       13.1 secs

     total energy              =   -2023.60061370 Ry
     estimated scf accuracy    <       0.03084884 Ry

     iteration #  2     ecut=    70.00 Ry     beta= 0.70
     Davidson diagonalization with overlap

---- Real-time Memory Report at c_bands before calling an iterative solver
           174 MiB given to the printing process from OS
             0 MiB allocation reported by mallinfo(arena+hblkhd)
       1929160 MiB available memory on the node where the printing process lives
------------------
     ethr =  6.43E-05,  avg # of iterations =  3.3


     -----------------------------------------------
     Non-local corr. energy    =       1.42524796 Ry
     -----------------------------------------------


     total cpu time spent up to now is       13.5 secs

     total energy              =   -2023.63062642 Ry
     estimated scf accuracy    <       0.05492824 Ry

     iteration #  3     ecut=    70.00 Ry     beta= 0.70
     Davidson diagonalization with overlap

---- Real-time Memory Report at c_bands before calling an iterative solver
           174 MiB given to the printing process from OS
             0 MiB allocation reported by mallinfo(arena+hblkhd)
       1929005 MiB available memory on the node where the printing process lives
------------------
     ethr =  6.43E-05,  avg # of iterations =  2.0


     -----------------------------------------------
     Non-local corr. energy    =       1.42739555 Ry
     -----------------------------------------------


     total cpu time spent up to now is       13.7 secs

     total energy              =   -2023.63191807 Ry
     estimated scf accuracy    <       0.01404096 Ry

     iteration #  4     ecut=    70.00 Ry     beta= 0.70
     Davidson diagonalization with overlap

---- Real-time Memory Report at c_bands before calling an iterative solver
           174 MiB given to the printing process from OS
[...]
   -40.7588 -40.7587 -12.9428 -12.9190 -12.9188 -12.9100 -12.9061  -7.6061
    -7.4737  -3.6200   1.1481   1.7438   1.9320   2.4640   2.9757   3.2222
     6.5840   7.2990   8.0294   9.1854  11.5225

     occupation numbers 
     1.0000   1.0000   1.0000   1.0000   1.0000   1.0000   1.0000   1.0000
     1.0000   1.0000   1.0000   1.0000   1.0000   1.0000   1.0000   1.0000
     1.0000   1.0000   1.0000   1.0000   1.0000   1.0000   1.0000   1.0000
     0.0000   0.0000   0.0000   0.0000   0.0000

          k = 0.0000-0.5654-0.3126 (  9464 PWs)   bands (ev):

   -40.7603 -40.7603 -40.7602 -40.7599 -40.7599 -40.7599 -40.7592 -40.7591
   -40.7588 -40.7587 -12.9429 -12.9190 -12.9189 -12.9100 -12.9061  -7.5685
    -7.5095  -3.6317   0.8759   2.0608   2.1757   2.6060   2.7631   3.0173
     6.8605   7.4050   7.5555   9.7670  11.2941

     occupation numbers 
     1.0000   1.0000   1.0000   1.0000   1.0000   1.0000   1.0000   1.0000
     1.0000   1.0000   1.0000   1.0000   1.0000   1.0000   1.0000   1.0000
     1.0000   1.0000   1.0000   1.0000   1.0000   1.0000   1.0000   1.0000
     0.0000   0.0000   0.0000   0.0000   0.0000

          k = 0.2448 0.4240 0.0000 (  9492 PWs)   bands (ev):

   -40.7603 -40.7603 -40.7602 -40.7599 -40.7599 -40.7599 -40.7592 -40.7591
   -40.7588 -40.7587 -12.9361 -12.9244 -12.9146 -12.9138 -12.9082  -7.6246
    -7.4545  -3.6152   1.4002   1.5045   2.0549   2.3281   2.7517   3.1902
     7.3957   7.4285   7.7096  10.0728  10.4088

     occupation numbers 
     1.0000   1.0000   1.0000   1.0000   1.0000   1.0000   1.0000   1.0000
     1.0000   1.0000   1.0000   1.0000   1.0000   1.0000   1.0000   1.0000
     1.0000   1.0000   1.0000   1.0000   1.0000   1.0000   1.0000   1.0000
     0.0000   0.0000   0.0000   0.0000   0.0000

          k = 0.2448 0.4240-0.3126 (  9460 PWs)   bands (ev):

   -40.7603 -40.7603 -40.7602 -40.7599 -40.7599 -40.7599 -40.7592 -40.7591
   -40.7588 -40.7587 -12.9361 -12.9244 -12.9145 -12.9137 -12.9082  -7.5851
    -7.4941  -3.6136   1.2090   1.3949   1.8237   2.8342   2.9111   3.4054
     6.9733   7.2605   7.5913  10.4514  11.2069

     occupation numbers 
     1.0000   1.0000   1.0000   1.0000   1.0000   1.0000   1.0000   1.0000
     1.0000   1.0000   1.0000   1.0000   1.0000   1.0000   1.0000   1.0000
     1.0000   1.0000   1.0000   1.0000   1.0000   1.0000   1.0000   1.0000
     0.0000   0.0000   0.0000   0.0000   0.0000

          k =-0.2448 0.1413 0.0000 (  9443 PWs)   bands (ev):

   -40.7603 -40.7603 -40.7603 -40.7599 -40.7599 -40.7599 -40.7592 -40.7591
   -40.7588 -40.7588 -12.9322 -12.9191 -12.9175 -12.9140 -12.9114  -7.8877
    -7.4923  -3.3735   1.5344   2.0514   2.2482   2.9986   3.0262   3.3593
     6.4956   7.1750   7.2475   9.8776  10.9506

     occupation numbers 
     1.0000   1.0000   1.0000   1.0000   1.0000   1.0000   1.0000   1.0000
     1.0000   1.0000   1.0000   1.0000   1.0000   1.0000   1.0000   1.0000
     1.0000   1.0000   1.0000   1.0000   1.0000   1.0000   1.0000   1.0000
     0.0000   0.0000   0.0000   0.0000   0.0000

          k = 0.2448 0.1413-0.0000 (  9443 PWs)   bands (ev):

   -40.7603 -40.7603 -40.7603 -40.7599 -40.7599 -40.7599 -40.7592 -40.7591
   -40.7588 -40.7588 -12.9322 -12.9191 -12.9175 -12.9140 -12.9114  -7.8877
    -7.4923  -3.3735   1.5344   2.0514   2.2482   2.9986   3.0262   3.3594
     6.4956   7.1750   7.2476   9.8776  10.9507

     occupation numbers 
     1.0000   1.0000   1.0000   1.0000   1.0000   1.0000   1.0000   1.0000
     1.0000   1.0000   1.0000   1.0000   1.0000   1.0000   1.0000   1.0000
     1.0000   1.0000   1.0000   1.0000   1.0000   1.0000   1.0000   1.0000
     0.0000   0.0000   0.0000   0.0000   0.0000

          k =-0.2448 0.1413-0.3126 (  9450 PWs)   bands (ev):

   -40.7603 -40.7603 -40.7603 -40.7599 -40.7599 -40.7599 -40.7592 -40.7591
   -40.7588 -40.7588 -12.9323 -12.9192 -12.9175 -12.9140 -12.9114  -7.8111
    -7.5828  -3.3522   1.6443   2.3176   2.3482   2.5375   2.8841   3.2500
     6.7022   7.2519   7.4474  10.0418  10.8144

     occupation numbers 
     1.0000   1.0000   1.0000   1.0000   1.0000   1.0000   1.0000   1.0000
     1.0000   1.0000   1.0000   1.0000   1.0000   1.0000   1.0000   1.0000
     1.0000   1.0000   1.0000   1.0000   1.0000   1.0000   1.0000   1.0000
     0.0000   0.0000   0.0000   0.0000   0.0000

          k = 0.2448 0.1413-0.3126 (  9450 PWs)   bands (ev):

   -40.7603 -40.7603 -40.7603 -40.7599 -40.7599 -40.7599 -40.7592 -40.7591
   -40.7588 -40.7588 -12.9323 -12.9192 -12.9175 -12.9140 -12.9114  -7.8110
    -7.5828  -3.3522   1.6443   2.3177   2.3482   2.5375   2.8841   3.2499
     6.7021   7.2519   7.4475  10.0418  10.8146

     occupation numbers 
     1.0000   1.0000   1.0000   1.0000   1.0000   1.0000   1.0000   1.0000
     1.0000   1.0000   1.0000   1.0000   1.0000   1.0000   1.0000   1.0000
     1.0000   1.0000   1.0000   1.0000   1.0000   1.0000   1.0000   1.0000
     0.0000   0.0000   0.0000   0.0000   0.0000

          k = 0.4896-0.2827-0.0000 (  9448 PWs)   bands (ev):

   -40.7603 -40.7603 -40.7602 -40.7599 -40.7599 -40.7599 -40.7592 -40.7591
   -40.7588 -40.7587 -12.9428 -12.9190 -12.9188 -12.9100 -12.9061  -7.6061
    -7.4737  -3.6200   1.1481   1.7437   1.9320   2.4640   2.9757   3.2223
     6.5841   7.2991   8.0292   9.1854  11.5223

     occupation numbers 
     1.0000   1.0000   1.0000   1.0000   1.0000   1.0000   1.0000   1.0000
     1.0000   1.0000   1.0000   1.0000   1.0000   1.0000   1.0000   1.0000
     1.0000   1.0000   1.0000   1.0000   1.0000   1.0000   1.0000   1.0000
     0.0000   0.0000   0.0000   0.0000   0.0000

          k =-0.4896-0.2827 0.0000 (  9448 PWs)   bands (ev):

   -40.7603 -40.7603 -40.7602 -40.7599 -40.7599 -40.7599 -40.7592 -40.7591
   -40.7588 -40.7587 -12.9428 -12.9190 -12.9188 -12.9100 -12.9061  -7.6061
    -7.4737  -3.6200   1.1481   1.7438   1.9320   2.4640   2.9757   3.2222
     6.5840   7.2991   8.0293   9.1854  11.5225

     occupation numbers 
     1.0000   1.0000   1.0000   1.0000   1.0000   1.0000   1.0000   1.0000
     1.0000   1.0000   1.0000   1.0000   1.0000   1.0000   1.0000   1.0000
     1.0000   1.0000   1.0000   1.0000   1.0000   1.0000   1.0000   1.0000
     0.0000   0.0000   0.0000   0.0000   0.0000

          k = 0.4896-0.2827-0.3126 (  9464 PWs)   bands (ev):

   -40.7603 -40.7603 -40.7602 -40.7599 -40.7599 -40.7599 -40.7592 -40.7591
   -40.7588 -40.7587 -12.9429 -12.9190 -12.9189 -12.9100 -12.9061  -7.5685
    -7.5095  -3.6317   0.8760   2.0608   2.1757   2.6059   2.7631   3.0172
     6.8606   7.4050   7.5556   9.7671  11.2940

     occupation numbers 
     1.0000   1.0000   1.0000   1.0000   1.0000   1.0000   1.0000   1.0000
     1.0000   1.0000   1.0000   1.0000   1.0000   1.0000   1.0000   1.0000
     1.0000   1.0000   1.0000   1.0000   1.0000   1.0000   1.0000   1.0000
     0.0000   0.0000   0.0000   0.0000   0.0000

          k =-0.4896-0.2827-0.3126 (  9464 PWs)   bands (ev):

   -40.7603 -40.7603 -40.7602 -40.7599 -40.7599 -40.7599 -40.7592 -40.7591
   -40.7588 -40.7587 -12.9429 -12.9190 -12.9189 -12.9100 -12.9061  -7.5685
    -7.5095  -3.6317   0.8759   2.0608   2.1757   2.6060   2.7631   3.0172
     6.8605   7.4050   7.5555   9.7670  11.2941

     occupation numbers 
     1.0000   1.0000   1.0000   1.0000   1.0000   1.0000   1.0000   1.0000
     1.0000   1.0000   1.0000   1.0000   1.0000   1.0000   1.0000   1.0000
     1.0000   1.0000   1.0000   1.0000   1.0000   1.0000   1.0000   1.0000
     0.0000   0.0000   0.0000   0.0000   0.0000

          k =-0.2448 0.4240 0.0000 (  9492 PWs)   bands (ev):

   -40.7603 -40.7603 -40.7602 -40.7599 -40.7599 -40.7599 -40.7591 -40.7591
   -40.7588 -40.7587 -12.9361 -12.9244 -12.9146 -12.9138 -12.9082  -7.6246
    -7.4545  -3.6152   1.4002   1.5045   2.0549   2.3281   2.7517   3.1902
     7.3958   7.4285   7.7096  10.0728  10.4088

     occupation numbers 
     1.0000   1.0000   1.0000   1.0000   1.0000   1.0000   1.0000   1.0000
     1.0000   1.0000   1.0000   1.0000   1.0000   1.0000   1.0000   1.0000
     1.0000   1.0000   1.0000   1.0000   1.0000   1.0000   1.0000   1.0000
     0.0000   0.0000   0.0000   0.0000   0.0000

          k = 0.4896 0.0000-0.0000 (  9492 PWs)   bands (ev):

   -40.7603 -40.7603 -40.7602 -40.7599 -40.7599 -40.7599 -40.7592 -40.7591
   -40.7588 -40.7587 -12.9361 -12.9244 -12.9146 -12.9138 -12.9082  -7.6246
    -7.4545  -3.6152   1.4002   1.5045   2.0549   2.3281   2.7517   3.1902
     7.3958   7.4285   7.7096  10.0728  10.4088

     occupation numbers 
     1.0000   1.0000   1.0000   1.0000   1.0000   1.0000   1.0000   1.0000
     1.0000   1.0000   1.0000   1.0000   1.0000   1.0000   1.0000   1.0000
     1.0000   1.0000   1.0000   1.0000   1.0000   1.0000   1.0000   1.0000
     0.0000   0.0000   0.0000   0.0000   0.0000

          k =-0.2448 0.4240 0.3126 (  9460 PWs)   bands (ev):

   -40.7603 -40.7603 -40.7602 -40.7599 -40.7599 -40.7599 -40.7591 -40.7591
   -40.7588 -40.7587 -12.9361 -12.9244 -12.9145 -12.9137 -12.9082  -7.5851
    -7.4941  -3.6136   1.2091   1.3949   1.8237   2.8342   2.9111   3.4054
     6.9734   7.2605   7.5913  10.4514  11.2069

     occupation numbers 
     1.0000   1.0000   1.0000   1.0000   1.0000   1.0000   1.0000   1.0000
     1.0000   1.0000   1.0000   1.0000   1.0000   1.0000   1.0000   1.0000
     1.0000   1.0000   1.0000   1.0000   1.0000   1.0000   1.0000   1.0000
     0.0000   0.0000   0.0000   0.0000   0.0000

          k = 0.4896-0.0000-0.3126 (  9460 PWs)   bands (ev):

   -40.7603 -40.7603 -40.7602 -40.7599 -40.7599 -40.7599 -40.7592 -40.7591
   -40.7588 -40.7587 -12.9361 -12.9244 -12.9145 -12.9137 -12.9082  -7.5851
    -7.4942  -3.6136   1.2091   1.3949   1.8237   2.8342   2.9111   3.4055
     6.9734   7.2605   7.5913  10.4514  11.2069

     occupation numbers 
     1.0000   1.0000   1.0000   1.0000   1.0000   1.0000   1.0000   1.0000
     1.0000   1.0000   1.0000   1.0000   1.0000   1.0000   1.0000   1.0000
     1.0000   1.0000   1.0000   1.0000   1.0000   1.0000   1.0000   1.0000
     0.0000   0.0000   0.0000   0.0000   0.0000

     the Fermi energy is     4.2887 ev

!    total energy              =   -2023.63285958 Ry
     total all-electron energy =    -70280.323302 Ry
     estimated scf accuracy    <          4.1E-10 Ry
     smearing contrib. (-TS)   =      -0.00000000 Ry
     internal energy E=F+TS    =   -2023.63285958 Ry

     The total energy is F=E-TS. E is the sum of the following terms:
     one-electron contribution =    -371.87915182 Ry
     hartree contribution      =     207.85282565 Ry
     xc contribution           =    -141.76642437 Ry
     ewald contribution        =    -309.38379790 Ry
     one-center paw contrib.   =   -1408.45631114 Ry
      -> PAW hartree energy AE =      95.89008234 Ry
      -> PAW hartree energy PS =     -96.12658566 Ry
      -> PAW xc energy AE      =    -798.42893881 Ry
      -> PAW xc energy PS      =      33.30891329 Ry
      -> total E_H with PAW    =     207.61632233 Ry
      -> total E_XC with PAW   =    -906.88644990 Ry

     convergence has been achieved in  14 iterations


     -----------------------------------------------
     Non-local corr. energy    =       1.43836574 Ry
     -----------------------------------------------


     Forces acting on atoms (cartesian axes, Ry/au):

     atom    1 type  1   force =     0.00000061   -0.00000095    0.00000890
     atom    2 type  2   force =    -0.00000129    0.00000068    0.00128579
     atom    3 type  2   force =     0.00000068    0.00000028   -0.00129469
     The non-local contrib.  to forces
     atom    1 type  1   force =    -0.00000540   -0.00000311   -0.00000411
     atom    2 type  2   force =    -0.00000591    0.00000749    0.24766179
     atom    3 type  2   force =     0.00000800   -0.00000249   -0.24767368
     The ionic contribution  to forces
     atom    1 type  1   force =     0.00009889    0.00006249    0.00045413
     atom    2 type  2   force =     0.00015579   -0.00020497  -14.06413681
     atom    3 type  2   force =    -0.00025469    0.00014248   14.06368268
     The local contribution  to forces
     atom    1 type  1   force =    -0.00009410   -0.00005918   -0.00041547
     atom    2 type  2   force =    -0.00015154    0.00019864   13.82326727
     atom    3 type  2   force =     0.00024365   -0.00013910  -13.82279053
     The core correction contribution to forces
     atom    1 type  1   force =    -0.00000001    0.00000004   -0.00000002
     atom    2 type  2   force =    -0.00000022    0.00000146   -0.00553617
     atom    3 type  2   force =     0.00000022    0.00000100    0.00553610
     The Hubbard contrib.    to forces
     atom    1 type  1   force =     0.00000000    0.00000000    0.00000000
     atom    2 type  2   force =     0.00000000    0.00000000    0.00000000
     atom    3 type  2   force =     0.00000000    0.00000000    0.00000000
     The SCF correction term to forces
     atom    1 type  1   force =     0.00000070    0.00000010   -0.00001862
     atom    2 type  2   force =     0.00000006   -0.00000064    0.00003670
     atom    3 type  2   force =     0.00000297   -0.00000032   -0.00004225

     Total force =     0.001825     Total SCF correction =     0.000059


     Computing stress (Cartesian axis) and pressure



     -----------------------------------------------
     Non-local corr. energy    =       1.43836574 Ry
     -----------------------------------------------

          total   stress  (Ry/bohr**3)                   (kbar)     P=        0.59
   0.00000408   0.00000001  -0.00000001            0.60        0.00       -0.00
   0.00000001   0.00000410   0.00000001            0.00        0.60        0.00
  -0.00000001   0.00000001   0.00000395           -0.00        0.00        0.58

     kinetic stress (kbar)  14996.25      0.00     -0.00
                                0.00  14996.25      0.00
                               -0.00      0.00  15006.26

     local   stress (kbar)  -7293.67     -0.30      0.29
                               -0.30  -7294.17     -0.25
                                0.29     -0.25   1272.60

     nonloc. stress (kbar)  -1072.96      0.00     -0.00
                                0.00  -1072.96      0.00
                               -0.00      0.00  -1079.34

     hartree stress (kbar)  11940.49      0.13     -0.12
                                0.13  11940.71      0.10
                               -0.12      0.10   8079.30

     exc-cor stress (kbar)   6949.08      0.00     -0.00
                                0.00   6949.08      0.00
                               -0.00      0.00   6948.12

     corecor stress (kbar) -11314.05     -0.00      0.00
                               -0.00 -11314.05     -0.00
                                0.00     -0.00 -11314.02

     ewald   stress (kbar) -14287.89      0.17     -0.18
                                0.17 -14287.60      0.15
                               -0.18      0.15 -18996.93

     hubbard stress (kbar)      0.00      0.00      0.00
                                0.00      0.00      0.00
                                0.00      0.00      0.00

     DFT-D   stress (kbar)      0.00      0.00      0.00
                                0.00      0.00      0.00
                                0.00      0.00      0.00

     XDM     stress (kbar)      0.00      0.00      0.00
                                0.00      0.00      0.00
                                0.00      0.00      0.00

     dft-nl  stress (kbar)     83.35     -0.00      0.00
                               -0.00     83.35     -0.00
                                0.00     -0.00     84.59

     TS-vdW  stress (kbar)      0.00      0.00      0.00
                                0.00      0.00      0.00
                                0.00      0.00      0.00

     MDB     stress (kbar)      0.00      0.00      0.00
                                0.00      0.00      0.00
                                0.00      0.00      0.00

     3D-RISM stress (kbar)      0.00      0.00      0.00
                                0.00      0.00      0.00
                                0.00      0.00      0.00


     Writing all to output data dir ./PbI2.save/
 
     init_run     :      0.97s CPU      1.04s WALL (       2 calls)
     electrons    :     61.89s CPU     65.35s WALL (      11 calls)
     update_pot   :      2.79s CPU      2.86s WALL (       9 calls)
     forces       :      1.87s CPU      1.94s WALL (      11 calls)
     stress       :      3.51s CPU      3.62s WALL (      11 calls)

     Called by init_run:
     wfcinit      :      0.10s CPU      0.11s WALL (       2 calls)
     wfcinit:atom :      0.00s CPU      0.00s WALL (      10 calls)
     wfcinit:wfcr :      0.10s CPU      0.10s WALL (      10 calls)
     potinit      :      0.58s CPU      0.62s WALL (       2 calls)
     hinit0       :      0.23s CPU      0.25s WALL (       2 calls)

     Called by electrons:
     c_bands      :     34.29s CPU     35.22s WALL (     207 calls)
     sum_band     :      7.17s CPU      7.40s WALL (     207 calls)
     v_of_rho     :      9.16s CPU      9.67s WALL (     217 calls)
     v_h          :      0.10s CPU      0.10s WALL (     217 calls)
     v_xc         :      9.96s CPU     10.52s WALL (     239 calls)
     newd         :      1.12s CPU      1.15s WALL (     217 calls)
     PAW_pot      :     10.47s CPU     11.45s WALL (     226 calls)
     mix_rho      :      0.47s CPU      0.48s WALL (     207 calls)
     vdW_kernel   :      0.25s CPU      0.26s WALL (       1 calls)

     Called by c_bands:
     init_us_2    :      0.24s CPU      0.25s WALL (    2235 calls)
     init_us_2:cp :      0.23s CPU      0.24s WALL (    2235 calls)
     cegterg      :     31.14s CPU     31.77s WALL (    1035 calls)

     Called by sum_band:
     sum_band:wei :      0.06s CPU      0.06s WALL (     207 calls)
     sum_band:loo :      4.68s CPU      4.81s WALL (     207 calls)
     sum_band:buf :      0.04s CPU      0.04s WALL (    1035 calls)
     sum_band:ini :      0.10s CPU      0.10s WALL (    1035 calls)
     sum_band:cal :      0.37s CPU      0.38s WALL (    1080 calls)
     sum_band:bec :      0.02s CPU      0.03s WALL (    1080 calls)
     addusdens    :      1.38s CPU      1.41s WALL (     207 calls)
     addusd:skk   :      0.00s CPU      0.00s WALL (     414 calls)
     addusd:dgemm :      0.32s CPU      0.32s WALL (     414 calls)
     addusd:qvan2 :      0.54s CPU      0.55s WALL (     414 calls)

     Called by *egterg:
     cdiaghg      :      5.76s CPU      5.83s WALL (    3997 calls)
     cegterg:over :      1.45s CPU      1.48s WALL (    3012 calls)
     cegterg:upda :      0.53s CPU      0.54s WALL (    3012 calls)
     cegterg:last :      0.27s CPU      0.27s WALL (    1094 calls)
     h_psi        :     21.55s CPU     22.05s WALL (    4057 calls)
     s_psi        :      0.50s CPU      0.51s WALL (    4057 calls)
     g_psi        :      0.03s CPU      0.03s WALL (    3012 calls)

     Called by h_psi:
     h_psi:calbec :      1.05s CPU      1.08s WALL (    4057 calls)
     vloc_psi     :     19.86s CPU     20.32s WALL (    4057 calls)
     add_vuspsi   :      0.55s CPU      0.57s WALL (    4057 calls)

     General routines
     calbec       :      1.50s CPU      1.54s WALL (    5412 calls)
     fft          :      5.25s CPU      5.36s WALL (   15518 calls)
     ffts         :      0.12s CPU      0.13s WALL (     424 calls)
     fftw         :     22.59s CPU     23.12s WALL (  184675 calls)
     interpolate  :      0.18s CPU      0.19s WALL (     217 calls)
 
     Parallel routines

     PAW routines
     PAW_pot      :     10.47s CPU     11.45s WALL (     226 calls)
 
     PWSCF        :   1m12.35s CPU   1m17.13s WALL

 
   This run was terminated on:   8:17:38  12Feb2024            

=------------------------------------------------------------------------------=
   JOB DONE.
=------------------------------------------------------------------------------=
