
     Program PWSCF v.7.1 starts on 18Feb2024 at 12:15:32 

     This program is part of the open-source Quantum ESPRESSO suite
     for quantum simulation of materials; please cite
         "P. Giannozzi et al., J. Phys.:Condens. Matter 21 395502 (2009);
         "P. Giannozzi et al., J. Phys.:Condens. Matter 29 465901 (2017);
         "P. Giannozzi et al., J. Chem. Phys. 152 154105 (2020);
          URL http://www.quantum-espresso.org", 
     in publications or presentations arising from this work. More details at
     http://www.quantum-espresso.org/quote

     Parallel version (MPI & OpenMP), running on     128 processor cores
     Number of MPI processes:               128
     Threads/MPI process:                     1

     MPI processes distributed on     1 nodes
     1940382 MiB available memory on the printing compute node when the environment starts
 
     Reading input from espresso.pwi
Warning: card &CELL ignored
Warning: card    CELL_DYNAMICS    = 'BFGS' ignored
Warning: card / ignored

     Current dimensions of program PWSCF are:
     Max number of different atomic species (ntypx) = 10
     Max number of k-points (npk) =  40000
     Max angular momentum in pseudopotentials (lmaxx) =  4
     file Pb.pbe-dn-kjpaw_psl.1.0.0.UPF: wavefunction(s)  6S 6P 5D renormalized
     file I.pbe-dn-kjpaw_psl.1.0.0.UPF: wavefunction(s)  5S 5P renormalized

     **************************************************************************
     Initializing libbeef V0.1.2 with the BEEF-vdW functional.
     Citation: Wellendorff et al., PRB 85, 235149 (2012).
     **************************************************************************


     IMPORTANT: XC functional enforced from input :
     Exchange-correlation= BEEF-VDW
                           (   1   4  43  14   2   0   0)
     Any further DFT definition will be discarded
     Please, verify this is what you really want

 
     K-points division:     npool     =       2
     R & G space division:  proc/nbgrp/npool/nimage =      64
     Subspace diagonalization in iterative solution of the eigenvalue problem:
     a serial algorithm will be used

 
     Parallelization info
     --------------------
     sticks:   dense  smooth     PW     G-vecs:    dense   smooth      PW
     Min         268     215     55                29758    21295    2791
     Max         269     216     56                29767    21298    2796
     Sum       17215   13777   3559              1904969  1362953  178821
 
     Using Slab Decomposition
 


     bravais-lattice index     =            4
     lattice parameter (alat)  =      26.7090  a.u.
     unit-cell volume          =   17226.5091 (a.u.)^3
     number of atoms/cell      =           54
     number of atomic types    =            2
     number of electrons       =       869.00
     number of Kohn-Sham states=          522
     kinetic-energy cutoff     =      70.0000  Ry
     charge density cutoff     =     350.0000  Ry
     scf convergence threshold =      1.0E-07
     mixing beta               =       0.7000
     number of iterations used =            8  plain     mixing
     Exchange-correlation= BEEF-VDW
                           (   1   4  43  14   2   0   0)

     celldm(1)=  26.709025  celldm(2)=   0.000000  celldm(3)=   1.043981
     celldm(4)=   0.000000  celldm(5)=   0.000000  celldm(6)=   0.000000

     crystal axes: (cart. coord. in units of alat)
               a(1) = (   1.000000   0.000000   0.000000 )  
               a(2) = (  -0.500000   0.866025   0.000000 )  
               a(3) = (   0.000000   0.000000   1.043981 )  

     reciprocal axes: (cart. coord. in units 2 pi/alat)
               b(1) = (  1.000000  0.577350 -0.000000 )  
               b(2) = (  0.000000  1.154701  0.000000 )  
               b(3) = (  0.000000 -0.000000  0.957872 )  


     PseudoPot. # 1 for Pb read from file:
     /trace/group/acmegroup/atimmins/packages/espresso/pseudo/psl_1.0.0/pslibrary.1.0.0/pbe/PSEUDOPOTENTIALS/Pb.pbe-dn-kjpaw_psl.1.0.0.UPF
     MD5 check sum: 39ab5b8a6bbd56b7735ad9f188aac93a
     Pseudo is Projector augmented-wave + core cor, Zval = 14.0
     Generated using 'atomic' code by A. Dal Corso  v.7.1
     Shape of augmentation charge: PSQ
     Using radial grid of 1281 points,  6 beta functions with: 
                l(1) =   0
                l(2) =   0
                l(3) =   1
                l(4) =   1
                l(5) =   2
                l(6) =   2
     Q(r) pseudized with 0 coefficients 


     PseudoPot. # 2 for I  read from file:
     /trace/group/acmegroup/atimmins/packages/espresso/pseudo/psl_1.0.0/pslibrary.1.0.0/pbe/PSEUDOPOTENTIALS/I.pbe-dn-kjpaw_psl.1.0.0.UPF
     MD5 check sum: bfa8781bc1224d19af3f3980e3fab11e
     Pseudo is Projector augmented-wave + core cor, Zval = 17.0
     Generated using 'atomic' code by A. Dal Corso  v.7.1
     Shape of augmentation charge: PSQ
     Using radial grid of 1247 points,  6 beta functions with: 
                l(1) =   0
                l(2) =   0
                l(3) =   1
                l(4) =   1
                l(5) =   2
                l(6) =   2
     Q(r) pseudized with 0 coefficients 


     atomic species   valence    mass     pseudopotential
        Pb            14.00   207.20000     Pb( 1.00)
        I             17.00   126.90447     I ( 1.00)

     No symmetry found


                                    s                        frac. trans.

      isym =  1     identity                                     

 cryst.   s( 1) = (     1          0          0      )
                  (     0          1          0      )
                  (     0          0          1      )

 cart.    s( 1) = (  1.0000000  0.0000000  0.0000000 )
                  (  0.0000000  1.0000000  0.0000000 )
                  (  0.0000000  0.0000000  1.0000000 )


     point group C_1 (1)    
     there are  1 classes
     the character table:

       E    
A      1.00

     the symmetry operations in each class and the name of the first element:

     E        1
          identity                                               

   Cartesian axes

     site n.     atom                  positions (alat units)
         1           Pb  tau(   1) = (   0.1666712   0.2886557   0.5219862  )
         2           Pb  tau(   2) = (   0.0000102   0.5773235   1.0439712  )
         3           Pb  tau(   3) = (   0.0000034   0.5773295   0.5219807  )
         4           Pb  tau(   4) = (  -0.1666576   0.8659973   1.0439657  )
         5           Pb  tau(   5) = (  -0.1666644   0.8660033   0.5219752  )
         6           Pb  tau(   6) = (   0.5000113   0.2886484   1.0439810  )
         7           Pb  tau(   7) = (   0.5000045   0.2886544   0.5219905  )
         8           Pb  tau(   8) = (   0.3333436   0.5773222   1.0439755  )
         9           Pb  tau(   9) = (   0.3333367   0.5773282   0.5219850  )
        10           Pb  tau(  10) = (   0.1666758   0.8659960   1.0439700  )
        11           Pb  tau(  11) = (   0.1666690   0.8660020   0.5219795  )
        12           Pb  tau(  12) = (   0.8333447   0.2886471   1.0439853  )
        13           Pb  tau(  13) = (   0.8333379   0.2886531   0.5219949  )
        14           Pb  tau(  14) = (   0.6666769   0.5773209   1.0439798  )
        15           Pb  tau(  15) = (   0.6666701   0.5773269   0.5219894  )
        16           Pb  tau(  16) = (   0.5000091   0.8659947   1.0439743  )
        17           Pb  tau(  17) = (   0.5000023   0.8660007   0.5219839  )
        18           I   tau(  18) = (   0.1666738   0.0962066   0.3879099  )
        19           I   tau(  19) = (   0.1666806   0.0962006   0.9099004  )
        20           I   tau(  20) = (   0.0000060   0.3848804   0.3879044  )
        21           I   tau(  21) = (   0.0000129   0.3848744   0.9098949  )
        22           I   tau(  22) = (  -0.1666617   0.6735542   0.3878990  )
        23           I   tau(  23) = (  -0.1666549   0.6735482   0.9098894  )
        24           I   tau(  24) = (   0.5000071   0.0962053   0.3879143  )
        25           I   tau(  25) = (   0.5000140   0.0961993   0.9099047  )
        26           I   tau(  26) = (   0.3333394   0.3848792   0.3879088  )
        27           I   tau(  27) = (   0.3333462   0.3848731   0.9098993  )
        28           I   tau(  28) = (   0.1666716   0.6735530   0.3879033  )
        29           I   tau(  29) = (   0.1666784   0.6735469   0.9098938  )
        30           I   tau(  30) = (   0.8333405   0.0962041   0.3879186  )
        31           I   tau(  31) = (   0.8333473   0.0961980   0.9099091  )
        32           I   tau(  32) = (   0.6666727   0.3848779   0.3879131  )
        33           I   tau(  33) = (   0.6666795   0.3848718   0.9099036  )
        34           I   tau(  34) = (   0.5000049   0.6735517   0.3879076  )
        35           I   tau(  35) = (   0.5000117   0.6735457   0.9098981  )
        36           I   tau(  36) = (  -0.0000023   0.1924396   0.1340740  )
        37           I   tau(  37) = (   0.0000045   0.1924336   0.6560644  )
        38           I   tau(  38) = (  -0.1666701   0.4811134   0.1340685  )
        39           I   tau(  39) = (  -0.1666632   0.4811074   0.6560589  )
        40           I   tau(  40) = (  -0.3333378   0.7697873   0.1340630  )
        41           I   tau(  41) = (  -0.3333310   0.7697812   0.6560534  )
        42           I   tau(  42) = (   0.3333311   0.1924384   0.1340783  )
        43           I   tau(  43) = (   0.3333379   0.1924323   0.6560688  )
        44           I   tau(  44) = (   0.1666633   0.4811122   0.1340728  )
        45           I   tau(  45) = (   0.1666701   0.4811061   0.6560633  )
        46           I   tau(  46) = (  -0.0000045   0.7697860   0.1340673  )
        47           I   tau(  47) = (   0.0000023   0.7697799   0.6560578  )
        48           I   tau(  48) = (   0.6666644   0.1924371   0.1340827  )
        49           I   tau(  49) = (   0.6666712   0.1924310   0.6560731  )
        50           I   tau(  50) = (   0.4999966   0.4811109   0.1340772  )
        51           I   tau(  51) = (   0.5000034   0.4811049   0.6560676  )
        52           I   tau(  52) = (   0.3333288   0.7697847   0.1340717  )
        53           I   tau(  53) = (   0.3333356   0.7697787   0.6560621  )
        54           I   tau(  54) = (   0.1666780   0.2886497   1.0439767  )

   Crystallographic axes

     site n.     atom                  positions (cryst. coord.)
         1           Pb  tau(   1) = (  0.3333266  0.3333109  0.4999959  )
         2           Pb  tau(   2) = (  0.3333281  0.6666357  0.9999906  )
         3           Pb  tau(   3) = (  0.3333248  0.6666427  0.4999906  )
         4           Pb  tau(   4) = (  0.3333262  0.9999675  0.9999854  )
         5           Pb  tau(   5) = (  0.3333229  0.9999745  0.4999854  )
         6           Pb  tau(   6) = (  0.6666626  0.3333025  1.0000001  )
         7           Pb  tau(   7) = (  0.6666592  0.3333094  0.5000001  )
         8           Pb  tau(   8) = (  0.6666607  0.6666343  0.9999948  )
         9           Pb  tau(   9) = (  0.6666573  0.6666412  0.4999948  )
        10           Pb  tau(  10) = (  0.6666588  0.9999661  0.9999895  )
        11           Pb  tau(  11) = (  0.6666555  0.9999730  0.4999895  )
        12           Pb  tau(  12) = (  0.9999951  0.3333010  1.0000042  )
        13           Pb  tau(  13) = (  0.9999918  0.3333079  0.5000042  )
        14           Pb  tau(  14) = (  0.9999933  0.6666328  0.9999990  )
        15           Pb  tau(  15) = (  0.9999899  0.6666397  0.4999990  )
        16           Pb  tau(  16) = (  0.9999914  0.9999646  0.9999937  )
        17           Pb  tau(  17) = (  0.9999881  0.9999715  0.4999937  )
        18           I   tau(  18) = (  0.2222187  0.1110899  0.3715680  )
        19           I   tau(  19) = (  0.2222221  0.1110829  0.8715680  )
        20           I   tau(  20) = (  0.2222169  0.4444217  0.3715628  )
        21           I   tau(  21) = (  0.2222202  0.4444147  0.8715628  )
        22           I   tau(  22) = (  0.2222150  0.7777534  0.3715575  )
        23           I   tau(  23) = (  0.2222183  0.7777465  0.8715575  )
        24           I   tau(  24) = (  0.5555513  0.1110884  0.3715722  )
        25           I   tau(  25) = (  0.5555547  0.1110814  0.8715722  )
        26           I   tau(  26) = (  0.5555495  0.4444202  0.3715669  )
        27           I   tau(  27) = (  0.5555528  0.4444132  0.8715669  )
        28           I   tau(  28) = (  0.5555476  0.7777520  0.3715617  )
        29           I   tau(  29) = (  0.5555509  0.7777450  0.8715617  )
        30           I   tau(  30) = (  0.8888839  0.1110869  0.3715764  )
        31           I   tau(  31) = (  0.8888873  0.1110799  0.8715764  )
        32           I   tau(  32) = (  0.8888820  0.4444187  0.3715711  )
        33           I   tau(  33) = (  0.8888854  0.4444117  0.8715711  )
        34           I   tau(  34) = (  0.8888802  0.7777505  0.3715658  )
        35           I   tau(  35) = (  0.8888835  0.7777435  0.8715658  )
        36           I   tau(  36) = (  0.1111028  0.2222102  0.1284257  )
        37           I   tau(  37) = (  0.1111061  0.2222032  0.6284257  )
        38           I   tau(  38) = (  0.1111009  0.5555420  0.1284204  )
        39           I   tau(  39) = (  0.1111043  0.5555350  0.6284204  )
        40           I   tau(  40) = (  0.1110991  0.8888738  0.1284152  )
        41           I   tau(  41) = (  0.1111024  0.8888668  0.6284152  )
        42           I   tau(  42) = (  0.4444354  0.2222087  0.1284299  )
        43           I   tau(  43) = (  0.4444387  0.2222017  0.6284299  )
        44           I   tau(  44) = (  0.4444335  0.5555405  0.1284246  )
        45           I   tau(  45) = (  0.4444369  0.5555335  0.6284246  )
        46           I   tau(  46) = (  0.4444316  0.8888723  0.1284193  )
        47           I   tau(  47) = (  0.4444350  0.8888653  0.6284193  )
        48           I   tau(  48) = (  0.7777680  0.2222072  0.1284340  )
        49           I   tau(  49) = (  0.7777713  0.2222002  0.6284340  )
        50           I   tau(  50) = (  0.7777661  0.5555390  0.1284287  )
        51           I   tau(  51) = (  0.7777694  0.5555320  0.6284287  )
        52           I   tau(  52) = (  0.7777642  0.8888708  0.1284235  )
        53           I   tau(  53) = (  0.7777676  0.8888638  0.6284235  )
        54           I   tau(  54) = (  0.3333300  0.3333039  0.9999959  )

     number of k points=     4  Gaussian smearing, width (Ry)=  0.0100
                       cart. coord. in units 2pi/alat
        k(    1) = (   0.0000000   0.0000000   0.0000000), wk =   0.5000000
        k(    2) = (   0.0000000  -0.5773503   0.0000000), wk =   0.5000000
        k(    3) = (   0.5000000  -0.2886751   0.0000000), wk =   0.5000000
        k(    4) = (  -0.5000000  -0.2886751   0.0000000), wk =   0.5000000

                       cryst. coord.
        k(    1) = (   0.0000000   0.0000000   0.0000000), wk =   0.5000000
        k(    2) = (   0.0000000  -0.5000000   0.0000000), wk =   0.5000000
        k(    3) = (   0.5000000  -0.5000000   0.0000000), wk =   0.5000000
        k(    4) = (  -0.5000000   0.0000000   0.0000000), wk =   0.5000000

     Dense  grid:  1904969 G-vectors     FFT dimensions: ( 160, 160, 180)

     Smooth grid:  1362953 G-vectors     FFT dimensions: ( 144, 144, 150)

     Dynamical RAM for                 wfc:      21.20 MB

     Dynamical RAM for     wfc (w. buffer):      63.61 MB

     Dynamical RAM for           str. fact:       0.91 MB

     Dynamical RAM for           local pot:       0.00 MB

     Dynamical RAM for          nlocal pot:      39.48 MB

     Dynamical RAM for                qrad:       3.00 MB

     Dynamical RAM for          rho,v,vnew:       3.12 MB

     Dynamical RAM for               rhoin:       1.04 MB

     Dynamical RAM for            rho*nmix:       7.27 MB

     Dynamical RAM for           G-vectors:       1.87 MB

     Dynamical RAM for          h,s,v(r/c):     199.57 MB

     Dynamical RAM for          <psi|beta>:       7.74 MB

     Dynamical RAM for                 psi:      84.81 MB

     Dynamical RAM for                hpsi:      84.81 MB

     Dynamical RAM for                spsi:      84.81 MB

     Dynamical RAM for      wfcinit/wfcrot:      48.65 MB

     Dynamical RAM for           addusdens:      50.87 MB

     Dynamical RAM for          addusforce:      67.37 MB

     Dynamical RAM for         addusstress:      45.76 MB

     Estimated static dynamical RAM per process >     117.32 MB

     Estimated max dynamical RAM per process >     586.34 MB

     Estimated total dynamical RAM >      72.84 GB

     Atomic positions and unit cell read from directory:
     ./PbI2.save/
     Atomic positions from file used, from input discarded
 

     Check: negative core charge=   -0.000002

     The initial density is read from file :
     ./PbI2.save/charge-density



     %%%%%%%%%%%%%%%%%%%%%%%%%%%%%%%%%%%%%%%%%%%%%%%%%%%%%%%%%%%%%%%%%%%%%%%%
     %                                                                      %
     % You are using vdW-DF, which was implemented by the Thonhauser group. %
     % Please cite the following two papers that made this development      %
     % possible and the two reviews that describe the various versions:     %
     %                                                                      %
     %   T. Thonhauser et al., PRL 115, 136402 (2015).                      %
     %   T. Thonhauser et al., PRB 76, 125112 (2007).                       %
     %   K. Berland et al., Rep. Prog. Phys. 78, 066501 (2015).             %
     %   D.C. Langreth et al., J. Phys.: Condens. Matter 21, 084203 (2009). %
     %                                                                      %
     % If you are calculating stress with vdW-DF, please also cite:         %
     %                                                                      %
     %   R. Sabatini et al., J. Phys.: Condens. Matter 24, 424209 (2012).   %
     %                                                                      %
     %%%%%%%%%%%%%%%%%%%%%%%%%%%%%%%%%%%%%%%%%%%%%%%%%%%%%%%%%%%%%%%%%%%%%%%%

     %%%%%%%%%%%%%%%%%%%%%%%%%%%%%%%%%%%%%%%%%%%%%%%%%%%%%%%%%%%%%%%%%%%%%%%%
     %                                                                      %
     %  vdW-DF NEWS:                                                        %
     %                                                                      %
     %  * vdW-DF3 is now available. DOI: 10.1021/acs.jctc.0c00471           %
     %    use with input_dft = 'vdW-DF3-opt1' or 'vdW-DF3-opt2'             %
     %                                                                      %
     %  * Unscreened and range-separated vdW-DF hybrid functionals          %
     %    DOI: 10.1063/1.4986522 and 10.1088/1361-648X/ac2ad2               %
     %    use with input_dft = 'vdW-DF-cx0' (etc) and 'vdW-DF-ahcx'         %
     %                                                                      %
     %%%%%%%%%%%%%%%%%%%%%%%%%%%%%%%%%%%%%%%%%%%%%%%%%%%%%%%%%%%%%%%%%%%%%%%%


     Carrying out vdW-DF run using the following parameters:
     Nqs    =  20  Npoints =  1024  r_max =  100.000
     q_mesh =  0.00001000  0.04494208  0.09755937  0.15916263
               0.23128650  0.31572767  0.41458969  0.53033537
               0.66584808  0.82450364  1.01025438  1.22772762
               1.48234092  1.78043706  2.12944203  2.53805004
               3.01644009  3.57652955  4.23227104  5.00000000


     -----------------------------------------------
     Non-local corr. energy    =      26.18681126 Ry
     -----------------------------------------------

     Starting wfcs from file
     Checking if some PAW data can be deallocated... 
       PAW data deallocated on   77 nodes for type:  1
       PAW data deallocated on   51 nodes for type:  2

     total cpu time spent up to now is       11.8 secs

     Self-consistent Calculation

     iteration #  1     ecut=    70.00 Ry     beta= 0.70
     Davidson diagonalization with overlap

---- Real-time Memory Report at c_bands before calling an iterative solver
           289 MiB given to the printing process from OS
             0 MiB allocation reported by mallinfo(arena+hblkhd)
       1920635 MiB available memory on the node where the printing process lives
------------------
     ethr =  1.00E-05,  avg # of iterations =  1.0

     Threshold (ethr) on eigenvalues was too large:
     Diagonalizing with lowered threshold

     Davidson diagonalization with overlap

---- Real-time Memory Report at c_bands before calling an iterative solver
           567 MiB given to the printing process from OS
             0 MiB allocation reported by mallinfo(arena+hblkhd)
       1911977 MiB available memory on the node where the printing process lives
------------------
     ethr =  8.74E-13,  avg # of iterations = 16.5


     -----------------------------------------------
     Non-local corr. energy    =      26.18681261 Ry
     -----------------------------------------------


     total cpu time spent up to now is      123.1 secs

     End of self-consistent calculation

          k = 0.0000 0.0000 0.0000 (170421 PWs)   bands (ev):

   -41.1586 -41.1584 -41.1583 -41.1582 -41.1579 -41.1577 -41.1574 -41.1571
   -41.1567 -41.1565 -41.1557 -41.1554 -41.1547 -41.1545 -41.1544 -41.1541
   -41.1531 -41.1529 -41.1528 -41.1527 -41.1520 -41.1518 -41.1512 -41.1509
   -41.1507 -41.1503 -41.1496 -41.1494 -41.1492 -41.1490 -41.1460 -41.1457
   -41.1455 -41.1452 -41.1435 -41.1432 -41.1430 -41.1427 -41.1409 -41.1407
   -41.1403 -41.1401 -41.1397 -41.1397 -41.1395 -41.1395 -41.1390 -41.1389
   -41.1387 -41.1386 -41.1386 -41.1383 -41.1375 -41.1372 -41.1348 -41.1346
   -41.1341 -41.1340 -41.1330 -41.1328 -41.1290 -41.1290 -41.1290 -41.1289
   -41.1289 -41.1288 -41.1286 -41.1286 -41.1266 -41.1264 -41.1263 -41.1262
   -41.1253 -41.1250 -41.1250 -41.1248 -41.1247 -41.1244 -41.1242 -41.1241
   -41.1236 -41.1232 -41.1229 -41.1228 -41.1225 -41.1223 -41.1222 -41.1220
   -41.1212 -41.1209 -40.6211 -40.6209 -40.6193 -40.6191 -40.6191 -40.6188
   -40.6177 -40.6175 -40.6172 -40.6169 -40.6168 -40.6165 -40.6160 -40.6157
   -40.6153 -40.6149 -40.6139 -40.6136 -40.6098 -40.6096 -40.6094 -40.6093
   -40.6076 -40.6073 -40.6073 -40.6070 -40.6059 -40.6056 -40.6056 -40.6053
   -40.5179 -40.5174 -40.5162 -40.5158 -40.5157 -40.5156 -40.5133 -40.5128
   -40.5112 -40.5108 -40.5105 -40.5104 -40.5082 -40.5076 -40.5065 -40.5061
   -40.5060 -40.5059 -40.4921 -40.4916 -40.4916 -40.4911 -40.4901 -40.4897
   -40.4896 -40.4892 -40.4890 -40.4889 -40.4885 -40.4884 -40.2048 -40.2038
   -40.2038 -40.2028 -40.2008 -40.2002 -40.1999 -40.1992 -40.1958 -40.1957
   -40.1947 -40.1946 -40.1481 -40.1468 -40.1443 -40.1441 -40.1432 -40.1429
   -40.1399 -40.1390 -40.1377 -40.1376 -40.1338 -40.1337 -40.1274 -40.1260
   -40.1232 -40.1221 -40.1165 -40.1164 -39.5603 -39.5544 -39.5520 -39.5329
   -39.5329 -13.3171 -13.3159 -13.3110 -13.3105 -13.3099 -13.3098 -13.3086
   -13.3081 -13.3038 -13.3034 -13.2978 -13.2974 -13.2971 -13.2956 -13.2953
   -13.2951 -13.2943 -13.2940 -13.2938 -13.2920 -13.2915 -13.2910 -13.2898
   -13.2898 -13.2893 -13.2888 -13.2884 -13.2872 -13.2858 -13.2850 -13.2811
   -13.2810 -13.2697 -13.2674 -13.2670 -13.2539 -13.2538 -13.2531 -13.2530
   -13.2405 -13.2403 -13.2375 -13.2373 -13.2372 -13.2369 -12.7900 -12.7899
   -12.7892 -12.7890 -12.7776 -12.7775 -12.7720 -12.7720 -12.7711 -12.7710
   -12.6878 -12.6812 -12.6797 -12.6768 -12.6742 -12.6720 -12.6696 -12.6684
   -12.6680 -12.6666 -12.6646 -12.6610 -12.6563 -12.6494 -12.6488 -12.6483
   -12.6465 -12.6452 -12.6420 -12.6413 -12.6393 -12.6378 -12.6374 -12.6348
   -12.6342 -12.6316 -12.6309 -12.6299 -12.6282 -12.6252  -8.4525  -8.1527
    -8.1426  -8.1418  -8.1234  -8.1212  -8.1199  -8.0105  -7.8986  -7.8952
    -7.8938  -7.8908  -7.8894  -7.8831  -7.8828  -7.8733  -7.8671  -7.8654
    -7.7965  -7.5726  -7.5318  -7.5317  -7.4953  -7.4932  -7.3896  -7.3295
    -7.3241  -7.3223  -7.2673  -7.2669  -7.0874  -7.0191  -7.0170  -6.9777
    -6.9743  -6.9357  -6.1660  -4.0874  -4.0769  -3.8805  -3.8782  -3.8778
    -3.8773  -3.8566  -3.8481  -3.5083  -3.4622  -3.4212  -3.3460  -3.2157
    -3.2144  -3.2099  -3.2099  -2.9412   0.8641   0.8717   0.8718   0.8739
     0.8745   0.8884   0.9289   0.9299   0.9352   0.9359   1.1698   1.1785
     1.4087   1.4089   1.4412   1.4699   1.4702   1.5238   1.6112   1.6159
     1.6178   1.6496   1.6515   1.6521   1.6834   1.6837   1.7108   1.7122
     1.7154   1.7175   1.7195   1.7282   1.7294   1.7874   1.7879   2.0209
     2.0380   2.1806   2.1810   2.2020   2.2039   2.2505   2.2510   2.2551
     2.2555   2.2583   2.3222   2.3453   2.3486   2.3517   2.3525   2.4179
     2.4401   2.4409   2.4505   2.4583   2.4608   2.4977   2.4981   2.4998
     2.5223   2.5231   2.5396   2.5412   2.5517   2.5518   2.6315   2.6382
     2.6621   2.6730   2.6732   2.6983   2.6997   2.7048   2.7060   2.7800
     2.8655   2.8777   2.9798   2.9814   3.0120   3.0121   3.0277   3.0478
     3.0481   3.0504   3.0519   3.0728   3.0849   3.1323   3.1617   3.1619
     3.1720   3.1727   3.2650   3.2722   3.2762   3.3609   3.3632   3.4177
     3.4181   3.4996   3.5322   3.6259   3.6265   3.6524   3.6553   3.7076
     4.6181   4.6628   4.6649   5.6366   6.2868   6.2929   6.3039   6.3082
     6.3144   6.3152   6.4652   6.4661   6.4718   6.8488   6.8711   6.8789
     6.9423   6.9474   6.9614   6.9640   6.9662   6.9680   6.9752   6.9754
     6.9946   6.9977   7.0108   7.0143   7.2309   7.2488   7.2523   7.2646
     7.2661   7.2699   7.3971   7.4190   7.4248   7.4424   7.4974   7.4983
     7.5143   7.5551   7.5778   7.5997   7.6051   7.6706   7.6716   7.7531
     7.8479   7.8513   7.8975   7.9581   7.9590   8.1986   9.2508   9.2906
     9.2908   9.3250   9.3303   9.3326   9.7458   9.8783   9.8784   9.9306
    10.0817  10.1065  10.1870  10.1921  10.2248  10.3146  10.6421  10.7954
    10.7981  10.8051  10.8062  10.8503  10.8829  10.9405  10.9611  10.9701
    10.9736  10.9753  10.9759  11.0355  11.0373  11.0580  11.0735  11.0774
    11.1157  11.1177

     occupation numbers 
     1.0000   1.0000   1.0000   1.0000   1.0000   1.0000   1.0000   1.0000
     1.0000   1.0000   1.0000   1.0000   1.0000   1.0000   1.0000   1.0000
     1.0000   1.0000   1.0000   1.0000   1.0000   1.0000   1.0000   1.0000
     1.0000   1.0000   1.0000   1.0000   1.0000   1.0000   1.0000   1.0000
     1.0000   1.0000   1.0000   1.0000   1.0000   1.0000   1.0000   1.0000
     1.0000   1.0000   1.0000   1.0000   1.0000   1.0000   1.0000   1.0000
     1.0000   1.0000   1.0000   1.0000   1.0000   1.0000   1.0000   1.0000
     1.0000   1.0000   1.0000   1.0000   1.0000   1.0000   1.0000   1.0000
     1.0000   1.0000   1.0000   1.0000   1.0000   1.0000   1.0000   1.0000
     1.0000   1.0000   1.0000   1.0000   1.0000   1.0000   1.0000   1.0000
     1.0000   1.0000   1.0000   1.0000   1.0000   1.0000   1.0000   1.0000
     1.0000   1.0000   1.0000   1.0000   1.0000   1.0000   1.0000   1.0000
     1.0000   1.0000   1.0000   1.0000   1.0000   1.0000   1.0000   1.0000
     1.0000   1.0000   1.0000   1.0000   1.0000   1.0000   1.0000   1.0000
     1.0000   1.0000   1.0000   1.0000   1.0000   1.0000   1.0000   1.0000
     1.0000   1.0000   1.0000   1.0000   1.0000   1.0000   1.0000   1.0000
     1.0000   1.0000   1.0000   1.0000   1.0000   1.0000   1.0000   1.0000
     1.0000   1.0000   1.0000   1.0000   1.0000   1.0000   1.0000   1.0000
     1.0000   1.0000   1.0000   1.0000   1.0000   1.0000   1.0000   1.0000
     1.0000   1.0000   1.0000   1.0000   1.0000   1.0000   1.0000   1.0000
     1.0000   1.0000   1.0000   1.0000   1.0000   1.0000   1.0000   1.0000
     1.0000   1.0000   1.0000   1.0000   1.0000   1.0000   1.0000   1.0000
     1.0000   1.0000   1.0000   1.0000   1.0000   1.0000   1.0000   1.0000
     1.0000   1.0000   1.0000   1.0000   1.0000   1.0000   1.0000   1.0000
     1.0000   1.0000   1.0000   1.0000   1.0000   1.0000   1.0000   1.0000
     1.0000   1.0000   1.0000   1.0000   1.0000   1.0000   1.0000   1.0000
     1.0000   1.0000   1.0000   1.0000   1.0000   1.0000   1.0000   1.0000
     1.0000   1.0000   1.0000   1.0000   1.0000   1.0000   1.0000   1.0000
     1.0000   1.0000   1.0000   1.0000   1.0000   1.0000   1.0000   1.0000
     1.0000   1.0000   1.0000   1.0000   1.0000   1.0000   1.0000   1.0000
     1.0000   1.0000   1.0000   1.0000   1.0000   1.0000   1.0000   1.0000
     1.0000   1.0000   1.0000   1.0000   1.0000   1.0000   1.0000   1.0000
     1.0000   1.0000   1.0000   1.0000   1.0000   1.0000   1.0000   1.0000
     1.0000   1.0000   1.0000   1.0000   1.0000   1.0000   1.0000   1.0000
     1.0000   1.0000   1.0000   1.0000   1.0000   1.0000   1.0000   1.0000
     1.0000   1.0000   1.0000   1.0000   1.0000   1.0000   1.0000   1.0000
     1.0000   1.0000   1.0000   1.0000   1.0000   1.0000   1.0000   1.0000
     1.0000   1.0000   1.0000   1.0000   1.0000   1.0000   1.0000   1.0000
     1.0000   1.0000   1.0000   1.0000   1.0000   1.0000   1.0000   1.0000
     1.0000   1.0000   1.0000   1.0000   1.0000   1.0000   1.0000   1.0000
     1.0000   1.0000   1.0000   1.0000   1.0000   1.0000   1.0000   1.0000
     1.0000   1.0000   1.0000   1.0000   1.0000   1.0000   1.0000   1.0000
     1.0000   1.0000   1.0000   1.0000   1.0000   1.0000   1.0000   1.0000
     1.0000   1.0000   1.0000   1.0000   1.0000   1.0000   1.0000   1.0000
     1.0000   1.0000   1.0000   1.0000   1.0000   1.0000   1.0000   1.0000
     1.0000   1.0000   1.0000   1.0000   1.0000   1.0000   1.0000   1.0000
     1.0000   1.0000   1.0000   1.0000   1.0000   1.0000   1.0000   1.0000
     1.0000   1.0000   1.0000   1.0000   1.0000   1.0000   1.0000   1.0000
     1.0000   1.0000   1.0000   1.0000   1.0000   1.0000   1.0000   1.0000
     1.0000   1.0000   1.0000   1.0000   1.0000   1.0000   1.0000   1.0000
     1.0000   1.0000   1.0000   1.0000   1.0000   1.0000   1.0000   1.0000
     1.0000   1.0000   1.0000   1.0000   1.0000   1.0000   1.0000   1.0000
     1.0000   1.0000   1.0000   1.0000   1.0000   1.0000   1.0000   1.0000
     1.0000   1.0000   1.0000   1.0000   1.0000   1.0000   1.0000   1.0000
     0.9112   0.8116   0.8055   0.0000   0.0000   0.0000   0.0000   0.0000
     0.0000   0.0000   0.0000   0.0000   0.0000   0.0000   0.0000   0.0000
     0.0000   0.0000   0.0000   0.0000   0.0000   0.0000   0.0000   0.0000
     0.0000   0.0000   0.0000   0.0000   0.0000   0.0000   0.0000   0.0000
     0.0000   0.0000   0.0000   0.0000   0.0000   0.0000   0.0000   0.0000
     0.0000   0.0000   0.0000   0.0000   0.0000   0.0000   0.0000   0.0000
     0.0000   0.0000   0.0000   0.0000   0.0000   0.0000   0.0000   0.0000
     0.0000   0.0000   0.0000   0.0000   0.0000   0.0000   0.0000   0.0000
     0.0000   0.0000   0.0000   0.0000   0.0000   0.0000   0.0000   0.0000
     0.0000   0.0000   0.0000   0.0000   0.0000   0.0000   0.0000   0.0000
     0.0000   0.0000   0.0000   0.0000   0.0000   0.0000   0.0000   0.0000
     0.0000   0.0000

          k = 0.0000-0.5774 0.0000 (170366 PWs)   bands (ev):

   -41.1586 -41.1584 -41.1583 -41.1582 -41.1579 -41.1577 -41.1574 -41.1571
   -41.1567 -41.1565 -41.1557 -41.1554 -41.1547 -41.1545 -41.1544 -41.1541
   -41.1531 -41.1529 -41.1528 -41.1527 -41.1520 -41.1518 -41.1512 -41.1509
   -41.1507 -41.1503 -41.1496 -41.1494 -41.1492 -41.1490 -41.1460 -41.1457
   -41.1455 -41.1452 -41.1435 -41.1432 -41.1430 -41.1427 -41.1409 -41.1407
   -41.1403 -41.1401 -41.1397 -41.1397 -41.1395 -41.1395 -41.1390 -41.1389
   -41.1387 -41.1386 -41.1386 -41.1383 -41.1375 -41.1372 -41.1348 -41.1346
   -41.1341 -41.1340 -41.1330 -41.1328 -41.1290 -41.1290 -41.1290 -41.1289
   -41.1289 -41.1288 -41.1286 -41.1286 -41.1266 -41.1264 -41.1263 -41.1262
   -41.1253 -41.1250 -41.1250 -41.1248 -41.1247 -41.1244 -41.1242 -41.1241
   -41.1236 -41.1232 -41.1229 -41.1228 -41.1225 -41.1223 -41.1222 -41.1220
   -41.1212 -41.1209 -40.6211 -40.6209 -40.6193 -40.6191 -40.6191 -40.6188
   -40.6177 -40.6175 -40.6172 -40.6169 -40.6168 -40.6165 -40.6160 -40.6157
   -40.6153 -40.6149 -40.6139 -40.6136 -40.6098 -40.6096 -40.6094 -40.6093
   -40.6076 -40.6073 -40.6073 -40.6070 -40.6059 -40.6056 -40.6056 -40.6053
   -40.5179 -40.5174 -40.5162 -40.5158 -40.5157 -40.5156 -40.5133 -40.5128
   -40.5112 -40.5108 -40.5105 -40.5104 -40.5082 -40.5076 -40.5065 -40.5061
   -40.5060 -40.5059 -40.4921 -40.4916 -40.4916 -40.4911 -40.4901 -40.4897
   -40.4896 -40.4892 -40.4890 -40.4889 -40.4885 -40.4884 -40.2048 -40.2038
   -40.2038 -40.2028 -40.2008 -40.2002 -40.1999 -40.1992 -40.1958 -40.1957
   -40.1947 -40.1946 -40.1481 -40.1468 -40.1443 -40.1441 -40.1432 -40.1429
   -40.1399 -40.1390 -40.1377 -40.1376 -40.1338 -40.1337 -40.1274 -40.1260
   -40.1232 -40.1221 -40.1165 -40.1164 -39.5603 -39.5544 -39.5520 -39.5329
   -39.5329 -13.3172 -13.3154 -13.3145 -13.3120 -13.3120 -13.3111 -13.3041
   -13.3035 -13.3028 -13.3001 -13.2997 -13.2993 -13.2970 -13.2958 -13.2953
   -13.2944 -13.2939 -13.2938 -13.2933 -13.2923 -13.2921 -13.2910 -13.2902
   -13.2900 -13.2893 -13.2890 -13.2877 -13.2876 -13.2871 -13.2860 -13.2815
   -13.2806 -13.2696 -13.2672 -13.2668 -13.2541 -13.2537 -13.2532 -13.2530
   -13.2405 -13.2403 -13.2375 -13.2373 -13.2371 -13.2370 -12.7901 -12.7899
   -12.7892 -12.7890 -12.7776 -12.7775 -12.7720 -12.7720 -12.7711 -12.7710
   -12.6856 -12.6836 -12.6813 -12.6754 -12.6722 -12.6715 -12.6703 -12.6695
   -12.6688 -12.6662 -12.6644 -12.6611 -12.6541 -12.6533 -12.6507 -12.6460
   -12.6452 -12.6451 -12.6411 -12.6409 -12.6393 -12.6389 -12.6377 -12.6347
   -12.6334 -12.6325 -12.6314 -12.6292 -12.6279 -12.6254  -8.3664  -8.3494
    -8.1980  -8.1947  -8.0010  -7.9974  -7.9960  -7.9859  -7.9714  -7.9672
    -7.9590  -7.9031  -7.9011  -7.8808  -7.8659  -7.8644  -7.8527  -7.8479
    -7.7423  -7.6899  -7.5644  -7.5211  -7.4490  -7.4470  -7.3717  -7.3465
    -7.3286  -7.3057  -7.2866  -7.2697  -7.0798  -7.0207  -7.0161  -6.9779
    -6.9636  -6.9504  -6.1667  -4.0219  -4.0183  -4.0158  -4.0064  -4.0033
    -3.8081  -3.7880  -3.6147  -3.6132  -3.4446  -3.4271  -3.3503  -3.3479
    -3.2434  -3.1475  -3.0530  -3.0077   0.5789   0.7358   0.7469   0.7694
     0.7753   1.1991   1.2053   1.2123   1.2203   1.2238   1.2342   1.2964
     1.2968   1.3028   1.3379   1.4388   1.4730   1.5132   1.5164   1.5221
     1.5310   1.5348   1.5587   1.5693   1.5856   1.5961   1.7772   1.7831
     1.8006   1.8732   1.8962   1.9118   1.9532   1.9639   1.9826   1.9849
     2.0284   2.0650   2.0664   2.0688   2.0764   2.0814   2.1049   2.1081
     2.1090   2.1797   2.2565   2.2761   2.3051   2.3097   2.3209   2.3455
     2.3646   2.3852   2.4084   2.4108   2.4154   2.4171   2.4533   2.4538
     2.4779   2.4819   2.5120   2.5286   2.5722   2.5856   2.5932   2.6744
     2.6967   2.7217   2.7709   2.8042   2.8114   2.8192   2.8377   2.8648
     2.8709   2.8931   2.9367   2.9506   2.9694   3.0031   3.0265   3.0329
     3.0554   3.0574   3.0637   3.0649   3.0907   3.0957   3.1304   3.1315
     3.1587   3.2175   3.2233   3.2646   3.3105   3.3143   3.4317   3.4622
     3.4883   3.4983   3.5059   3.6799   3.6813   3.6861   3.6951   3.7361
     4.5991   4.6635   4.6853   6.0956   6.0985   6.3578   6.5017   6.5209
     6.5424   6.6123   6.6746   6.6845   6.6904   6.7325   6.7336   6.7411
     6.7423   6.7646   6.7691   6.8150   6.9751   6.9798   6.9834   6.9914
     7.0572   7.0616   7.0717   7.1248   7.1461   7.1737   7.1884   7.1988
     7.2045   7.2178   7.2599   7.3113   7.3140   7.3671   7.3684   7.4052
     7.4576   7.5113   7.5193   7.5450   7.5772   7.6249   7.6466   7.6667
     7.7929   7.8708   7.8761   8.0586   8.0852   8.0854   9.0414   9.4790
     9.4995   9.5197   9.5238   9.7676   9.7969   9.8789   9.9869  10.0018
    10.1388  10.1552  10.1642  10.2253  10.2857  10.3070  10.3445  10.4558
    10.4741  10.4818  10.5893  10.5950  10.6696  10.7558  10.8209  10.8316
    10.8455  10.8471  10.8806  10.9278  10.9493  10.9720  10.9927  11.0004
    11.0212  11.0770

     occupation numbers 
     1.0000   1.0000   1.0000   1.0000   1.0000   1.0000   1.0000   1.0000
     1.0000   1.0000   1.0000   1.0000   1.0000   1.0000   1.0000   1.0000
     1.0000   1.0000   1.0000   1.0000   1.0000   1.0000   1.0000   1.0000
     1.0000   1.0000   1.0000   1.0000   1.0000   1.0000   1.0000   1.0000
     1.0000   1.0000   1.0000   1.0000   1.0000   1.0000   1.0000   1.0000
     1.0000   1.0000   1.0000   1.0000   1.0000   1.0000   1.0000   1.0000
     1.0000   1.0000   1.0000   1.0000   1.0000   1.0000   1.0000   1.0000
     1.0000   1.0000   1.0000   1.0000   1.0000   1.0000   1.0000   1.0000
     1.0000   1.0000   1.0000   1.0000   1.0000   1.0000   1.0000   1.0000
     1.0000   1.0000   1.0000   1.0000   1.0000   1.0000   1.0000   1.0000
     1.0000   1.0000   1.0000   1.0000   1.0000   1.0000   1.0000   1.0000
     1.0000   1.0000   1.0000   1.0000   1.0000   1.0000   1.0000   1.0000
     1.0000   1.0000   1.0000   1.0000   1.0000   1.0000   1.0000   1.0000
     1.0000   1.0000   1.0000   1.0000   1.0000   1.0000   1.0000   1.0000
     1.0000   1.0000   1.0000   1.0000   1.0000   1.0000   1.0000   1.0000
     1.0000   1.0000   1.0000   1.0000   1.0000   1.0000   1.0000   1.0000
     1.0000   1.0000   1.0000   1.0000   1.0000   1.0000   1.0000   1.0000
     1.0000   1.0000   1.0000   1.0000   1.0000   1.0000   1.0000   1.0000
     1.0000   1.0000   1.0000   1.0000   1.0000   1.0000   1.0000   1.0000
     1.0000   1.0000   1.0000   1.0000   1.0000   1.0000   1.0000   1.0000
     1.0000   1.0000   1.0000   1.0000   1.0000   1.0000   1.0000   1.0000
     1.0000   1.0000   1.0000   1.0000   1.0000   1.0000   1.0000   1.0000
     1.0000   1.0000   1.0000   1.0000   1.0000   1.0000   1.0000   1.0000
     1.0000   1.0000   1.0000   1.0000   1.0000   1.0000   1.0000   1.0000
     1.0000   1.0000   1.0000   1.0000   1.0000   1.0000   1.0000   1.0000
     1.0000   1.0000   1.0000   1.0000   1.0000   1.0000   1.0000   1.0000
     1.0000   1.0000   1.0000   1.0000   1.0000   1.0000   1.0000   1.0000
     1.0000   1.0000   1.0000   1.0000   1.0000   1.0000   1.0000   1.0000
     1.0000   1.0000   1.0000   1.0000   1.0000   1.0000   1.0000   1.0000
     1.0000   1.0000   1.0000   1.0000   1.0000   1.0000   1.0000   1.0000
     1.0000   1.0000   1.0000   1.0000   1.0000   1.0000   1.0000   1.0000
     1.0000   1.0000   1.0000   1.0000   1.0000   1.0000   1.0000   1.0000
     1.0000   1.0000   1.0000   1.0000   1.0000   1.0000   1.0000   1.0000
     1.0000   1.0000   1.0000   1.0000   1.0000   1.0000   1.0000   1.0000
     1.0000   1.0000   1.0000   1.0000   1.0000   1.0000   1.0000   1.0000
     1.0000   1.0000   1.0000   1.0000   1.0000   1.0000   1.0000   1.0000
     1.0000   1.0000   1.0000   1.0000   1.0000   1.0000   1.0000   1.0000
     1.0000   1.0000   1.0000   1.0000   1.0000   1.0000   1.0000   1.0000
     1.0000   1.0000   1.0000   1.0000   1.0000   1.0000   1.0000   1.0000
     1.0000   1.0000   1.0000   1.0000   1.0000   1.0000   1.0000   1.0000
     1.0000   1.0000   1.0000   1.0000   1.0000   1.0000   1.0000   1.0000
     1.0000   1.0000   1.0000   1.0000   1.0000   1.0000   1.0000   1.0000
     1.0000   1.0000   1.0000   1.0000   1.0000   1.0000   1.0000   1.0000
     1.0000   1.0000   1.0000   1.0000   1.0000   1.0000   1.0000   1.0000
     1.0000   1.0000   1.0000   1.0000   1.0000   1.0000   1.0000   1.0000
     1.0000   1.0000   1.0000   1.0000   1.0000   1.0000   1.0000   1.0000
     1.0000   1.0000   1.0000   1.0000   1.0000   1.0000   1.0000   1.0000
     1.0000   1.0000   1.0000   1.0000   1.0000   1.0000   1.0000   1.0000
     1.0000   1.0000   1.0000   1.0000   1.0000   1.0000   1.0000   1.0000
     1.0000   1.0000   1.0000   1.0000   1.0000   1.0000   1.0000   1.0000
     1.0000   1.0000   1.0000   1.0000   1.0000   1.0000   1.0000   1.0000
     1.0000   1.0000   1.0000   1.0000   1.0000   1.0000   1.0000   1.0000
     1.0000   1.0000   1.0000   1.0000   1.0000   1.0000   1.0000   1.0000
     1.0000   1.0000   1.0000   1.0000   1.0000   1.0000   1.0000   1.0000
     0.9389   0.8096   0.7420   0.0000   0.0000   0.0000   0.0000   0.0000
     0.0000   0.0000   0.0000   0.0000   0.0000   0.0000   0.0000   0.0000
     0.0000   0.0000   0.0000   0.0000   0.0000   0.0000   0.0000   0.0000
     0.0000   0.0000   0.0000   0.0000   0.0000   0.0000   0.0000   0.0000
     0.0000   0.0000   0.0000   0.0000   0.0000   0.0000   0.0000   0.0000
     0.0000   0.0000   0.0000   0.0000   0.0000   0.0000   0.0000   0.0000
     0.0000   0.0000   0.0000   0.0000   0.0000   0.0000   0.0000   0.0000
     0.0000   0.0000   0.0000   0.0000   0.0000   0.0000   0.0000   0.0000
     0.0000   0.0000   0.0000   0.0000   0.0000   0.0000   0.0000   0.0000
     0.0000   0.0000   0.0000   0.0000   0.0000   0.0000   0.0000   0.0000
     0.0000   0.0000   0.0000   0.0000   0.0000   0.0000   0.0000   0.0000
     0.0000   0.0000

          k = 0.5000-0.2887 0.0000 (170366 PWs)   bands (ev):

   -41.1586 -41.1584 -41.1583 -41.1582 -41.1579 -41.1577 -41.1574 -41.1571
   -41.1567 -41.1565 -41.1557 -41.1554 -41.1547 -41.1545 -41.1544 -41.1541
   -41.1531 -41.1529 -41.1528 -41.1527 -41.1520 -41.1518 -41.1512 -41.1509
   -41.1507 -41.1503 -41.1496 -41.1494 -41.1492 -41.1490 -41.1460 -41.1457
   -41.1455 -41.1452 -41.1435 -41.1432 -41.1430 -41.1427 -41.1409 -41.1407
   -41.1403 -41.1401 -41.1397 -41.1397 -41.1395 -41.1395 -41.1390 -41.1389
   -41.1387 -41.1386 -41.1386 -41.1383 -41.1375 -41.1372 -41.1348 -41.1346
   -41.1341 -41.1340 -41.1330 -41.1328 -41.1290 -41.1290 -41.1290 -41.1289
   -41.1289 -41.1288 -41.1286 -41.1286 -41.1266 -41.1264 -41.1263 -41.1262
   -41.1253 -41.1250 -41.1250 -41.1248 -41.1247 -41.1244 -41.1242 -41.1241
   -41.1236 -41.1232 -41.1229 -41.1228 -41.1225 -41.1223 -41.1222 -41.1220
   -41.1212 -41.1209 -40.6211 -40.6209 -40.6193 -40.6191 -40.6191 -40.6188
   -40.6177 -40.6175 -40.6172 -40.6169 -40.6168 -40.6165 -40.6160 -40.6157
   -40.6153 -40.6149 -40.6139 -40.6136 -40.6098 -40.6096 -40.6094 -40.6093
   -40.6076 -40.6073 -40.6073 -40.6070 -40.6059 -40.6056 -40.6056 -40.6053
   -40.5179 -40.5174 -40.5162 -40.5158 -40.5157 -40.5156 -40.5133 -40.5128
   -40.5112 -40.5108 -40.5105 -40.5104 -40.5082 -40.5076 -40.5065 -40.5061
   -40.5060 -40.5059 -40.4921 -40.4916 -40.4916 -40.4911 -40.4901 -40.4897
   -40.4896 -40.4892 -40.4890 -40.4889 -40.4885 -40.4884 -40.2048 -40.2038
   -40.2038 -40.2028 -40.2008 -40.2002 -40.1999 -40.1992 -40.1958 -40.1957
   -40.1947 -40.1946 -40.1481 -40.1468 -40.1443 -40.1441 -40.1432 -40.1429
   -40.1399 -40.1390 -40.1377 -40.1376 -40.1338 -40.1337 -40.1274 -40.1260
   -40.1232 -40.1221 -40.1165 -40.1164 -39.5603 -39.5544 -39.5520 -39.5329
   -39.5329 -13.3172 -13.3150 -13.3141 -13.3126 -13.3120 -13.3116 -13.3042
   -13.3035 -13.3019 -13.3006 -13.3002 -13.2986 -13.2973 -13.2954 -13.2953
   -13.2947 -13.2940 -13.2935 -13.2934 -13.2926 -13.2916 -13.2907 -13.2903
   -13.2900 -13.2893 -13.2885 -13.2878 -13.2874 -13.2872 -13.2868 -13.2814
   -13.2806 -13.2696 -13.2671 -13.2669 -13.2541 -13.2535 -13.2535 -13.2529
   -13.2405 -13.2403 -13.2375 -13.2373 -13.2371 -13.2369 -12.7901 -12.7898
   -12.7893 -12.7890 -12.7776 -12.7775 -12.7720 -12.7720 -12.7711 -12.7710
   -12.6850 -12.6846 -12.6810 -12.6740 -12.6737 -12.6713 -12.6705 -12.6693
   -12.6688 -12.6659 -12.6647 -12.6611 -12.6544 -12.6531 -12.6505 -12.6464
   -12.6452 -12.6447 -12.6417 -12.6401 -12.6400 -12.6385 -12.6378 -12.6346
   -12.6330 -12.6330 -12.6314 -12.6286 -12.6284 -12.6254  -8.3647  -8.3513
    -8.1973  -8.1950  -8.0022  -7.9991  -7.9956  -7.9836  -7.9698  -7.9677
    -7.9604  -7.9028  -7.8997  -7.8805  -7.8672  -7.8661  -7.8524  -7.8468
    -7.7414  -7.6911  -7.5651  -7.5194  -7.4501  -7.4464  -7.3709  -7.3468
    -7.3300  -7.3049  -7.2862  -7.2702  -7.0799  -7.0219  -7.0140  -6.9801
    -6.9614  -6.9511  -6.1667  -4.0221  -4.0196  -4.0151  -4.0057  -4.0039
    -3.8067  -3.7880  -3.6158  -3.6128  -3.4443  -3.4277  -3.3500  -3.3478
    -3.2445  -3.1466  -3.0518  -3.0089   0.5784   0.7352   0.7465   0.7709
     0.7757   1.1957   1.2011   1.2146   1.2215   1.2235   1.2353   1.2950
     1.2977   1.3050   1.3378   1.4391   1.4742   1.5136   1.5155   1.5172
     1.5370   1.5390   1.5567   1.5709   1.5860   1.5940   1.7734   1.7821
     1.8005   1.8743   1.8967   1.9128   1.9551   1.9634   1.9808   1.9860
     2.0269   2.0673   2.0682   2.0717   2.0766   2.0812   2.1051   2.1057
     2.1085   2.1795   2.2575   2.2756   2.3007   2.3086   2.3183   2.3470
     2.3641   2.3842   2.4078   2.4117   2.4167   2.4206   2.4525   2.4538
     2.4746   2.4818   2.5114   2.5296   2.5744   2.5880   2.5924   2.6736
     2.6946   2.7190   2.7711   2.8005   2.8090   2.8198   2.8379   2.8671
     2.8717   2.8993   2.9361   2.9512   2.9673   3.0035   3.0258   3.0348
     3.0557   3.0578   3.0643   3.0665   3.0897   3.0941   3.1312   3.1315
     3.1572   3.2184   3.2209   3.2654   3.3109   3.3155   3.4320   3.4627
     3.4875   3.4967   3.5074   3.6806   3.6824   3.6858   3.6926   3.7374
     4.5985   4.6649   4.6843   6.0940   6.0987   6.3589   6.5084   6.5205
     6.5471   6.6188   6.6690   6.6836   6.6884   6.7246   6.7266   6.7427
     6.7504   6.7609   6.7633   6.8152   6.9752   6.9834   6.9870   6.9976
     7.0535   7.0621   7.0695   7.1258   7.1488   7.1780   7.1852   7.1994
     7.2054   7.2160   7.2651   7.3102   7.3165   7.3646   7.3655   7.3958
     7.4589   7.5099   7.5239   7.5444   7.5774   7.6228   7.6442   7.6655
     7.7935   7.8667   7.8785   8.0600   8.0826   8.0885   9.0406   9.4807
     9.4982   9.5207   9.5243   9.7671   9.7990   9.8780   9.9864   9.9991
    10.1401  10.1560  10.1643  10.2258  10.2876  10.3100  10.3435  10.4519
    10.4756  10.4842  10.5910  10.5949  10.6702  10.7524  10.8248  10.8287
    10.8421  10.8508  10.8811  10.9325  10.9443  10.9716  10.9928  10.9948
    11.0157  11.0784

     occupation numbers 
     1.0000   1.0000   1.0000   1.0000   1.0000   1.0000   1.0000   1.0000
     1.0000   1.0000   1.0000   1.0000   1.0000   1.0000   1.0000   1.0000
     1.0000   1.0000   1.0000   1.0000   1.0000   1.0000   1.0000   1.0000
     1.0000   1.0000   1.0000   1.0000   1.0000   1.0000   1.0000   1.0000
     1.0000   1.0000   1.0000   1.0000   1.0000   1.0000   1.0000   1.0000
     1.0000   1.0000   1.0000   1.0000   1.0000   1.0000   1.0000   1.0000
     1.0000   1.0000   1.0000   1.0000   1.0000   1.0000   1.0000   1.0000
     1.0000   1.0000   1.0000   1.0000   1.0000   1.0000   1.0000   1.0000
     1.0000   1.0000   1.0000   1.0000   1.0000   1.0000   1.0000   1.0000
     1.0000   1.0000   1.0000   1.0000   1.0000   1.0000   1.0000   1.0000
     1.0000   1.0000   1.0000   1.0000   1.0000   1.0000   1.0000   1.0000
     1.0000   1.0000   1.0000   1.0000   1.0000   1.0000   1.0000   1.0000
     1.0000   1.0000   1.0000   1.0000   1.0000   1.0000   1.0000   1.0000
     1.0000   1.0000   1.0000   1.0000   1.0000   1.0000   1.0000   1.0000
     1.0000   1.0000   1.0000   1.0000   1.0000   1.0000   1.0000   1.0000
     1.0000   1.0000   1.0000   1.0000   1.0000   1.0000   1.0000   1.0000
     1.0000   1.0000   1.0000   1.0000   1.0000   1.0000   1.0000   1.0000
     1.0000   1.0000   1.0000   1.0000   1.0000   1.0000   1.0000   1.0000
     1.0000   1.0000   1.0000   1.0000   1.0000   1.0000   1.0000   1.0000
     1.0000   1.0000   1.0000   1.0000   1.0000   1.0000   1.0000   1.0000
     1.0000   1.0000   1.0000   1.0000   1.0000   1.0000   1.0000   1.0000
     1.0000   1.0000   1.0000   1.0000   1.0000   1.0000   1.0000   1.0000
     1.0000   1.0000   1.0000   1.0000   1.0000   1.0000   1.0000   1.0000
     1.0000   1.0000   1.0000   1.0000   1.0000   1.0000   1.0000   1.0000
     1.0000   1.0000   1.0000   1.0000   1.0000   1.0000   1.0000   1.0000
     1.0000   1.0000   1.0000   1.0000   1.0000   1.0000   1.0000   1.0000
     1.0000   1.0000   1.0000   1.0000   1.0000   1.0000   1.0000   1.0000
     1.0000   1.0000   1.0000   1.0000   1.0000   1.0000   1.0000   1.0000
     1.0000   1.0000   1.0000   1.0000   1.0000   1.0000   1.0000   1.0000
     1.0000   1.0000   1.0000   1.0000   1.0000   1.0000   1.0000   1.0000
     1.0000   1.0000   1.0000   1.0000   1.0000   1.0000   1.0000   1.0000
     1.0000   1.0000   1.0000   1.0000   1.0000   1.0000   1.0000   1.0000
     1.0000   1.0000   1.0000   1.0000   1.0000   1.0000   1.0000   1.0000
     1.0000   1.0000   1.0000   1.0000   1.0000   1.0000   1.0000   1.0000
     1.0000   1.0000   1.0000   1.0000   1.0000   1.0000   1.0000   1.0000
     1.0000   1.0000   1.0000   1.0000   1.0000   1.0000   1.0000   1.0000
     1.0000   1.0000   1.0000   1.0000   1.0000   1.0000   1.0000   1.0000
     1.0000   1.0000   1.0000   1.0000   1.0000   1.0000   1.0000   1.0000
     1.0000   1.0000   1.0000   1.0000   1.0000   1.0000   1.0000   1.0000
     1.0000   1.0000   1.0000   1.0000   1.0000   1.0000   1.0000   1.0000
     1.0000   1.0000   1.0000   1.0000   1.0000   1.0000   1.0000   1.0000
     1.0000   1.0000   1.0000   1.0000   1.0000   1.0000   1.0000   1.0000
     1.0000   1.0000   1.0000   1.0000   1.0000   1.0000   1.0000   1.0000
     1.0000   1.0000   1.0000   1.0000   1.0000   1.0000   1.0000   1.0000
     1.0000   1.0000   1.0000   1.0000   1.0000   1.0000   1.0000   1.0000
     1.0000   1.0000   1.0000   1.0000   1.0000   1.0000   1.0000   1.0000
     1.0000   1.0000   1.0000   1.0000   1.0000   1.0000   1.0000   1.0000
     1.0000   1.0000   1.0000   1.0000   1.0000   1.0000   1.0000   1.0000
     1.0000   1.0000   1.0000   1.0000   1.0000   1.0000   1.0000   1.0000
     1.0000   1.0000   1.0000   1.0000   1.0000   1.0000   1.0000   1.0000
     1.0000   1.0000   1.0000   1.0000   1.0000   1.0000   1.0000   1.0000
     1.0000   1.0000   1.0000   1.0000   1.0000   1.0000   1.0000   1.0000
     1.0000   1.0000   1.0000   1.0000   1.0000   1.0000   1.0000   1.0000
     1.0000   1.0000   1.0000   1.0000   1.0000   1.0000   1.0000   1.0000
     0.9396   0.8056   0.7453   0.0000   0.0000   0.0000   0.0000   0.0000
     0.0000   0.0000   0.0000   0.0000   0.0000   0.0000   0.0000   0.0000
     0.0000   0.0000   0.0000   0.0000   0.0000   0.0000   0.0000   0.0000
     0.0000   0.0000   0.0000   0.0000   0.0000   0.0000   0.0000   0.0000
     0.0000   0.0000   0.0000   0.0000   0.0000   0.0000   0.0000   0.0000
     0.0000   0.0000   0.0000   0.0000   0.0000   0.0000   0.0000   0.0000
     0.0000   0.0000   0.0000   0.0000   0.0000   0.0000   0.0000   0.0000
     0.0000   0.0000   0.0000   0.0000   0.0000   0.0000   0.0000   0.0000
     0.0000   0.0000   0.0000   0.0000   0.0000   0.0000   0.0000   0.0000
     0.0000   0.0000   0.0000   0.0000   0.0000   0.0000   0.0000   0.0000
     0.0000   0.0000   0.0000   0.0000   0.0000   0.0000   0.0000   0.0000
     0.0000   0.0000

          k =-0.5000-0.2887 0.0000 (170366 PWs)   bands (ev):

   -41.1586 -41.1584 -41.1583 -41.1582 -41.1579 -41.1577 -41.1574 -41.1571
   -41.1567 -41.1565 -41.1557 -41.1554 -41.1547 -41.1545 -41.1544 -41.1541
   -41.1531 -41.1529 -41.1528 -41.1527 -41.1520 -41.1518 -41.1512 -41.1509
   -41.1507 -41.1503 -41.1496 -41.1494 -41.1492 -41.1490 -41.1460 -41.1457
   -41.1455 -41.1452 -41.1435 -41.1432 -41.1430 -41.1427 -41.1409 -41.1407
   -41.1403 -41.1401 -41.1397 -41.1397 -41.1395 -41.1395 -41.1390 -41.1389
   -41.1387 -41.1386 -41.1386 -41.1383 -41.1375 -41.1372 -41.1348 -41.1346
   -41.1341 -41.1340 -41.1330 -41.1328 -41.1290 -41.1290 -41.1290 -41.1289
   -41.1289 -41.1288 -41.1286 -41.1286 -41.1266 -41.1264 -41.1263 -41.1262
   -41.1253 -41.1250 -41.1250 -41.1248 -41.1247 -41.1244 -41.1242 -41.1241
   -41.1236 -41.1232 -41.1229 -41.1228 -41.1225 -41.1223 -41.1222 -41.1220
   -41.1212 -41.1209 -40.6211 -40.6209 -40.6193 -40.6191 -40.6191 -40.6188
   -40.6177 -40.6175 -40.6172 -40.6169 -40.6168 -40.6165 -40.6160 -40.6157
   -40.6153 -40.6149 -40.6139 -40.6136 -40.6098 -40.6096 -40.6094 -40.6093
   -40.6076 -40.6073 -40.6073 -40.6070 -40.6059 -40.6056 -40.6056 -40.6053
   -40.5179 -40.5174 -40.5162 -40.5158 -40.5157 -40.5156 -40.5133 -40.5128
   -40.5112 -40.5108 -40.5105 -40.5104 -40.5082 -40.5076 -40.5065 -40.5061
   -40.5060 -40.5059 -40.4921 -40.4916 -40.4916 -40.4911 -40.4901 -40.4897
   -40.4896 -40.4892 -40.4890 -40.4889 -40.4885 -40.4884 -40.2048 -40.2038
   -40.2038 -40.2028 -40.2008 -40.2002 -40.1999 -40.1992 -40.1958 -40.1957
   -40.1947 -40.1946 -40.1481 -40.1468 -40.1443 -40.1441 -40.1432 -40.1429
   -40.1399 -40.1390 -40.1377 -40.1376 -40.1338 -40.1337 -40.1274 -40.1260
   -40.1232 -40.1221 -40.1165 -40.1164 -39.5603 -39.5544 -39.5520 -39.5329
   -39.5329 -13.3172 -13.3154 -13.3145 -13.3120 -13.3120 -13.3111 -13.3041
   -13.3035 -13.3028 -13.3001 -13.2997 -13.2993 -13.2970 -13.2958 -13.2953
   -13.2944 -13.2939 -13.2938 -13.2933 -13.2924 -13.2921 -13.2910 -13.2901
   -13.2900 -13.2893 -13.2890 -13.2877 -13.2876 -13.2871 -13.2860 -13.2815
   -13.2806 -13.2696 -13.2672 -13.2668 -13.2541 -13.2536 -13.2532 -13.2530
   -13.2405 -13.2403 -13.2375 -13.2373 -13.2371 -13.2369 -12.7900 -12.7899
   -12.7892 -12.7890 -12.7776 -12.7775 -12.7720 -12.7720 -12.7711 -12.7710
   -12.6856 -12.6837 -12.6812 -12.6754 -12.6722 -12.6715 -12.6703 -12.6695
   -12.6688 -12.6662 -12.6644 -12.6611 -12.6540 -12.6534 -12.6507 -12.6460
   -12.6452 -12.6451 -12.6411 -12.6409 -12.6393 -12.6389 -12.6377 -12.6347
   -12.6334 -12.6326 -12.6314 -12.6292 -12.6279 -12.6254  -8.3663  -8.3494
    -8.1980  -8.1947  -8.0009  -7.9974  -7.9960  -7.9860  -7.9714  -7.9671
    -7.9590  -7.9031  -7.9011  -7.8808  -7.8659  -7.8644  -7.8527  -7.8479
    -7.7423  -7.6898  -7.5644  -7.5212  -7.4490  -7.4470  -7.3717  -7.3465
    -7.3286  -7.3057  -7.2865  -7.2698  -7.0799  -7.0203  -7.0166  -6.9776
    -6.9638  -6.9503  -6.1667  -4.0218  -4.0183  -4.0158  -4.0065  -4.0032
    -3.8081  -3.7880  -3.6147  -3.6133  -3.4447  -3.4271  -3.3503  -3.3479
    -3.2435  -3.1475  -3.0528  -3.0078   0.5789   0.7358   0.7469   0.7694
     0.7753   1.1991   1.2054   1.2124   1.2202   1.2238   1.2341   1.2964
     1.2968   1.3028   1.3378   1.4389   1.4730   1.5131   1.5164   1.5221
     1.5310   1.5347   1.5587   1.5693   1.5856   1.5961   1.7773   1.7832
     1.8007   1.8731   1.8961   1.9118   1.9531   1.9638   1.9826   1.9849
     2.0284   2.0650   2.0663   2.0688   2.0763   2.0814   2.1048   2.1084
     2.1090   2.1797   2.2566   2.2762   2.3051   2.3097   2.3209   2.3455
     2.3646   2.3853   2.4084   2.4108   2.4153   2.4171   2.4533   2.4538
     2.4780   2.4819   2.5122   2.5286   2.5722   2.5857   2.5932   2.6745
     2.6966   2.7217   2.7709   2.8043   2.8114   2.8191   2.8377   2.8649
     2.8709   2.8923   2.9367   2.9505   2.9694   3.0031   3.0265   3.0326
     3.0556   3.0575   3.0637   3.0649   3.0909   3.0957   3.1303   3.1318
     3.1585   3.2176   3.2239   3.2644   3.3104   3.3142   3.4317   3.4620
     3.4883   3.4983   3.5060   3.6798   3.6813   3.6861   3.6955   3.7358
     4.5993   4.6631   4.6855   6.0956   6.0985   6.3578   6.5016   6.5209
     6.5424   6.6121   6.6746   6.6844   6.6905   6.7325   6.7337   6.7409
     6.7424   6.7648   6.7691   6.8150   6.9751   6.9797   6.9833   6.9914
     7.0573   7.0617   7.0717   7.1248   7.1460   7.1737   7.1884   7.1988
     7.2045   7.2178   7.2599   7.3112   7.3139   7.3672   7.3685   7.4053
     7.4577   7.5115   7.5191   7.5451   7.5770   7.6250   7.6465   7.6667
     7.7928   7.8708   7.8760   8.0583   8.0853   8.0855   9.0414   9.4789
     9.4996   9.5196   9.5238   9.7676   9.7969   9.8789   9.9869  10.0018
    10.1388  10.1552  10.1642  10.2253  10.2857  10.3069  10.3445  10.4559
    10.4742  10.4817  10.5892  10.5949  10.6697  10.7558  10.8209  10.8317
    10.8454  10.8471  10.8806  10.9277  10.9493  10.9718  10.9928  11.0004
    11.0212  11.0771

     occupation numbers 
     1.0000   1.0000   1.0000   1.0000   1.0000   1.0000   1.0000   1.0000
     1.0000   1.0000   1.0000   1.0000   1.0000   1.0000   1.0000   1.0000
     1.0000   1.0000   1.0000   1.0000   1.0000   1.0000   1.0000   1.0000
     1.0000   1.0000   1.0000   1.0000   1.0000   1.0000   1.0000   1.0000
     1.0000   1.0000   1.0000   1.0000   1.0000   1.0000   1.0000   1.0000
     1.0000   1.0000   1.0000   1.0000   1.0000   1.0000   1.0000   1.0000
     1.0000   1.0000   1.0000   1.0000   1.0000   1.0000   1.0000   1.0000
     1.0000   1.0000   1.0000   1.0000   1.0000   1.0000   1.0000   1.0000
     1.0000   1.0000   1.0000   1.0000   1.0000   1.0000   1.0000   1.0000
     1.0000   1.0000   1.0000   1.0000   1.0000   1.0000   1.0000   1.0000
     1.0000   1.0000   1.0000   1.0000   1.0000   1.0000   1.0000   1.0000
     1.0000   1.0000   1.0000   1.0000   1.0000   1.0000   1.0000   1.0000
     1.0000   1.0000   1.0000   1.0000   1.0000   1.0000   1.0000   1.0000
     1.0000   1.0000   1.0000   1.0000   1.0000   1.0000   1.0000   1.0000
     1.0000   1.0000   1.0000   1.0000   1.0000   1.0000   1.0000   1.0000
     1.0000   1.0000   1.0000   1.0000   1.0000   1.0000   1.0000   1.0000
     1.0000   1.0000   1.0000   1.0000   1.0000   1.0000   1.0000   1.0000
     1.0000   1.0000   1.0000   1.0000   1.0000   1.0000   1.0000   1.0000
     1.0000   1.0000   1.0000   1.0000   1.0000   1.0000   1.0000   1.0000
     1.0000   1.0000   1.0000   1.0000   1.0000   1.0000   1.0000   1.0000
     1.0000   1.0000   1.0000   1.0000   1.0000   1.0000   1.0000   1.0000
     1.0000   1.0000   1.0000   1.0000   1.0000   1.0000   1.0000   1.0000
     1.0000   1.0000   1.0000   1.0000   1.0000   1.0000   1.0000   1.0000
     1.0000   1.0000   1.0000   1.0000   1.0000   1.0000   1.0000   1.0000
     1.0000   1.0000   1.0000   1.0000   1.0000   1.0000   1.0000   1.0000
     1.0000   1.0000   1.0000   1.0000   1.0000   1.0000   1.0000   1.0000
     1.0000   1.0000   1.0000   1.0000   1.0000   1.0000   1.0000   1.0000
     1.0000   1.0000   1.0000   1.0000   1.0000   1.0000   1.0000   1.0000
     1.0000   1.0000   1.0000   1.0000   1.0000   1.0000   1.0000   1.0000
     1.0000   1.0000   1.0000   1.0000   1.0000   1.0000   1.0000   1.0000
     1.0000   1.0000   1.0000   1.0000   1.0000   1.0000   1.0000   1.0000
     1.0000   1.0000   1.0000   1.0000   1.0000   1.0000   1.0000   1.0000
     1.0000   1.0000   1.0000   1.0000   1.0000   1.0000   1.0000   1.0000
     1.0000   1.0000   1.0000   1.0000   1.0000   1.0000   1.0000   1.0000
     1.0000   1.0000   1.0000   1.0000   1.0000   1.0000   1.0000   1.0000
     1.0000   1.0000   1.0000   1.0000   1.0000   1.0000   1.0000   1.0000
     1.0000   1.0000   1.0000   1.0000   1.0000   1.0000   1.0000   1.0000
     1.0000   1.0000   1.0000   1.0000   1.0000   1.0000   1.0000   1.0000
     1.0000   1.0000   1.0000   1.0000   1.0000   1.0000   1.0000   1.0000
     1.0000   1.0000   1.0000   1.0000   1.0000   1.0000   1.0000   1.0000
     1.0000   1.0000   1.0000   1.0000   1.0000   1.0000   1.0000   1.0000
     1.0000   1.0000   1.0000   1.0000   1.0000   1.0000   1.0000   1.0000
     1.0000   1.0000   1.0000   1.0000   1.0000   1.0000   1.0000   1.0000
     1.0000   1.0000   1.0000   1.0000   1.0000   1.0000   1.0000   1.0000
     1.0000   1.0000   1.0000   1.0000   1.0000   1.0000   1.0000   1.0000
     1.0000   1.0000   1.0000   1.0000   1.0000   1.0000   1.0000   1.0000
     1.0000   1.0000   1.0000   1.0000   1.0000   1.0000   1.0000   1.0000
     1.0000   1.0000   1.0000   1.0000   1.0000   1.0000   1.0000   1.0000
     1.0000   1.0000   1.0000   1.0000   1.0000   1.0000   1.0000   1.0000
     1.0000   1.0000   1.0000   1.0000   1.0000   1.0000   1.0000   1.0000
     1.0000   1.0000   1.0000   1.0000   1.0000   1.0000   1.0000   1.0000
     1.0000   1.0000   1.0000   1.0000   1.0000   1.0000   1.0000   1.0000
     1.0000   1.0000   1.0000   1.0000   1.0000   1.0000   1.0000   1.0000
     1.0000   1.0000   1.0000   1.0000   1.0000   1.0000   1.0000   1.0000
     0.9387   0.8106   0.7413   0.0000   0.0000   0.0000   0.0000   0.0000
     0.0000   0.0000   0.0000   0.0000   0.0000   0.0000   0.0000   0.0000
     0.0000   0.0000   0.0000   0.0000   0.0000   0.0000   0.0000   0.0000
     0.0000   0.0000   0.0000   0.0000   0.0000   0.0000   0.0000   0.0000
     0.0000   0.0000   0.0000   0.0000   0.0000   0.0000   0.0000   0.0000
     0.0000   0.0000   0.0000   0.0000   0.0000   0.0000   0.0000   0.0000
     0.0000   0.0000   0.0000   0.0000   0.0000   0.0000   0.0000   0.0000
     0.0000   0.0000   0.0000   0.0000   0.0000   0.0000   0.0000   0.0000
     0.0000   0.0000   0.0000   0.0000   0.0000   0.0000   0.0000   0.0000
     0.0000   0.0000   0.0000   0.0000   0.0000   0.0000   0.0000   0.0000
     0.0000   0.0000   0.0000   0.0000   0.0000   0.0000   0.0000   0.0000
     0.0000   0.0000

     the Fermi energy is     4.7478 ev

!    total energy              =  -36091.75642716 Ry
     total all-electron energy =  -1237500.236880 Ry
     estimated scf accuracy    <          8.4E-09 Ry
     smearing contrib. (-TS)   =      -0.01008644 Ry
     internal energy E=F+TS    =  -36091.74634072 Ry

     The total energy is F=E-TS. E is the sum of the following terms:
     one-electron contribution =   -6788.85508545 Ry
     hartree contribution      =    3786.19028063 Ry
     xc contribution           =   -2573.35716115 Ry
     ewald contribution        =   -5607.18347468 Ry
     one-center paw contrib.   =  -24908.54090007 Ry
      -> PAW hartree energy AE =      96.08942630 Ry
      -> PAW hartree energy PS =     -96.32792515 Ry
      -> PAW xc energy AE      =    -798.44587914 Ry
      -> PAW xc energy PS      =      33.32471666 Ry
      -> total E_H with PAW    =    3785.95178178 Ry
      -> total E_XC with PAW   =   -3338.47832363 Ry

     convergence has been achieved in   1 iterations


     -----------------------------------------------
     Non-local corr. energy    =      26.18681261 Ry
     -----------------------------------------------


     Forces acting on atoms (cartesian axes, Ry/au):

     atom    1 type  1   force =     0.00006989    0.00012125    0.00001451
     atom    2 type  1   force =     0.00009583   -0.00018397   -0.00005661
     atom    3 type  1   force =     0.00025858   -0.00078864    0.00011010
     atom    4 type  1   force =     0.00001468    0.00015112    0.00002987
     atom    5 type  1   force =    -0.00043907    0.00061226    0.00008781
     atom    6 type  1   force =    -0.00021347   -0.00001129    0.00002755
     atom    7 type  1   force =    -0.00081428   -0.00016845   -0.00008303
     atom    8 type  1   force =    -0.00013199   -0.00022992   -0.00001824
     atom    9 type  1   force =    -0.00048153   -0.00083231    0.00001478
     atom   10 type  1   force =     0.00010436   -0.00001084    0.00030688
     atom   11 type  1   force =    -0.00014619   -0.00018377   -0.00025849
     atom   12 type  1   force =     0.00013074    0.00008530   -0.00004972
     atom   13 type  1   force =     0.00074974   -0.00007040   -0.00005739
     atom   14 type  1   force =    -0.00005982    0.00008610   -0.00033549
     atom   15 type  1   force =    -0.00009005   -0.00021490    0.00027958
     atom   16 type  1   force =     0.00005286    0.00009665   -0.00000558
     atom   17 type  1   force =     0.00043984    0.00076398    0.00001582
     atom   18 type  2   force =    -0.00019382   -0.00040486    0.00034952
     atom   19 type  2   force =     0.00022399    0.00009173    0.00009908
     atom   20 type  2   force =    -0.00038912    0.00013632    0.00031516
     atom   21 type  2   force =    -0.00015240    0.00059976    0.00009252
     atom   22 type  2   force =     0.00040388    0.00001183   -0.00030131
     atom   23 type  2   force =    -0.00067234   -0.00049350   -0.00032815
     atom   24 type  2   force =    -0.00003400    0.00010000    0.00069418
     atom   25 type  2   force =    -0.00042012    0.00031296   -0.00012219
     atom   26 type  2   force =     0.00023542    0.00025285    0.00023765
     atom   27 type  2   force =     0.00025195    0.00036042    0.00038628
     atom   28 type  2   force =     0.00004393    0.00058111    0.00046100
     atom   29 type  2   force =    -0.00020656    0.00004057   -0.00003748
     atom   30 type  2   force =    -0.00017184   -0.00027770    0.00049092
     atom   31 type  2   force =     0.00019233    0.00032414   -0.00042571
     atom   32 type  2   force =     0.00015150   -0.00061458   -0.00036251
     atom   33 type  2   force =    -0.00011174    0.00045073   -0.00005689
     atom   34 type  2   force =     0.00005024   -0.00026622   -0.00015705
     atom   35 type  2   force =     0.00031673   -0.00038207   -0.00023461
     atom   36 type  2   force =    -0.00001207    0.00024739   -0.00008698
     atom   37 type  2   force =    -0.00023894   -0.00037459   -0.00034690
     atom   38 type  2   force =     0.00049406   -0.00018618    0.00013796
     atom   39 type  2   force =     0.00011380    0.00002306   -0.00071439
     atom   40 type  2   force =     0.00019978    0.00032146    0.00042545
     atom   41 type  2   force =    -0.00015029   -0.00026744   -0.00050382
     atom   42 type  2   force =     0.00059648    0.00016224   -0.00008172
     atom   43 type  2   force =     0.00029933   -0.00028777   -0.00032614
     atom   44 type  2   force =     0.00018566    0.00042253   -0.00036610
     atom   45 type  2   force =     0.00009094    0.00033164   -0.00025770
     atom   46 type  2   force =     0.00044599    0.00011464    0.00006175
     atom   47 type  2   force =    -0.00061925   -0.00018428    0.00034437
     atom   48 type  2   force =    -0.00011108   -0.00081314    0.00034639
     atom   49 type  2   force =    -0.00018631    0.00034606    0.00028317
     atom   50 type  2   force =     0.00012345   -0.00014137    0.00006530
     atom   51 type  2   force =     0.00048733    0.00033739   -0.00049056
     atom   52 type  2   force =    -0.00050408    0.00005390    0.00025520
     atom   53 type  2   force =    -0.00023841   -0.00008714    0.00014001
     atom   54 type  2   force =    -0.00003452   -0.00006405   -0.00000808
     The non-local contrib.  to forces
     atom    1 type  1   force =    -0.00062123   -0.00097260   -0.00007293
     atom    2 type  1   force =     0.00972404   -0.01878303    0.00137034
     atom    3 type  1   force =     0.00201817    0.00447431    0.00020603
     atom    4 type  1   force =    -0.01189342    0.01725069    0.00130963
     atom    5 type  1   force =     0.00285484   -0.00280472   -0.00224497
     atom    6 type  1   force =    -0.02118783   -0.00102197   -0.00124168
     atom    7 type  1   force =     0.00288460    0.00395542   -0.00018878
     atom    8 type  1   force =    -0.01039417   -0.01779864    0.00006884
     atom    9 type  1   force =     0.00231714    0.00398888   -0.00001202
     atom   10 type  1   force =    -0.00050985   -0.00040929    0.03712644
     atom   11 type  1   force =     0.00015415    0.00352484   -0.03577331
     atom   12 type  1   force =     0.02098582   -0.00159597   -0.00140846
     atom   13 type  1   force =    -0.00389786    0.00099664    0.00221058
     atom   14 type  1   force =    -0.00013988   -0.00060850   -0.03704716
     atom   15 type  1   force =     0.00308485    0.00198914    0.03583569
     atom   16 type  1   force =     0.01062474    0.01829007   -0.00015965
     atom   17 type  1   force =    -0.00379474   -0.00658761   -0.00003462
     atom   18 type  2   force =    -0.00065838   -0.00151672    0.26297892
     atom   19 type  2   force =     0.00050610   -0.08072869    0.17692607
     atom   20 type  2   force =    -0.00291887    0.00095901    0.26291575
     atom   21 type  2   force =    -0.07026886    0.04182371    0.17712400
     atom   22 type  2   force =    -0.00538201   -0.00435332    0.25499269
     atom   23 type  2   force =    -0.02746343   -0.01604896    0.20013897
     atom   24 type  2   force =    -0.00075632   -0.00048375    0.27377395
     atom   25 type  2   force =    -0.00852847    0.00426839    0.21504396
     atom   26 type  2   force =     0.00187020    0.00131145    0.26247701
     atom   27 type  2   force =     0.07081515    0.04135075    0.17742218
     atom   28 type  2   force =    -0.00076732   -0.00209517    0.27348203
     atom   29 type  2   force =    -0.00056699   -0.00966794    0.21513405
     atom   30 type  2   force =     0.00057541    0.00010600    0.27393804
     atom   31 type  2   force =     0.00863219    0.00467896    0.21527864
     atom   32 type  2   force =     0.00100569    0.00535517    0.25444109
     atom   33 type  2   force =    -0.00016125    0.03349381    0.20032966
     atom   34 type  2   force =     0.00553579   -0.00310990    0.25545421
     atom   35 type  2   force =     0.02813154   -0.01629571    0.20031422
     atom   36 type  2   force =    -0.07018970   -0.03988252   -0.17681951
     atom   37 type  2   force =    -0.00094447   -0.00130648   -0.26298410
     atom   38 type  2   force =     0.00800506   -0.00521779   -0.21503151
     atom   39 type  2   force =    -0.00007184   -0.00084895   -0.27378287
     atom   40 type  2   force =    -0.00023921    0.00979325   -0.21528612
     atom   41 type  2   force =    -0.00019455    0.00047971   -0.27398660
     atom   42 type  2   force =     0.07140961   -0.03983725   -0.17710840
     atom   43 type  2   force =     0.00227358   -0.00204609   -0.26290662
     atom   44 type  2   force =     0.00049364    0.08211701   -0.17745415
     atom   45 type  2   force =     0.00019486    0.00225783   -0.26249207
     atom   46 type  2   force =     0.02917534    0.01653028   -0.20030557
     atom   47 type  2   force =     0.00417662    0.00355092   -0.25447004
     atom   48 type  2   force =    -0.00025549   -0.03178063   -0.20014835
     atom   49 type  2   force =    -0.00108403   -0.00685879   -0.25501351
     atom   50 type  2   force =    -0.00818950   -0.00531270   -0.21507535
     atom   51 type  2   force =    -0.00143533   -0.00170184   -0.27344898
     atom   52 type  2   force =    -0.02822771    0.01603594   -0.20030074
     atom   53 type  2   force =    -0.00550012    0.00324931   -0.25547847
     atom   54 type  2   force =    -0.00044125   -0.00079356   -0.00000464
     The ionic contribution  to forces
     atom    1 type  1   force =     0.01870453    0.02787472    0.00699003
     atom    2 type  1   force =     1.17285751   -1.93834394   -0.12969070
     atom    3 type  1   force =     0.27366124   -0.73546163   -0.05148906
     atom    4 type  1   force =    -1.01968814    1.98598936   -0.08095004
     atom    5 type  1   force =    -0.39277727    0.71726049    0.16652467
     atom    6 type  1   force =    -2.26344996    0.04879482    0.12398006
     atom    7 type  1   force =    -0.77495152   -0.12691757    0.05406389
     atom    8 type  1   force =    -1.15974599   -2.01710822    0.00075207
     atom    9 type  1   force =    -0.43566150   -0.75789659    0.00278293
     atom   10 type  1   force =    -0.04978674   -0.02078803   -1.07064358
     atom   11 type  1   force =    -0.04368297   -0.08032011    2.36088381
     atom   12 type  1   force =     2.22417312    0.10594589    0.07822237
     atom   13 type  1   force =     0.81852439    0.02248768   -0.16491261
     atom   14 type  1   force =     0.00722813   -0.05471928    1.06272996
     atom   15 type  1   force =    -0.05115036   -0.08090197   -2.35800282
     atom   16 type  1   force =     1.09864160    1.90853590    0.00282292
     atom   17 type  1   force =     0.49288911    0.85219744    0.00095906
     atom   18 type  2   force =    -0.07751112    1.10362130  -15.10576949
     atom   19 type  2   force =     0.04797171    6.17651490  -11.44072220
     atom   20 type  2   force =     0.91384553   -0.56213513  -15.10215074
     atom   21 type  2   force =     5.37709916   -2.94757826  -11.39885402
     atom   22 type  2   force =    -0.23926319   -0.21766842  -14.69449688
     atom   23 type  2   force =     1.00473115    0.45943761  -13.13556109
     atom   24 type  2   force =    -0.12512511    0.15720951  -13.72501902
     atom   25 type  2   force =    -0.46993738    0.22876015  -13.77246113
     atom   26 type  2   force =    -0.97378898   -0.53265693  -15.16008947
     atom   27 type  2   force =    -5.37241824   -3.03740536  -11.36549488
     atom   28 type  2   force =    -0.01075481   -0.13286671  -13.73966824
     atom   29 type  2   force =    -0.09319731   -0.50492356  -13.75073653
     atom   30 type  2   force =     0.12386197    0.15453285  -13.69464301
     atom   31 type  2   force =     0.41388011    0.25143803  -13.80614833
     atom   32 type  2   force =    -0.00490600    0.35420653  -14.72173875
     atom   33 type  2   force =    -0.02020794   -1.10123341  -13.10345610
     atom   34 type  2   force =     0.31978645   -0.25417058  -14.71304749
     atom   35 type  2   force =    -0.97421362    0.46753092  -13.10194119
     atom   36 type  2   force =     5.31931568    3.12035599   11.43927164
     atom   37 type  2   force =     0.99745489    0.48675043   15.10800163
     atom   38 type  2   force =     0.43186688   -0.29431357   13.77175929
     atom   39 type  2   force =     0.19865638   -0.03025658   13.72635559
     atom   40 type  2   force =     0.00841209    0.48754568   13.80854213
     atom   41 type  2   force =     0.07234475    0.18284903   13.69305350
     atom   42 type  2   force =    -5.24184948    3.17940252   11.39477880
     atom   43 type  2   force =    -0.94746728    0.51680403   15.10705809
     atom   44 type  2   force =     0.05626779   -6.17319179   11.35823111
     atom   45 type  2   force =     0.02879098   -1.11355065   15.16523904
     atom   46 type  2   force =    -0.94682121   -0.56427006   13.10095208
     atom   47 type  2   force =     0.30612977    0.17103611   14.72569597
     atom   48 type  2   force =    -0.09936505    1.10022996   13.13238431
     atom   49 type  2   force =    -0.06895999   -0.31358853   14.69639111
     atom   50 type  2   force =    -0.39024253   -0.33158434   13.74636351
     atom   51 type  2   force =    -0.11145915   -0.07639779   13.74324779
     atom   52 type  2   force =     0.89609203   -0.60177330   13.09906514
     atom   53 type  2   force =    -0.37597658    0.14703764   14.71558810
     atom   54 type  2   force =     0.11117249    0.18767284   -0.00500322
     The local contribution  to forces
     atom    1 type  1   force =    -0.01801312   -0.02677369   -0.00690396
     atom    2 type  1   force =    -1.18224920    1.95648205    0.12827636
     atom    3 type  1   force =    -0.27531999    0.73015328    0.05142099
     atom    4 type  1   force =     1.03133250   -2.00263237    0.07973166
     atom    5 type  1   force =     0.38946472   -0.71376843   -0.16424328
     atom    6 type  1   force =     2.28390492   -0.04777718   -0.12276692
     atom    7 type  1   force =     0.77117908    0.12287119   -0.05396656
     atom    8 type  1   force =     1.16979377    2.03424089   -0.00088078
     atom    9 type  1   force =     0.43284798    0.75302459   -0.00273895
     atom   10 type  1   force =     0.05043844    0.02121704    1.03456701
     atom   11 type  1   force =     0.04338280    0.07668487   -2.32615261
     atom   12 type  1   force =    -2.24449382   -0.10429925   -0.07688679
     atom   13 type  1   force =    -0.81381222   -0.02354633    0.16267988
     atom   14 type  1   force =    -0.00716145    0.05541383   -1.02676619
     atom   15 type  1   force =     0.04802820    0.07870612    2.32323563
     atom   16 type  1   force =    -1.10897653   -1.92625092   -0.00262845
     atom   17 type  1   force =    -0.48865572   -0.84482275   -0.00092667
     atom   18 type  2   force =     0.07777042   -1.10251453   14.84864605
     atom   19 type  2   force =    -0.04827675   -6.09723302   11.26791675
     atom   20 type  2   force =    -0.91144180    0.56130149   14.84518743
     atom   21 type  2   force =    -5.30817521    2.90718591   11.22586398
     atom   22 type  2   force =     0.24504400    0.22200760   14.44461879
     atom   23 type  2   force =    -0.97858606   -0.44443880   12.93947552
     atom   24 type  2   force =     0.12586250   -0.15654295   13.45783759
     atom   25 type  2   force =     0.47768931   -0.23262340   13.56213804
     atom   26 type  2   force =     0.97208210    0.53167584   14.90334596
     atom   27 type  2   force =     5.30306121    2.99719281   11.19256903
     atom   28 type  2   force =     0.01154808    0.13552297   13.47260743
     atom   29 type  2   force =     0.09336764    0.51443798   13.54035765
     atom   30 type  2   force =    -0.12453426   -0.15470161   13.42713645
     atom   31 type  2   force =    -0.42197969   -0.25564810   13.59530353
     atom   32 type  2   force =     0.00397532   -0.36004898   14.47233254
     atom   33 type  2   force =     0.02033967    1.06883853   12.90739565
     atom   34 type  2   force =    -0.32537806    0.25709438   14.46283792
     atom   35 type  2   force =     0.94700272   -0.45194455   12.90575388
     atom   36 type  2   force =    -5.25048526   -3.08102936  -11.26656610
     atom   37 type  2   force =    -0.99668150   -0.48597246  -14.85090070
     atom   38 type  2   force =    -0.43914987    0.29901830  -13.56143749
     atom   39 type  2   force =    -0.19843030    0.03115254  -13.45918162
     atom   40 type  2   force =    -0.00805675   -0.49663041  -13.59765940
     atom   41 type  2   force =    -0.07216927   -0.18347018  -13.42554176
     atom   42 type  2   force =     5.17236398   -3.13999852  -11.22180181
     atom   43 type  2   force =     0.94557725   -0.51508684  -14.85010761
     atom   44 type  2   force =    -0.05648906    6.09291578  -11.18527011
     atom   45 type  2   force =    -0.02875556    1.11158569  -14.90846754
     atom   46 type  2   force =     0.91860873    0.54829225  -12.90491014
     atom   47 type  2   force =    -0.31075279   -0.17476765  -14.47627393
     atom   48 type  2   force =     0.09940032   -1.07008591  -12.93627467
     atom   49 type  2   force =     0.06983532    0.32080853  -14.44651168
     atom   50 type  2   force =     0.39850846    0.33647050  -13.53605050
     atom   51 type  2   force =     0.11335904    0.07838071  -13.47620481
     atom   52 type  2   force =    -0.86891781    0.58622641  -12.90287461
     atom   53 type  2   force =     0.38135315   -0.15043788  -14.46536896
     atom   54 type  2   force =    -0.11072400   -0.18687827    0.00499349
     The core correction contribution to forces
     atom    1 type  1   force =    -0.00000061   -0.00000277    0.00000003
     atom    2 type  1   force =    -0.00020606    0.00038767   -0.00003324
     atom    3 type  1   force =    -0.00006138   -0.00001805   -0.00002421
     atom    4 type  1   force =     0.00023181   -0.00036061   -0.00004193
     atom    5 type  1   force =    -0.00001708    0.00001243    0.00004627
     atom    6 type  1   force =     0.00044047    0.00001678    0.00003395
     atom    7 type  1   force =     0.00001518   -0.00006168    0.00002079
     atom    8 type  1   force =     0.00021598    0.00037011    0.00000122
     atom    9 type  1   force =     0.00000020    0.00000052   -0.00000131
     atom   10 type  1   force =     0.00000015    0.00000621   -0.00070154
     atom   11 type  1   force =     0.00002232   -0.00004619    0.00074028
     atom   12 type  1   force =    -0.00043107    0.00001947    0.00004577
     atom   13 type  1   force =     0.00001982   -0.00000793   -0.00004959
     atom   14 type  1   force =     0.00000546    0.00000163    0.00070286
     atom   15 type  1   force =    -0.00005311   -0.00000613   -0.00074357
     atom   16 type  1   force =    -0.00021680   -0.00037318    0.00000393
     atom   17 type  1   force =     0.00003844    0.00006743   -0.00000159
     atom   18 type  2   force =     0.00018084    0.00011359   -0.00548629
[...]
              0.125669976473470E+03
              0.570725554735379E+02
              0.928975856774656E+02
             -0.518865256335532E+01
              0.285559569068076E+03
              0.478610309711808E+02
             -0.440951559095254E+02
              0.527409745492264E+01
             -0.288660624636545E+02
              0.234432201277176E+03
             -0.133618709409060E+02
              0.503679687233787E+02
              0.169051898079014E+03
              0.371156121251845E+02
             -0.133429366750500E+03
             -0.194450968049906E+03
              0.204247787800955E+01
             -0.218692872855104E+03
              0.741943802887638E+02
             -0.442704979248407E+02
             -0.102658136423866E+03
              0.923640714391920E+02
              0.355264927408380E+02
              0.833161092440750E+02
              0.739982313626842E+01
              0.132671269092341E+03
             -0.216898875730691E+03
             -0.198279085215499E+02
             -0.189135260624346E+03
              0.341566142903011E+02
              0.102386343626841E+03
             -0.188225703959564E+02
             -0.711904374971973E+02
              0.152423437327295E+03
             -0.707372639260827E+02
              0.496450259244764E+02
             -0.443635173070336E+02
              0.108834455777796E+03
              0.131349021966927E+03
             -0.566887163471970E+02
              0.113114893110578E+03
              0.433958590193424E+02
             -0.116559683081226E+03
             -0.697185490255864E+02
              0.187981953594320E+03
              0.890559142142309E+02
             -0.856722760793235E+01
             -0.252811149376769E+02
              0.276314641972006E+03
              0.165678815578435E+03
              0.607337677651487E+02
             -0.177018014965142E+03
              0.277293798853875E+03
             -0.125465747465175E+03
             -0.155499748280372E+03
             -0.240739126050336E+03
              0.116075333369740E+03
             -0.220282870468016E+03
              0.955918941640673E+02
              0.156937408477056E+03
              0.116325367896473E+03
              0.247161686059378E+02
              0.692907586044628E+02
             -0.173680431415593E+03
             -0.617673160779746E+02
             -0.558996416037691E+02
              0.839275660975765E+02
              0.187178199752017E+03
              0.184659213367147E+03
              0.141310409438556E+03
             -0.348238587375859E+02
              0.502057216999274E+02
              0.699337263312384E+01
             -0.554564343959136E+02
              0.827660223587431E+02
              0.791681159615159E+02
             -0.113065340186131E+03
             -0.114562137546906E+03
             -0.524352448306130E+02
              0.121717134472088E+03
              0.619851158922317E+02
             -0.829100319493962E+02
             -0.144328303331332E+03
             -0.198210666077470E+03
              0.415030452087501E+01
              0.564089582135612E+02
             -0.767415897620538E+02
              0.281622987880278E+03
              0.263044124637281E+01
             -0.327114159567565E+03
              0.820498377427243E+02
              0.135064851920303E+03
             -0.490515318254282E+02
              0.524340935988221E+01
             -0.740407388059530E+02
              0.125571924896794E+03
              0.620169338484042E+02
             -0.165334866237837E+03
              0.196328355892554E+03
              0.132702534433091E+02
             -0.784457321649660E+02
             -0.966727691611302E+02
              0.393547182136462E+03
              0.175866497493898E+03
             -0.441785933856929E+02
              0.971482237548116E+02
             -0.191786245549378E+03
             -0.415249228444718E+02
             -0.170452560373647E+03
              0.658894602031221E+02
              0.122331109110591E+03
              0.134547307143019E+03
             -0.590076867295725E+02
              0.101098400711753E+02
              0.167605496504333E+03
              0.536485091669306E+02
              0.998789971409259E+02
              0.406071335921690E+02
             -0.225470653257672E+02
              0.422392959209105E+00
             -0.312076688767133E+02
              0.347609714881498E+02
              0.116547665514465E+02
             -0.152295771082662E+03
              0.233257275363739E+03
              0.897832141109826E+02
             -0.165324436746720E+03
             -0.121436528828401E+03
             -0.171473501547886E+03
             -0.744336850699453E+02
             -0.539856817286998E+02
             -0.135698761402553E+03
             -0.133920670468125E+03
              0.161337397822724E+03
              0.128357616826997E+03
             -0.177102193919759E+02
              0.192744175792290E+03
              0.277807374150721E+02
             -0.309659266376969E+03
              0.166197597910258E+03
              0.284062161466055E+02
              0.130614024217104E+03
              0.176691638827805E+02
              0.146922515884775E+02
              0.266267746475930E+02
              0.705991442943080E+02
             -0.129224987064591E+03
             -0.609744194431105E+02
             -0.122088597248431E+03
             -0.101131654914898E+03
              0.420955320017031E+02
             -0.112200847252878E+03
              0.540814381802554E+02
              0.742979402672355E+02
             -0.687063459315823E+02
             -0.438614117687043E+02
              0.282567522918725E+01
              0.192449361101696E+03
              0.291156353396455E+02
              0.184768058190695E+03
              0.662118816859304E+02
             -0.244351721376396E+03
             -0.810295766221221E+02
              0.833351589922636E+02
              0.192181223497336E+03
              0.318081043642879E+02
              0.789884736384532E+02
              0.176885698002224E+03
             -0.102453320626746E+03
             -0.157244838593401E+03
              0.218030368945408E+03
              0.126289957832805E+02
             -0.230469541398850E+03
              0.842210136400608E+02
              0.145903081215079E+03
             -0.373647403298808E+02
             -0.151860447046683E+03
              0.316096246671592E+02
              0.653339367702574E+01
             -0.738100186229659E+02
              0.283192729292532E+02
             -0.246086616603138E+02
              0.342843450049294E+03
              0.997362241630612E+02
             -0.145202435711180E+03
              0.428942018024754E+02
              0.208782556217058E+03
             -0.141039245329559E+03
             -0.367609965885686E+02
             -0.133456198615058E+03
              0.106863132625433E+03
              0.338445333579863E+02
              0.706327554921372E+02
              0.127568442635313E+02
              0.242565727645891E+03
             -0.137951994416416E+03
             -0.108982596562080E+03
             -0.105169965897030E+03
              0.923795506109568E+02
              0.241000552512022E+03
             -0.402308578847974E+02
              0.986400712288739E+02
             -0.140019424109186E+03
              0.268309561384083E+02
             -0.448343378949117E+02
              0.967750988747594E+01
             -0.542606636716785E+02
             -0.442998522114204E+02
             -0.434691947140807E+02
              0.358784504004323E+02
              0.700366185982604E+02
             -0.152746129667451E+03
              0.113027140454189E+03
             -0.182061417599514E+03
              0.137373206062896E+03
             -0.145254892314671E+03
              0.235311609005640E+03
              0.129211983902956E+03
              0.148732875009630E+03
              0.368932690478141E+02
              0.434002961905753E+02
             -0.325030652348098E+03
              0.528350437335974E+02
              0.119928851906222E+02
              0.309373918765241E+02
             -0.530386524235611E+02
              0.251319773205296E+03
             -0.584732106294330E+02
             -0.103873105776465E+03
             -0.243253543074591E+03
             -0.844140415913912E+02
             -0.116674055091168E+03
             -0.101420858177714E+03
             -0.229023253249279E+02
             -0.555990392201777E+02
             -0.705197466638816E+02
             -0.108265642581222E+03
              0.829129513832054E+02
              0.261097071260590E+03
              0.220560909381393E+03
             -0.391682220642338E+02
             -0.265224232980587E+03
             -0.113028279626890E+03
              0.542828819677499E+02
              0.542304408910272E+02
              0.866625093559536E+02
              0.609507934098344E+02
              0.107561291151333E+02
              0.259085851943668E+03
             -0.630048460248299E+02
              0.127350302518316E+03
              0.653686603621433E+02
             -0.882544285512056E+02
             -0.423098212463068E+02
              0.117375624704199E+03
             -0.626124050788198E+02
             -0.385281008911057E+02
             -0.285289455710650E+02
              0.151160887954991E+03
             -0.198798029327683E+03
             -0.159984924216501E+02
             -0.153445149338929E+03
             -0.326021203810874E+03
             -0.834566120409590E+00
             -0.480310417686992E+02
              0.126707032896680E+03
              0.140878597710813E+03
              0.192734158077047E+03
             -0.125353537657705E+03
              0.194826239355401E+03
              0.486670241990502E+02
             -0.722837176700060E+02
              0.260368951095109E+02
             -0.616305335198243E+02
             -0.364293856869708E+02
              0.112526693162863E+03
             -0.932079919902742E+02
              0.249930942646429E+03
             -0.666527618371615E+02
             -0.138085888823677E+03
              0.261312460170937E+03
             -0.141487911207460E+03
             -0.113882153083066E+02
              0.137814684379846E+02
              0.755097253318968E+02
             -0.110473730295814E+03
             -0.841466180024889E+02
              0.134261981493143E+03
             -0.201908595722818E+03
              0.166565440279333E+03
              0.246307689981662E+02
              0.119382812056056E+03
              0.172925379465609E+03
              0.442260335342150E+02
             -0.240193296839851E+03
             -0.103943674570524E+03
             -0.173459442316981E+03
             -0.103241159334058E+03
             -0.275753692484593E+02
              0.372010447353111E+02
             -0.809687717881823E+02
             -0.139205934877009E+01
             -0.241427192872530E+03
              0.134548205070336E+02
             -0.155612643793914E+03
              0.150866236958345E+03
             -0.884882437711844E+02
             -0.212895610529795E+02
              0.113851513460454E+03
              0.224642211555698E+02
              0.105865683098020E+03
             -0.201657757891934E+03
              0.335851809142150E+02
              0.138258853606741E+02
              0.867657283105873E+02
              0.139197743814706E+03
             -0.257438946242416E+02
             -0.158552633447231E+03
             -0.915709087947640E+02
             -0.647409116895342E+02
             -0.191623435583429E+02
              0.147754095501548E+03
              0.958623294254937E+02
             -0.972056787812433E+02
             -0.912452817855003E+02
              0.669700577450485E+02
              0.729381773592712E+02
             -0.196956496401962E+03
              0.459640994504960E+02
              0.141362132727069E+03
             -0.625812689447002E+01
              0.177836277555666E+03
              0.822826972275953E+02
              0.140038797877420E+03
              0.212833521481155E+03
              0.320848159267500E+02
             -0.290114499063247E+03
              0.400140475418080E+02
              0.313702178096525E+03
              0.227945081692163E+03
             -0.157162868142685E+03
              0.141891714551740E+02
              0.203996714335492E+03
              0.176851155958950E+03
              0.777200132047744E+02
             -0.470149512466270E+02
              0.780942691292574E+02
              0.161670632464370E+03
             -0.747091253490898E+02
             -0.480729749281667E+02
              0.109509667202873E+03
             -0.669262677478991E+01
              0.981809967030253E+02
             -0.304132441224589E+02
              0.204996451146814E+03
             -0.782076168540009E+02
              0.470008594505268E+02
             -0.869287341880088E+02
              0.101444290126428E+03
             -0.137671236602822E+02
              0.151141392575325E+03
              0.108116662095916E+02
              0.675924858209304E+02
             -0.961110838763959E+02
             -0.671974500918719E+02
             -0.342449684923948E+02
             -0.311858246355891E+02
              0.164545884985202E+03
              0.808929467532787E+02
              0.199745928126097E+03
              0.184212189415916E+03
              0.516812118149694E+02
              0.932380496530487E+01
              0.196482586012115E+03
              0.110403810233264E+03
              0.104160961943194E+00
              0.191336035606672E+03
             -0.157017385265110E+03
              0.550567317339207E+02
             -0.102192014597083E+03
             -0.278338226684102E+02
              0.264533940940724E+03
             -0.370885819181681E+02
             -0.109841715923583E+02
             -0.288237512995751E+02
              0.217289878435446E+03
             -0.467199291906556E+02
             -0.400944202267965E+01
              0.438490011960094E+03
             -0.129845339276560E+03
             -0.161971998481479E+03
             -0.162121327559968E+03
             -0.103614132403786E+03
              0.943729319686552E+02
             -0.423402694478682E+02
              0.240382883291363E+02
             -0.109629181294263E+02
              0.555315742675186E+02
              0.892449056072116E+02
              0.103973838050650E+03
              0.149663068946837E+03
              0.958660552394426E+02
              0.978286832629799E+02
             -0.180883009853756E+03
             -0.186810023061953E+03
             -0.421338448259303E+02
             -0.166987630642472E+03
              0.265159161512963E+03
              0.223370008748940E+03
              0.105288936760777E+03
              0.290384045821571E+03
             -0.145163534145295E+03
             -0.625045720963522E+02
             -0.900171266884281E+02
              0.251142473492156E+03
 
 BEEF-vdW xc energy contributions
            1 :    -2270.749400378250     
            2 :     2081.064006194310     
            3 :    -1757.303305363719     
            4 :     1385.438409302368     
            5 :    -1046.807525315457     
            6 :     791.8127777796667     
            7 :    -631.4312712859610     
            8 :     544.5843460861590     
            9 :    -494.2907691900155     
           10 :     445.4430664704250     
           11 :    -378.1063891277099     
           12 :     291.9157725619443     
           13 :    -200.8786222103408     
           14 :     122.6236960075330     
           15 :    -68.48119426288940     
           16 :     39.04657781140850     
           17 :    -25.94487463737642     
           18 :     17.41298732501264     
           19 :    -4.358432440809338     
           20 :    -15.84551422932964     
           21 :     39.24450311697728     
           22 :    -58.58019852767757     
           23 :     68.01925944663662     
           24 :    -66.66573578412863     
           25 :     58.99220157275749     
           26 :    -52.20141695048915     
           27 :     52.22998954578452     
           28 :    -60.64323688930290     
           29 :     73.97038045366662     
           30 :    -85.67839960971378     
           31 :    -194.9658989098730     
           32 :    -140.2368777626521     

     Writing all to output data dir ./PbI2.save/
 
     init_run     :      5.47s CPU      9.96s WALL (       1 calls)
     electrons    :    108.86s CPU    112.76s WALL (       1 calls)
     forces       :      5.42s CPU      5.55s WALL (       1 calls)
     stress       :     73.13s CPU     73.75s WALL (       1 calls)

     Called by init_run:
     wfcinit      :      2.58s CPU      6.77s WALL (       1 calls)
     potinit      :      1.01s CPU      1.18s WALL (       1 calls)
     hinit0       :      0.83s CPU      0.91s WALL (       1 calls)

     Called by electrons:
     c_bands      :    101.83s CPU    105.13s WALL (       2 calls)
     sum_band     :      4.80s CPU      5.14s WALL (       2 calls)
     v_of_rho     :      1.36s CPU      1.46s WALL (       2 calls)
     v_h          :      0.01s CPU      0.01s WALL (       2 calls)
     v_xc         :     20.75s CPU     21.14s WALL (      38 calls)
     newd         :      0.36s CPU      0.37s WALL (       2 calls)
     PAW_pot      :      0.31s CPU      0.32s WALL (       2 calls)
     mix_rho      :      0.00s CPU      0.00s WALL (       2 calls)
     vdW_kernel   :      0.25s CPU      0.26s WALL (       1 calls)

     Called by c_bands:
     init_us_2    :      0.41s CPU      0.42s WALL (      12 calls)
     init_us_2:cp :      0.41s CPU      0.42s WALL (      12 calls)
     cegterg      :     86.81s CPU     89.16s WALL (       4 calls)

     Called by sum_band:
     sum_band:wei :      0.00s CPU      0.00s WALL (       2 calls)
     sum_band:loo :      4.43s CPU      4.47s WALL (       2 calls)
     sum_band:buf :      0.11s CPU      0.12s WALL (       4 calls)
     sum_band:ini :      0.17s CPU      0.17s WALL (       4 calls)
     sum_band:cal :      1.68s CPU      1.69s WALL (       4 calls)
     sum_band:bec :      0.02s CPU      0.02s WALL (       4 calls)
     addusdens    :      0.33s CPU      0.47s WALL (       2 calls)
     addusd:skk   :      0.02s CPU      0.02s WALL (       4 calls)
     addusd:dgemm :      0.18s CPU      0.32s WALL (       4 calls)
     addusd:qvan2 :      0.12s CPU      0.12s WALL (       4 calls)

     Called by *egterg:
     cdiaghg      :     49.95s CPU     50.81s WALL (      32 calls)
     cegterg:over :      6.16s CPU      6.34s WALL (      32 calls)
     cegterg:upda :      3.72s CPU      3.85s WALL (      32 calls)
     cegterg:last :      1.95s CPU      1.97s WALL (       4 calls)
     h_psi        :     18.50s CPU     18.88s WALL (      36 calls)
     s_psi        :      3.93s CPU      3.96s WALL (      36 calls)
     g_psi        :      0.06s CPU      0.06s WALL (      32 calls)

     Called by h_psi:
     h_psi:calbec :      4.20s CPU      4.24s WALL (      36 calls)
     vloc_psi     :     10.19s CPU     10.32s WALL (      36 calls)
     add_vuspsi   :      3.94s CPU      4.01s WALL (      36 calls)

     General routines
     calbec       :     12.14s CPU     12.24s WALL (      50 calls)
     fft          :      8.90s CPU      9.02s WALL (    2232 calls)
     ffts         :      0.01s CPU      0.01s WALL (       4 calls)
     fftw         :     11.63s CPU     11.78s WALL (   11304 calls)
     interpolate  :      0.01s CPU      0.02s WALL (       2 calls)
 
     Parallel routines

     PAW routines
     PAW_pot      :      0.31s CPU      0.32s WALL (       2 calls)
 
     PWSCF        :   3m33.90s CPU   3m48.47s WALL

 
   This run was terminated on:  12:19:20  18Feb2024            

=------------------------------------------------------------------------------=
   JOB DONE.
=------------------------------------------------------------------------------=
