
     Program PWSCF v.7.1 starts on 13Apr2024 at  7:27:15 

     This program is part of the open-source Quantum ESPRESSO suite
     for quantum simulation of materials; please cite
         "P. Giannozzi et al., J. Phys.:Condens. Matter 21 395502 (2009);
         "P. Giannozzi et al., J. Phys.:Condens. Matter 29 465901 (2017);
         "P. Giannozzi et al., J. Chem. Phys. 152 154105 (2020);
          URL http://www.quantum-espresso.org", 
     in publications or presentations arising from this work. More details at
     http://www.quantum-espresso.org/quote

     Parallel version (MPI & OpenMP), running on     128 processor cores
     Number of MPI processes:               128
     Threads/MPI process:                     1

     MPI processes distributed on     1 nodes
     2047397 MiB available memory on the printing compute node when the environment starts
 
     Reading input from espresso.pwi
Warning: card &CELL ignored
Warning: card    CELL_DYNAMICS    = 'BFGS' ignored
Warning: card / ignored

     Current dimensions of program PWSCF are:
     Max number of different atomic species (ntypx) = 10
     Max number of k-points (npk) =  40000
     Max angular momentum in pseudopotentials (lmaxx) =  4
     file Ga.pbe-dn-kjpaw_psl.1.0.0.UPF: wavefunction(s)  4S renormalized
     file N.pbe-n-kjpaw_psl.1.0.0.UPF: wavefunction(s)  2S renormalized

     **************************************************************************
     Initializing libbeef V0.1.2 with the BEEF-vdW functional.
     Citation: Wellendorff et al., PRB 85, 235149 (2012).
     **************************************************************************


     IMPORTANT: XC functional enforced from input :
     Exchange-correlation= BEEF-VDW
                           (   1   4  43  14   2   0   0)
     Any further DFT definition will be discarded
     Please, verify this is what you really want

 
     K-points division:     npool     =       2
     R & G space division:  proc/nbgrp/npool/nimage =      64
     Subspace diagonalization in iterative solution of the eigenvalue problem:
     a serial algorithm will be used

 
     Parallelization info
     --------------------
     sticks:   dense  smooth     PW     G-vecs:    dense   smooth      PW
     Min         226     181     47                26979    19303    2571
     Max         228     182     48                26983    19308    2576
     Sum       14527   11629   3037              1726709  1235535  164709
 
     Using Slab Decomposition
 


     bravais-lattice index     =            4
     lattice parameter (alat)  =      24.5252  a.u.
     unit-cell volume          =   15616.6055 (a.u.)^3
     number of atoms/cell      =          192
     number of atomic types    =            2
     number of electrons       =      1738.00
     number of Kohn-Sham states=         1043
     kinetic-energy cutoff     =      70.0000  Ry
     charge density cutoff     =     350.0000  Ry
     scf convergence threshold =      1.0E-07
     mixing beta               =       0.7000
     number of iterations used =            8  plain     mixing
     energy convergence thresh.=      1.0E-04
     force convergence thresh. =      1.0E-03
     Exchange-correlation= BEEF-VDW
                           (   1   4  43  14   2   0   0)
     nstep                     =           50


     celldm(1)=  24.525232  celldm(2)=   0.000000  celldm(3)=   1.222409
     celldm(4)=   0.000000  celldm(5)=   0.000000  celldm(6)=   0.000000

     crystal axes: (cart. coord. in units of alat)
               a(1) = (   1.000000   0.000000   0.000000 )  
               a(2) = (  -0.500000   0.866025   0.000000 )  
               a(3) = (   0.000000   0.000000   1.222409 )  

     reciprocal axes: (cart. coord. in units 2 pi/alat)
               b(1) = (  1.000000  0.577350 -0.000000 )  
               b(2) = (  0.000000  1.154701  0.000000 )  
               b(3) = (  0.000000 -0.000000  0.818057 )  


     PseudoPot. # 1 for Ga read from file:
     //group///packages/espresso/pseudo/psl_1.0.0/pslibrary.1.0.0/pbe/PSEUDOPOTENTIALS/Ga.pbe-dn-kjpaw_psl.1.0.0.UPF
     MD5 check sum: cd2a01e492f15b435d17032472d8505c
     Pseudo is Projector augmented-wave + core cor, Zval = 13.0
     Generated using 'atomic' code by A. Dal Corso  v.7.1
     Shape of augmentation charge: PSQ
     Using radial grid of 1205 points,  6 beta functions with: 
                l(1) =   0
                l(2) =   0
                l(3) =   1
                l(4) =   1
                l(5) =   2
                l(6) =   2
     Q(r) pseudized with 0 coefficients 


     PseudoPot. # 2 for N  read from file:
     //group///packages/espresso/pseudo/psl_1.0.0/pslibrary.1.0.0/pbe/PSEUDOPOTENTIALS/N.pbe-n-kjpaw_psl.1.0.0.UPF
     MD5 check sum: f77f775694dac7e2c3fe1c82443d1a16
     Pseudo is Projector augmented-wave + core cor, Zval =  5.0
     Generated using 'atomic' code by A. Dal Corso  v.7.1
     Shape of augmentation charge: PSQ
     Using radial grid of 1085 points,  4 beta functions with: 
                l(1) =   0
                l(2) =   0
                l(3) =   1
                l(4) =   1
     Q(r) pseudized with 0 coefficients 


     atomic species   valence    mass     pseudopotential
        Ga            13.00    69.72300     Ga( 1.00)
        N              5.00    14.00700     N ( 1.00)

      6 Sym. Ops. (no inversion) found ( 4 have fractional translation)


                                    s                        frac. trans.

      isym =  1     identity                                     

 cryst.   s( 1) = (     1          0          0      )
                  (     0          1          0      )
                  (     0          0          1      )

 cart.    s( 1) = (  1.0000000  0.0000000  0.0000000 )
                  (  0.0000000  1.0000000  0.0000000 )
                  (  0.0000000  0.0000000  1.0000000 )


      isym =  2     120 deg rotation - cryst. axis [0,0,1]       

 cryst.   s( 2) = (     0          1          0      )    f =( -0.2500000 )
                  (    -1         -1          0      )       (  0.0000002 )
                  (     0          0          1      )       (  0.0000000 )

 cart.    s( 2) = ( -0.5000000 -0.8660254  0.0000000 )    f =( -0.2500001 )
                  (  0.8660254 -0.5000000  0.0000000 )       (  0.0000002 )
                  (  0.0000000  0.0000000  1.0000000 )       (  0.0000000 )


      isym =  3     120 deg rotation - cryst. axis [0,0,-1]      

 cryst.   s( 3) = (    -1         -1          0      )    f =( -0.2500002 )
                  (     1          0          0      )       ( -0.2500000 )
                  (     0          0          1      )       (  0.0000000 )

 cart.    s( 3) = ( -0.5000000  0.8660254  0.0000000 )    f =( -0.1250002 )
                  ( -0.8660254 -0.5000000  0.0000000 )       ( -0.2165064 )
                  (  0.0000000  0.0000000  1.0000000 )       (  0.0000000 )


      isym =  4     inv. 180 deg rotation - cart. axis [1,0,0]   

 cryst.   s( 4) = (    -1          0          0      )    f =( -0.2500002 )
                  (     1          1          0      )       (  0.0000000 )
                  (     0          0          1      )       (  0.0000000 )

 cart.    s( 4) = ( -1.0000000  0.0000000  0.0000000 )    f =( -0.2500002 )
                  (  0.0000000  1.0000000  0.0000000 )       (  0.0000000 )
                  (  0.0000000  0.0000000  1.0000000 )       (  0.0000000 )


      isym =  5     inv. 180 deg rotation - cryst. axis [0,1,0]  

 cryst.   s( 5) = (     1          1          0      )
                  (     0         -1          0      )
                  (     0          0          1      )

 cart.    s( 5) = (  0.5000000  0.8660254  0.0000000 )
                  (  0.8660254 -0.5000000  0.0000000 )
                  (  0.0000000  0.0000000  1.0000000 )


      isym =  6     inv. 180 deg rotation - cryst. axis [1,1,0]  

 cryst.   s( 6) = (     0         -1          0      )    f =( -0.2500000 )
                  (    -1          0          0      )       ( -0.2500000 )
                  (     0          0          1      )       (  0.0000000 )

 cart.    s( 6) = (  0.5000000 -0.8660254  0.0000000 )    f =( -0.1250000 )
                  ( -0.8660254 -0.5000000  0.0000000 )       ( -0.2165064 )
                  (  0.0000000  0.0000000  1.0000000 )       (  0.0000000 )


     point group C_3v (3m)  
     there are  3 classes
     the character table:

       E     2C3   3s_v 
A_1    1.00  1.00  1.00
A_2    1.00  1.00 -1.00
E      2.00 -1.00  0.00

     the symmetry operations in each class and the name of the first element:

     E        1
          identity                                               
     2C3      2    3
          120 deg rotation - cryst. axis [0,0,1]                 
     3s_v     4    5    6
          inv. 180 deg rotation - cart. axis [1,0,0]             

   Cartesian axes

     site n.     atom                  positions (alat units)
         1           Ga  tau(   1) = (   0.1250001   0.0721687   0.2033935  )
         2           Ga  tau(   2) = (   0.1250001   0.0721687   0.6108633  )
         3           Ga  tau(   3) = (   0.1250001   0.0721687   1.0183331  )
         4           Ga  tau(   4) = (   0.0000001   0.2886751   0.2033935  )
         5           Ga  tau(   5) = (   0.0000001   0.2886751   0.6108633  )
         6           Ga  tau(   6) = (   0.0000001   0.2886751   1.0183331  )
         7           Ga  tau(   7) = (  -0.1249999   0.5051814   0.2033935  )
         8           Ga  tau(   8) = (  -0.1249999   0.5051814   0.6108633  )
         9           Ga  tau(   9) = (  -0.1249999   0.5051814   1.0183331  )
        10           Ga  tau(  10) = (  -0.2499999   0.7216878   0.2033935  )
        11           Ga  tau(  11) = (  -0.2499999   0.7216878   0.6108633  )
        12           Ga  tau(  12) = (  -0.2499999   0.7216878   1.0183331  )
        13           Ga  tau(  13) = (   0.3750001   0.0721687   0.2033935  )
        14           Ga  tau(  14) = (   0.3750001   0.0721687   0.6108633  )
        15           Ga  tau(  15) = (   0.3750001   0.0721687   1.0183331  )
        16           Ga  tau(  16) = (   0.2500001   0.2886751   0.2033935  )
        17           Ga  tau(  17) = (   0.2500001   0.2886751   0.6108633  )
        18           Ga  tau(  18) = (   0.2500001   0.2886751   1.0183331  )
        19           Ga  tau(  19) = (   0.1250001   0.5051814   0.2033935  )
        20           Ga  tau(  20) = (   0.1250001   0.5051814   0.6108633  )
        21           Ga  tau(  21) = (   0.1250001   0.5051814   1.0183331  )
        22           Ga  tau(  22) = (   0.0000001   0.7216878   0.2033935  )
        23           Ga  tau(  23) = (   0.0000001   0.7216878   0.6108633  )
        24           Ga  tau(  24) = (   0.0000001   0.7216878   1.0183331  )
        25           Ga  tau(  25) = (   0.6250001   0.0721687   0.2033935  )
        26           Ga  tau(  26) = (   0.6250001   0.0721687   0.6108633  )
        27           Ga  tau(  27) = (   0.6250001   0.0721687   1.0183331  )
        28           Ga  tau(  28) = (   0.5000001   0.2886751   0.2033935  )
        29           Ga  tau(  29) = (   0.5000001   0.2886751   0.6108633  )
        30           Ga  tau(  30) = (   0.5000001   0.2886751   1.0183331  )
        31           Ga  tau(  31) = (   0.3750001   0.5051814   0.2033935  )
        32           Ga  tau(  32) = (   0.3750001   0.5051814   0.6108633  )
        33           Ga  tau(  33) = (   0.3750001   0.5051814   1.0183331  )
        34           Ga  tau(  34) = (   0.2500001   0.7216878   0.2033935  )
        35           Ga  tau(  35) = (   0.2500001   0.7216878   0.6108633  )
        36           Ga  tau(  36) = (   0.2500001   0.7216878   1.0183331  )
        37           Ga  tau(  37) = (   0.8750001   0.0721687   0.2033935  )
        38           Ga  tau(  38) = (   0.8750001   0.0721687   0.6108633  )
        39           Ga  tau(  39) = (   0.8750001   0.0721687   1.0183331  )
        40           Ga  tau(  40) = (   0.7500001   0.2886751   0.2033935  )
        41           Ga  tau(  41) = (   0.7500001   0.2886751   0.6108633  )
        42           Ga  tau(  42) = (   0.7500001   0.2886751   1.0183331  )
        43           Ga  tau(  43) = (   0.6250001   0.5051814   0.2033935  )
        44           Ga  tau(  44) = (   0.6250001   0.5051814   0.6108633  )
        45           Ga  tau(  45) = (   0.6250001   0.5051814   1.0183331  )
        46           Ga  tau(  46) = (   0.5000001   0.7216878   0.2033935  )
        47           Ga  tau(  47) = (   0.5000001   0.7216878   0.6108633  )
        48           Ga  tau(  48) = (   0.5000001   0.7216878   1.0183331  )
        49           Ga  tau(  49) = (  -0.0000002   0.1443377   0.4071284  )
        50           Ga  tau(  50) = (  -0.0000002   0.1443377   0.8145982  )
        51           Ga  tau(  51) = (  -0.0000002   0.1443377   1.2220680  )
        52           Ga  tau(  52) = (  -0.1250002   0.3608440   0.4071284  )
        53           Ga  tau(  53) = (  -0.1250002   0.3608440   0.8145982  )
        54           Ga  tau(  54) = (  -0.1250002   0.3608440   1.2220680  )
        55           Ga  tau(  55) = (  -0.2500002   0.5773504   0.4071284  )
        56           Ga  tau(  56) = (  -0.2500002   0.5773504   0.8145982  )
        57           Ga  tau(  57) = (  -0.2500002   0.5773504   1.2220680  )
        58           Ga  tau(  58) = (  -0.3750001   0.7938567   0.4071284  )
        59           Ga  tau(  59) = (  -0.3750001   0.7938567   0.8145982  )
        60           Ga  tau(  60) = (  -0.3750001   0.7938567   1.2220680  )
        61           Ga  tau(  61) = (   0.2499998   0.1443377   0.4071284  )
        62           Ga  tau(  62) = (   0.2499998   0.1443377   0.8145982  )
        63           Ga  tau(  63) = (   0.2499998   0.1443377   1.2220680  )
        64           Ga  tau(  64) = (   0.1249998   0.3608440   0.4071284  )
        65           Ga  tau(  65) = (   0.1249998   0.3608440   0.8145982  )
        66           Ga  tau(  66) = (   0.1249998   0.3608440   1.2220680  )
        67           Ga  tau(  67) = (  -0.0000002   0.5773504   0.4071284  )
        68           Ga  tau(  68) = (  -0.0000002   0.5773504   0.8145982  )
        69           Ga  tau(  69) = (  -0.0000002   0.5773504   1.2220680  )
        70           Ga  tau(  70) = (  -0.1250002   0.7938567   0.4071284  )
        71           Ga  tau(  71) = (  -0.1250002   0.7938567   0.8145982  )
        72           Ga  tau(  72) = (  -0.1250002   0.7938567   1.2220680  )
        73           Ga  tau(  73) = (   0.4999998   0.1443377   0.4071284  )
        74           Ga  tau(  74) = (   0.4999998   0.1443377   0.8145982  )
        75           Ga  tau(  75) = (   0.4999998   0.1443377   1.2220680  )
        76           Ga  tau(  76) = (   0.3749998   0.3608440   0.4071284  )
        77           Ga  tau(  77) = (   0.3749998   0.3608440   0.8145982  )
        78           Ga  tau(  78) = (   0.3749998   0.3608440   1.2220680  )
        79           Ga  tau(  79) = (   0.2499998   0.5773504   0.4071284  )
        80           Ga  tau(  80) = (   0.2499998   0.5773504   0.8145982  )
        81           Ga  tau(  81) = (   0.2499998   0.5773504   1.2220680  )
        82           Ga  tau(  82) = (   0.1249998   0.7938567   0.4071284  )
        83           Ga  tau(  83) = (   0.1249998   0.7938567   0.8145982  )
        84           Ga  tau(  84) = (   0.1249998   0.7938567   1.2220680  )
        85           Ga  tau(  85) = (   0.7499998   0.1443377   0.4071284  )
        86           Ga  tau(  86) = (   0.7499998   0.1443377   0.8145982  )
        87           Ga  tau(  87) = (   0.7499998   0.1443377   1.2220680  )
        88           Ga  tau(  88) = (   0.6249998   0.3608440   0.4071284  )
        89           Ga  tau(  89) = (   0.6249998   0.3608440   0.8145982  )
        90           Ga  tau(  90) = (   0.6249998   0.3608440   1.2220680  )
        91           Ga  tau(  91) = (   0.4999998   0.5773504   0.4071284  )
        92           Ga  tau(  92) = (   0.4999998   0.5773504   0.8145982  )
        93           Ga  tau(  93) = (   0.4999998   0.5773504   1.2220680  )
        94           Ga  tau(  94) = (   0.3749998   0.7938567   0.4071284  )
        95           Ga  tau(  95) = (   0.3749998   0.7938567   0.8145982  )
        96           Ga  tau(  96) = (   0.3749998   0.7938567   1.2220680  )
        97           N   tau(  97) = (   0.1250001   0.0721687   0.7643472  )
        98           N   tau(  98) = (   0.1250001   0.0721687   1.1718169  )
        99           N   tau(  99) = (   0.0000001   0.2886751   0.3568774  )
       100           N   tau( 100) = (   0.0000001   0.2886751   0.7643472  )
       101           N   tau( 101) = (   0.0000001   0.2886751   1.1718169  )
       102           N   tau( 102) = (  -0.1249999   0.5051814   0.3568774  )
       103           N   tau( 103) = (  -0.1249999   0.5051814   0.7643472  )
       104           N   tau( 104) = (  -0.1249999   0.5051814   1.1718169  )
       105           N   tau( 105) = (  -0.2499999   0.7216878   0.3568774  )
       106           N   tau( 106) = (  -0.2499999   0.7216878   0.7643472  )
       107           N   tau( 107) = (  -0.2499999   0.7216878   1.1718169  )
       108           N   tau( 108) = (   0.3750001   0.0721687   0.3568774  )
       109           N   tau( 109) = (   0.3750001   0.0721687   0.7643472  )
       110           N   tau( 110) = (   0.3750001   0.0721687   1.1718169  )
       111           N   tau( 111) = (   0.2500001   0.2886751   0.3568774  )
       112           N   tau( 112) = (   0.2500001   0.2886751   0.7643472  )
       113           N   tau( 113) = (   0.2500001   0.2886751   1.1718169  )
       114           N   tau( 114) = (   0.1250001   0.5051814   0.3568774  )
       115           N   tau( 115) = (   0.1250001   0.5051814   0.7643472  )
       116           N   tau( 116) = (   0.1250001   0.5051814   1.1718169  )
       117           N   tau( 117) = (   0.0000001   0.7216878   0.3568774  )
       118           N   tau( 118) = (   0.0000001   0.7216878   0.7643472  )
       119           N   tau( 119) = (   0.0000001   0.7216878   1.1718169  )
       120           N   tau( 120) = (   0.6250001   0.0721687   0.3568774  )
       121           N   tau( 121) = (   0.6250001   0.0721687   0.7643472  )
       122           N   tau( 122) = (   0.6250001   0.0721687   1.1718169  )
       123           N   tau( 123) = (   0.5000001   0.2886751   0.3568774  )
       124           N   tau( 124) = (   0.5000001   0.2886751   0.7643472  )
       125           N   tau( 125) = (   0.5000001   0.2886751   1.1718169  )
       126           N   tau( 126) = (   0.3750001   0.5051814   0.3568774  )
       127           N   tau( 127) = (   0.3750001   0.5051814   0.7643472  )
       128           N   tau( 128) = (   0.3750001   0.5051814   1.1718169  )
       129           N   tau( 129) = (   0.2500001   0.7216878   0.3568774  )
       130           N   tau( 130) = (   0.2500001   0.7216878   0.7643472  )
       131           N   tau( 131) = (   0.2500001   0.7216878   1.1718169  )
       132           N   tau( 132) = (   0.8750001   0.0721687   0.3568774  )
       133           N   tau( 133) = (   0.8750001   0.0721687   0.7643472  )
       134           N   tau( 134) = (   0.8750001   0.0721687   1.1718169  )
       135           N   tau( 135) = (   0.7500001   0.2886751   0.3568774  )
       136           N   tau( 136) = (   0.7500001   0.2886751   0.7643472  )
       137           N   tau( 137) = (   0.7500001   0.2886751   1.1718169  )
       138           N   tau( 138) = (   0.6250001   0.5051814   0.3568774  )
       139           N   tau( 139) = (   0.6250001   0.5051814   0.7643472  )
       140           N   tau( 140) = (   0.6250001   0.5051814   1.1718169  )
       141           N   tau( 141) = (   0.5000001   0.7216878   0.3568774  )
       142           N   tau( 142) = (   0.5000001   0.7216878   0.7643472  )
       143           N   tau( 143) = (   0.5000001   0.7216878   1.1718169  )
       144           N   tau( 144) = (  -0.0000002   0.1443377   0.1531425  )
       145           N   tau( 145) = (  -0.0000002   0.1443377   0.5606123  )
       146           N   tau( 146) = (  -0.0000002   0.1443377   0.9680820  )
       147           N   tau( 147) = (  -0.1250002   0.3608440   0.1531425  )
       148           N   tau( 148) = (  -0.1250002   0.3608440   0.5606123  )
       149           N   tau( 149) = (  -0.1250002   0.3608440   0.9680820  )
       150           N   tau( 150) = (  -0.2500002   0.5773504   0.1531425  )
       151           N   tau( 151) = (  -0.2500002   0.5773504   0.5606123  )
       152           N   tau( 152) = (  -0.2500002   0.5773504   0.9680820  )
       153           N   tau( 153) = (  -0.3750001   0.7938567   0.1531425  )
       154           N   tau( 154) = (  -0.3750001   0.7938567   0.5606123  )
       155           N   tau( 155) = (  -0.3750001   0.7938567   0.9680820  )
       156           N   tau( 156) = (   0.2499998   0.1443377   0.1531425  )
       157           N   tau( 157) = (   0.2499998   0.1443377   0.5606123  )
       158           N   tau( 158) = (   0.2499998   0.1443377   0.9680820  )
       159           N   tau( 159) = (   0.1249998   0.3608440   0.1531425  )
       160           N   tau( 160) = (   0.1249998   0.3608440   0.5606123  )
       161           N   tau( 161) = (   0.1249998   0.3608440   0.9680820  )
       162           N   tau( 162) = (  -0.0000002   0.5773504   0.1531425  )
       163           N   tau( 163) = (  -0.0000002   0.5773504   0.5606123  )
       164           N   tau( 164) = (  -0.0000002   0.5773504   0.9680820  )
       165           N   tau( 165) = (  -0.1250002   0.7938567   0.1531425  )
       166           N   tau( 166) = (  -0.1250002   0.7938567   0.5606123  )
       167           N   tau( 167) = (  -0.1250002   0.7938567   0.9680820  )
       168           N   tau( 168) = (   0.4999998   0.1443377   0.1531425  )
       169           N   tau( 169) = (   0.4999998   0.1443377   0.5606123  )
       170           N   tau( 170) = (   0.4999998   0.1443377   0.9680820  )
       171           N   tau( 171) = (   0.3749998   0.3608440   0.1531425  )
       172           N   tau( 172) = (   0.3749998   0.3608440   0.5606123  )
       173           N   tau( 173) = (   0.3749998   0.3608440   0.9680820  )
       174           N   tau( 174) = (   0.2499998   0.5773504   0.1531425  )
       175           N   tau( 175) = (   0.2499998   0.5773504   0.5606123  )
       176           N   tau( 176) = (   0.2499998   0.5773504   0.9680820  )
       177           N   tau( 177) = (   0.1249998   0.7938567   0.1531425  )
       178           N   tau( 178) = (   0.1249998   0.7938567   0.5606123  )
       179           N   tau( 179) = (   0.1249998   0.7938567   0.9680820  )
       180           N   tau( 180) = (   0.7499998   0.1443377   0.1531425  )
       181           N   tau( 181) = (   0.7499998   0.1443377   0.5606123  )
       182           N   tau( 182) = (   0.7499998   0.1443377   0.9680820  )
       183           N   tau( 183) = (   0.6249998   0.3608440   0.1531425  )
       184           N   tau( 184) = (   0.6249998   0.3608440   0.5606123  )
       185           N   tau( 185) = (   0.6249998   0.3608440   0.9680820  )
       186           N   tau( 186) = (   0.4999998   0.5773504   0.1531425  )
       187           N   tau( 187) = (   0.4999998   0.5773504   0.5606123  )
       188           N   tau( 188) = (   0.4999998   0.5773504   0.9680820  )
       189           N   tau( 189) = (   0.3749998   0.7938567   0.1531425  )
       190           N   tau( 190) = (   0.3749998   0.7938567   0.5606123  )
       191           N   tau( 191) = (   0.3749998   0.7938567   0.9680820  )
       192           Ga  tau( 192) = (   0.1250001   0.0721687   0.3568774  )

   Crystallographic axes

     site n.     atom                  positions (cryst. coord.)
         1           Ga  tau(   1) = (  0.1666667  0.0833333  0.1663874  )
         2           Ga  tau(   2) = (  0.1666667  0.0833333  0.4997208  )
         3           Ga  tau(   3) = (  0.1666667  0.0833333  0.8330541  )
         4           Ga  tau(   4) = (  0.1666667  0.3333333  0.1663874  )
         5           Ga  tau(   5) = (  0.1666667  0.3333333  0.4997208  )
         6           Ga  tau(   6) = (  0.1666667  0.3333333  0.8330541  )
         7           Ga  tau(   7) = (  0.1666667  0.5833333  0.1663874  )
         8           Ga  tau(   8) = (  0.1666667  0.5833333  0.4997208  )
         9           Ga  tau(   9) = (  0.1666667  0.5833333  0.8330541  )
        10           Ga  tau(  10) = (  0.1666667  0.8333333  0.1663874  )
        11           Ga  tau(  11) = (  0.1666667  0.8333333  0.4997208  )
        12           Ga  tau(  12) = (  0.1666667  0.8333333  0.8330541  )
        13           Ga  tau(  13) = (  0.4166667  0.0833333  0.1663874  )
        14           Ga  tau(  14) = (  0.4166667  0.0833333  0.4997208  )
        15           Ga  tau(  15) = (  0.4166667  0.0833333  0.8330541  )
        16           Ga  tau(  16) = (  0.4166667  0.3333333  0.1663874  )
        17           Ga  tau(  17) = (  0.4166667  0.3333333  0.4997208  )
        18           Ga  tau(  18) = (  0.4166667  0.3333333  0.8330541  )
        19           Ga  tau(  19) = (  0.4166667  0.5833333  0.1663874  )
        20           Ga  tau(  20) = (  0.4166667  0.5833333  0.4997208  )
        21           Ga  tau(  21) = (  0.4166667  0.5833333  0.8330541  )
        22           Ga  tau(  22) = (  0.4166667  0.8333333  0.1663874  )
        23           Ga  tau(  23) = (  0.4166667  0.8333333  0.4997208  )
        24           Ga  tau(  24) = (  0.4166667  0.8333333  0.8330541  )
        25           Ga  tau(  25) = (  0.6666667  0.0833333  0.1663874  )
        26           Ga  tau(  26) = (  0.6666667  0.0833333  0.4997208  )
        27           Ga  tau(  27) = (  0.6666667  0.0833333  0.8330541  )
        28           Ga  tau(  28) = (  0.6666667  0.3333333  0.1663874  )
        29           Ga  tau(  29) = (  0.6666667  0.3333333  0.4997208  )
        30           Ga  tau(  30) = (  0.6666667  0.3333333  0.8330541  )
        31           Ga  tau(  31) = (  0.6666667  0.5833333  0.1663874  )
        32           Ga  tau(  32) = (  0.6666667  0.5833333  0.4997208  )
        33           Ga  tau(  33) = (  0.6666667  0.5833333  0.8330541  )
        34           Ga  tau(  34) = (  0.6666667  0.8333333  0.1663874  )
        35           Ga  tau(  35) = (  0.6666667  0.8333333  0.4997208  )
        36           Ga  tau(  36) = (  0.6666667  0.8333333  0.8330541  )
        37           Ga  tau(  37) = (  0.9166667  0.0833333  0.1663874  )
        38           Ga  tau(  38) = (  0.9166667  0.0833333  0.4997208  )
        39           Ga  tau(  39) = (  0.9166667  0.0833333  0.8330541  )
        40           Ga  tau(  40) = (  0.9166667  0.3333333  0.1663874  )
        41           Ga  tau(  41) = (  0.9166667  0.3333333  0.4997208  )
        42           Ga  tau(  42) = (  0.9166667  0.3333333  0.8330541  )
        43           Ga  tau(  43) = (  0.9166667  0.5833333  0.1663874  )
        44           Ga  tau(  44) = (  0.9166667  0.5833333  0.4997208  )
        45           Ga  tau(  45) = (  0.9166667  0.5833333  0.8330541  )
        46           Ga  tau(  46) = (  0.9166667  0.8333333  0.1663874  )
        47           Ga  tau(  47) = (  0.9166667  0.8333333  0.4997208  )
        48           Ga  tau(  48) = (  0.9166667  0.8333333  0.8330541  )
        49           Ga  tau(  49) = (  0.0833333  0.1666668  0.3330541  )
        50           Ga  tau(  50) = (  0.0833333  0.1666668  0.6663874  )
        51           Ga  tau(  51) = (  0.0833333  0.1666668  0.9997208  )
        52           Ga  tau(  52) = (  0.0833333  0.4166668  0.3330541  )
        53           Ga  tau(  53) = (  0.0833333  0.4166668  0.6663874  )
        54           Ga  tau(  54) = (  0.0833333  0.4166668  0.9997208  )
        55           Ga  tau(  55) = (  0.0833333  0.6666668  0.3330541  )
        56           Ga  tau(  56) = (  0.0833333  0.6666668  0.6663874  )
        57           Ga  tau(  57) = (  0.0833333  0.6666668  0.9997208  )
        58           Ga  tau(  58) = (  0.0833333  0.9166668  0.3330541  )
        59           Ga  tau(  59) = (  0.0833333  0.9166668  0.6663874  )
        60           Ga  tau(  60) = (  0.0833333  0.9166668  0.9997208  )
        61           Ga  tau(  61) = (  0.3333332  0.1666668  0.3330541  )
        62           Ga  tau(  62) = (  0.3333332  0.1666668  0.6663874  )
        63           Ga  tau(  63) = (  0.3333332  0.1666668  0.9997208  )
        64           Ga  tau(  64) = (  0.3333332  0.4166668  0.3330541  )
        65           Ga  tau(  65) = (  0.3333332  0.4166668  0.6663874  )
        66           Ga  tau(  66) = (  0.3333332  0.4166668  0.9997208  )
        67           Ga  tau(  67) = (  0.3333332  0.6666668  0.3330541  )
        68           Ga  tau(  68) = (  0.3333332  0.6666668  0.6663874  )
        69           Ga  tau(  69) = (  0.3333332  0.6666668  0.9997208  )
        70           Ga  tau(  70) = (  0.3333332  0.9166668  0.3330541  )
        71           Ga  tau(  71) = (  0.3333332  0.9166668  0.6663874  )
        72           Ga  tau(  72) = (  0.3333332  0.9166668  0.9997208  )
        73           Ga  tau(  73) = (  0.5833332  0.1666668  0.3330541  )
        74           Ga  tau(  74) = (  0.5833332  0.1666668  0.6663874  )
        75           Ga  tau(  75) = (  0.5833332  0.1666668  0.9997208  )
        76           Ga  tau(  76) = (  0.5833332  0.4166668  0.3330541  )
        77           Ga  tau(  77) = (  0.5833332  0.4166668  0.6663874  )
        78           Ga  tau(  78) = (  0.5833332  0.4166668  0.9997208  )
        79           Ga  tau(  79) = (  0.5833332  0.6666668  0.3330541  )
        80           Ga  tau(  80) = (  0.5833332  0.6666668  0.6663874  )
        81           Ga  tau(  81) = (  0.5833332  0.6666668  0.9997208  )
        82           Ga  tau(  82) = (  0.5833332  0.9166668  0.3330541  )
        83           Ga  tau(  83) = (  0.5833332  0.9166668  0.6663874  )
        84           Ga  tau(  84) = (  0.5833332  0.9166668  0.9997208  )
        85           Ga  tau(  85) = (  0.8333332  0.1666668  0.3330541  )
        86           Ga  tau(  86) = (  0.8333332  0.1666668  0.6663874  )
        87           Ga  tau(  87) = (  0.8333332  0.1666668  0.9997208  )
        88           Ga  tau(  88) = (  0.8333332  0.4166668  0.3330541  )
        89           Ga  tau(  89) = (  0.8333332  0.4166668  0.6663874  )
        90           Ga  tau(  90) = (  0.8333332  0.4166668  0.9997208  )
        91           Ga  tau(  91) = (  0.8333332  0.6666668  0.3330541  )
        92           Ga  tau(  92) = (  0.8333332  0.6666668  0.6663874  )
        93           Ga  tau(  93) = (  0.8333332  0.6666668  0.9997208  )
        94           Ga  tau(  94) = (  0.8333332  0.9166668  0.3330541  )
        95           Ga  tau(  95) = (  0.8333332  0.9166668  0.6663874  )
        96           Ga  tau(  96) = (  0.8333332  0.9166668  0.9997208  )
        97           N   tau(  97) = (  0.1666667  0.0833333  0.6252792  )
        98           N   tau(  98) = (  0.1666667  0.0833333  0.9586126  )
        99           N   tau(  99) = (  0.1666667  0.3333333  0.2919459  )
       100           N   tau( 100) = (  0.1666667  0.3333333  0.6252792  )
       101           N   tau( 101) = (  0.1666667  0.3333333  0.9586126  )
       102           N   tau( 102) = (  0.1666667  0.5833333  0.2919459  )
       103           N   tau( 103) = (  0.1666667  0.5833333  0.6252792  )
       104           N   tau( 104) = (  0.1666667  0.5833333  0.9586126  )
       105           N   tau( 105) = (  0.1666667  0.8333333  0.2919459  )
       106           N   tau( 106) = (  0.1666667  0.8333333  0.6252792  )
       107           N   tau( 107) = (  0.1666667  0.8333333  0.9586126  )
       108           N   tau( 108) = (  0.4166667  0.0833333  0.2919459  )
       109           N   tau( 109) = (  0.4166667  0.0833333  0.6252792  )
       110           N   tau( 110) = (  0.4166667  0.0833333  0.9586126  )
       111           N   tau( 111) = (  0.4166667  0.3333333  0.2919459  )
       112           N   tau( 112) = (  0.4166667  0.3333333  0.6252792  )
       113           N   tau( 113) = (  0.4166667  0.3333333  0.9586126  )
       114           N   tau( 114) = (  0.4166667  0.5833333  0.2919459  )
       115           N   tau( 115) = (  0.4166667  0.5833333  0.6252792  )
       116           N   tau( 116) = (  0.4166667  0.5833333  0.9586126  )
       117           N   tau( 117) = (  0.4166667  0.8333333  0.2919459  )
       118           N   tau( 118) = (  0.4166667  0.8333333  0.6252792  )
       119           N   tau( 119) = (  0.4166667  0.8333333  0.9586126  )
       120           N   tau( 120) = (  0.6666667  0.0833333  0.2919459  )
       121           N   tau( 121) = (  0.6666667  0.0833333  0.6252792  )
       122           N   tau( 122) = (  0.6666667  0.0833333  0.9586126  )
       123           N   tau( 123) = (  0.6666667  0.3333333  0.2919459  )
       124           N   tau( 124) = (  0.6666667  0.3333333  0.6252792  )
       125           N   tau( 125) = (  0.6666667  0.3333333  0.9586126  )
       126           N   tau( 126) = (  0.6666667  0.5833333  0.2919459  )
       127           N   tau( 127) = (  0.6666667  0.5833333  0.6252792  )
       128           N   tau( 128) = (  0.6666667  0.5833333  0.9586126  )
       129           N   tau( 129) = (  0.6666667  0.8333333  0.2919459  )
       130           N   tau( 130) = (  0.6666667  0.8333333  0.6252792  )
       131           N   tau( 131) = (  0.6666667  0.8333333  0.9586126  )
       132           N   tau( 132) = (  0.9166667  0.0833333  0.2919459  )
       133           N   tau( 133) = (  0.9166667  0.0833333  0.6252792  )
       134           N   tau( 134) = (  0.9166667  0.0833333  0.9586126  )
       135           N   tau( 135) = (  0.9166667  0.3333333  0.2919459  )
       136           N   tau( 136) = (  0.9166667  0.3333333  0.6252792  )
       137           N   tau( 137) = (  0.9166667  0.3333333  0.9586126  )
       138           N   tau( 138) = (  0.9166667  0.5833333  0.2919459  )
       139           N   tau( 139) = (  0.9166667  0.5833333  0.6252792  )
       140           N   tau( 140) = (  0.9166667  0.5833333  0.9586126  )
       141           N   tau( 141) = (  0.9166667  0.8333333  0.2919459  )
       142           N   tau( 142) = (  0.9166667  0.8333333  0.6252792  )
       143           N   tau( 143) = (  0.9166667  0.8333333  0.9586126  )
       144           N   tau( 144) = (  0.0833333  0.1666668  0.1252792  )
       145           N   tau( 145) = (  0.0833333  0.1666668  0.4586126  )
       146           N   tau( 146) = (  0.0833333  0.1666668  0.7919459  )
       147           N   tau( 147) = (  0.0833333  0.4166668  0.1252792  )
       148           N   tau( 148) = (  0.0833333  0.4166668  0.4586126  )
       149           N   tau( 149) = (  0.0833333  0.4166668  0.7919459  )
       150           N   tau( 150) = (  0.0833333  0.6666668  0.1252792  )
       151           N   tau( 151) = (  0.0833333  0.6666668  0.4586126  )
       152           N   tau( 152) = (  0.0833333  0.6666668  0.7919459  )
       153           N   tau( 153) = (  0.0833333  0.9166668  0.1252792  )
       154           N   tau( 154) = (  0.0833333  0.9166668  0.4586126  )
       155           N   tau( 155) = (  0.0833333  0.9166668  0.7919459  )
       156           N   tau( 156) = (  0.3333332  0.1666668  0.1252792  )
       157           N   tau( 157) = (  0.3333332  0.1666668  0.4586126  )
       158           N   tau( 158) = (  0.3333332  0.1666668  0.7919459  )
       159           N   tau( 159) = (  0.3333332  0.4166668  0.1252792  )
       160           N   tau( 160) = (  0.3333332  0.4166668  0.4586126  )
       161           N   tau( 161) = (  0.3333332  0.4166668  0.7919459  )
       162           N   tau( 162) = (  0.3333332  0.6666668  0.1252792  )
       163           N   tau( 163) = (  0.3333332  0.6666668  0.4586126  )
       164           N   tau( 164) = (  0.3333332  0.6666668  0.7919459  )
       165           N   tau( 165) = (  0.3333332  0.9166668  0.1252792  )
       166           N   tau( 166) = (  0.3333332  0.9166668  0.4586126  )
       167           N   tau( 167) = (  0.3333332  0.9166668  0.7919459  )
       168           N   tau( 168) = (  0.5833332  0.1666668  0.1252792  )
       169           N   tau( 169) = (  0.5833332  0.1666668  0.4586126  )
       170           N   tau( 170) = (  0.5833332  0.1666668  0.7919459  )
       171           N   tau( 171) = (  0.5833332  0.4166668  0.1252792  )
       172           N   tau( 172) = (  0.5833332  0.4166668  0.4586126  )
       173           N   tau( 173) = (  0.5833332  0.4166668  0.7919459  )
       174           N   tau( 174) = (  0.5833332  0.6666668  0.1252792  )
       175           N   tau( 175) = (  0.5833332  0.6666668  0.4586126  )
       176           N   tau( 176) = (  0.5833332  0.6666668  0.7919459  )
       177           N   tau( 177) = (  0.5833332  0.9166668  0.1252792  )
       178           N   tau( 178) = (  0.5833332  0.9166668  0.4586126  )
       179           N   tau( 179) = (  0.5833332  0.9166668  0.7919459  )
       180           N   tau( 180) = (  0.8333332  0.1666668  0.1252792  )
       181           N   tau( 181) = (  0.8333332  0.1666668  0.4586126  )
       182           N   tau( 182) = (  0.8333332  0.1666668  0.7919459  )
       183           N   tau( 183) = (  0.8333332  0.4166668  0.1252792  )
       184           N   tau( 184) = (  0.8333332  0.4166668  0.4586126  )
       185           N   tau( 185) = (  0.8333332  0.4166668  0.7919459  )
       186           N   tau( 186) = (  0.8333332  0.6666668  0.1252792  )
       187           N   tau( 187) = (  0.8333332  0.6666668  0.4586126  )
       188           N   tau( 188) = (  0.8333332  0.6666668  0.7919459  )
       189           N   tau( 189) = (  0.8333332  0.9166668  0.1252792  )
       190           N   tau( 190) = (  0.8333332  0.9166668  0.4586126  )
       191           N   tau( 191) = (  0.8333332  0.9166668  0.7919459  )
       192           Ga  tau( 192) = (  0.1666667  0.0833333  0.2919459  )

     number of k points=     4  Gaussian smearing, width (Ry)=  0.0100
                       cart. coord. in units 2pi/alat
        k(    1) = (   0.0000000   0.0000000   0.0000000), wk =   0.2500000
        k(    2) = (   0.0000000   0.0000000  -0.4090283), wk =   0.2500000
        k(    3) = (   0.0000000  -0.5773503   0.0000000), wk =   0.7500000
        k(    4) = (   0.0000000  -0.5773503  -0.4090283), wk =   0.7500000

                       cryst. coord.
        k(    1) = (   0.0000000   0.0000000   0.0000000), wk =   0.2500000
        k(    2) = (   0.0000000   0.0000000  -0.5000000), wk =   0.2500000
        k(    3) = (   0.0000000  -0.5000000   0.0000000), wk =   0.7500000
        k(    4) = (   0.0000000  -0.5000000  -0.5000000), wk =   0.7500000

     Dense  grid:  1726709 G-vectors     FFT dimensions: ( 160, 160, 180)

     Smooth grid:  1235535 G-vectors     FFT dimensions: ( 144, 144, 160)

     Dynamical RAM for                 wfc:      38.40 MB

     Dynamical RAM for     wfc (w. buffer):     115.21 MB

     Dynamical RAM for           str. fact:       0.82 MB

     Dynamical RAM for           local pot:       0.00 MB

     Dynamical RAM for          nlocal pot:      92.27 MB

     Dynamical RAM for                qrad:       3.00 MB

     Dynamical RAM for          rho,v,vnew:       2.99 MB

     Dynamical RAM for               rhoin:       1.00 MB

     Dynamical RAM for            rho*nmix:       6.59 MB

     Dynamical RAM for           G-vectors:       1.69 MB

     Dynamical RAM for          h,s,v(r/c):     796.76 MB

     Dynamical RAM for          <psi|beta>:      39.88 MB

     Dynamical RAM for                 psi:     153.61 MB

     Dynamical RAM for                hpsi:     153.61 MB

     Dynamical RAM for                spsi:     153.61 MB

     Dynamical RAM for      wfcinit/wfcrot:     101.71 MB

     Dynamical RAM for           addusdens:      58.46 MB

     Dynamical RAM for          addusforce:      98.36 MB

     Dynamical RAM for         addusstress:      41.48 MB

     Estimated static dynamical RAM per process >     221.15 MB

     Estimated max dynamical RAM per process >       1.49 GB

     Estimated total dynamical RAM >     190.24 GB

     Atomic positions and unit cell read from directory:
     ./GaN.save/
     Atomic positions from file used, from input discarded
 

     Check: negative core charge=   -0.000003

     The initial density is read from file :
     ./GaN.save/charge-density


     starting charge    1737.0000, renormalised to    1738.0000


     %%%%%%%%%%%%%%%%%%%%%%%%%%%%%%%%%%%%%%%%%%%%%%%%%%%%%%%%%%%%%%%%%%%%%%%%
     %                                                                      %
     % You are using vdW-DF, which was implemented by the Thonhauser group. %
     % Please cite the following two papers that made this development      %
     % possible and the two reviews that describe the various versions:     %
     %                                                                      %
     %   T. Thonhauser et al., PRL 115, 136402 (2015).                      %
     %   T. Thonhauser et al., PRB 76, 125112 (2007).                       %
     %   K. Berland et al., Rep. Prog. Phys. 78, 066501 (2015).             %
     %   D.C. Langreth et al., J. Phys.: Condens. Matter 21, 084203 (2009). %
     %                                                                      %
     % If you are calculating stress with vdW-DF, please also cite:         %
     %                                                                      %
     %   R. Sabatini et al., J. Phys.: Condens. Matter 24, 424209 (2012).   %
     %                                                                      %
     %%%%%%%%%%%%%%%%%%%%%%%%%%%%%%%%%%%%%%%%%%%%%%%%%%%%%%%%%%%%%%%%%%%%%%%%

     %%%%%%%%%%%%%%%%%%%%%%%%%%%%%%%%%%%%%%%%%%%%%%%%%%%%%%%%%%%%%%%%%%%%%%%%
     %                                                                      %
     %  vdW-DF NEWS:                                                        %
     %                                                                      %
     %  * vdW-DF3 is now available. DOI: 10.1021/acs.jctc.0c00471           %
     %    use with input_dft = 'vdW-DF3-opt1' or 'vdW-DF3-opt2'             %
     %                                                                      %
     %  * Unscreened and range-separated vdW-DF hybrid functionals          %
     %    DOI: 10.1063/1.4986522 and 10.1088/1361-648X/ac2ad2               %
     %    use with input_dft = 'vdW-DF-cx0' (etc) and 'vdW-DF-ahcx'         %
     %                                                                      %
     %%%%%%%%%%%%%%%%%%%%%%%%%%%%%%%%%%%%%%%%%%%%%%%%%%%%%%%%%%%%%%%%%%%%%%%%


     Carrying out vdW-DF run using the following parameters:
     Nqs    =  20  Npoints =  1024  r_max =  100.000
     q_mesh =  0.00001000  0.04494208  0.09755937  0.15916263
               0.23128650  0.31572767  0.41458969  0.53033537
               0.66584808  0.82450364  1.01025438  1.22772762
               1.48234092  1.78043706  2.12944203  2.53805004
               3.01644009  3.57652955  4.23227104  5.00000000


     -----------------------------------------------
     Non-local corr. energy    =      52.71611786 Ry
     -----------------------------------------------

     Wavefunctions not found or not readable, recomputing them from scratch
     Starting wfcs are 1253 randomized atomic wfcs
     Checking if some PAW data can be deallocated... 
       PAW data deallocated on   79 nodes for type:  1
       PAW data deallocated on   49 nodes for type:  2

     total cpu time spent up to now is       55.3 secs

     Self-consistent Calculation

     iteration #  1     ecut=    70.00 Ry     beta= 0.70
     Davidson diagonalization with overlap

---- Real-time Memory Report at c_bands before calling an iterative solver
           617 MiB given to the printing process from OS
             0 MiB allocation reported by mallinfo(arena+hblkhd)
       2007687 MiB available memory on the node where the printing process lives
------------------
     c_bands:  3 eigenvalues not converged
     ethr =  1.00E-05,  avg # of iterations = 26.5


     -----------------------------------------------
     Non-local corr. energy    =      52.61629766 Ry
     -----------------------------------------------


     total cpu time spent up to now is     1091.2 secs

     total energy              =  -30232.18697543 Ry
     estimated scf accuracy    <       0.11109307 Ry

     iteration #  2     ecut=    70.00 Ry     beta= 0.70
     Davidson diagonalization with overlap

---- Real-time Memory Report at c_bands before calling an iterative solver
          1626 MiB given to the printing process from OS
             0 MiB allocation reported by mallinfo(arena+hblkhd)
       2005074 MiB available memory on the node where the printing process lives
------------------
     ethr =  6.39E-06,  avg # of iterations = 12.5


     -----------------------------------------------
     Non-local corr. energy    =      52.62229823 Ry
     -----------------------------------------------


     total cpu time spent up to now is     1918.3 secs

     total energy              =  -30231.87028750 Ry
     estimated scf accuracy    <       3.77700707 Ry

     iteration #  3     ecut=    70.00 Ry     beta= 0.70
     Davidson diagonalization with overlap

---- Real-time Memory Report at c_bands before calling an iterative solver
          1626 MiB given to the printing process from OS
             0 MiB allocation reported by mallinfo(arena+hblkhd)
       1995772 MiB available memory on the node where the printing process lives
------------------
     ethr =  6.39E-06,  avg # of iterations = 12.5


     -----------------------------------------------
     Non-local corr. energy    =      52.65059628 Ry
     -----------------------------------------------


     total cpu time spent up to now is     2681.2 secs

     total energy              =  -30232.25623069 Ry
     estimated scf accuracy    <       0.06526318 Ry

     iteration #  4     ecut=    70.00 Ry     beta= 0.70
     Davidson diagonalization with overlap

---- Real-time Memory Report at c_bands before calling an iterative solver
          1626 MiB given to the printing process from OS
             0 MiB allocation reported by mallinfo(arena+hblkhd)
       1995744 MiB available memory on the node where the printing process lives
------------------
     ethr =  3.76E-06,  avg # of iterations = 12.8


     -----------------------------------------------
     Non-local corr. energy    =      52.65991681 Ry
     -----------------------------------------------


     total cpu time spent up to now is     3101.4 secs

     total energy              =  -30232.25811995 Ry
     estimated scf accuracy    <       0.02469923 Ry

     iteration #  5     ecut=    70.00 Ry     beta= 0.70
     Davidson diagonalization with overlap

---- Real-time Memory Report at c_bands before calling an iterative solver
          1626 MiB given to the printing process from OS
             0 MiB allocation reported by mallinfo(arena+hblkhd)
       1995742 MiB available memory on the node where the printing process lives
------------------
     ethr =  1.42E-06,  avg # of iterations = 13.5


     -----------------------------------------------
     Non-local corr. energy    =      52.67189488 Ry
     -----------------------------------------------


     total cpu time spent up to now is     3489.9 secs

     total energy              =  -30232.25708697 Ry
     estimated scf accuracy    <       0.01729502 Ry

     iteration #  6     ecut=    70.00 Ry     beta= 0.70
     Davidson diagonalization with overlap

---- Real-time Memory Report at c_bands before calling an iterative solver
          1626 MiB given to the printing process from OS
             0 MiB allocation reported by mallinfo(arena+hblkhd)
       1995733 MiB available memory on the node where the printing process lives
------------------
     ethr =  9.95E-07,  avg # of iterations = 14.5


     -----------------------------------------------
     Non-local corr. energy    =      52.69107895 Ry
     -----------------------------------------------


     total cpu time spent up to now is     3927.5 secs

     total energy              =  -30232.25534383 Ry
     estimated scf accuracy    <       0.00808598 Ry

     iteration #  7     ecut=    70.00 Ry     beta= 0.70
     Davidson diagonalization with overlap

---- Real-time Memory Report at c_bands before calling an iterative solver
          1626 MiB given to the printing process from OS
             0 MiB allocation reported by mallinfo(arena+hblkhd)
       1995698 MiB available memory on the node where the printing process lives
------------------
     ethr =  4.65E-07,  avg # of iterations = 13.3


     -----------------------------------------------
     Non-local corr. energy    =      52.69029451 Ry
     -----------------------------------------------


     total cpu time spent up to now is     4478.2 secs

     total energy              =  -30232.25667092 Ry
     estimated scf accuracy    <       0.00074097 Ry

     iteration #  8     ecut=    70.00 Ry     beta= 0.70
     Davidson diagonalization with overlap

---- Real-time Memory Report at c_bands before calling an iterative solver
          1626 MiB given to the printing process from OS
             0 MiB allocation reported by mallinfo(arena+hblkhd)
       1995601 MiB available memory on the node where the printing process lives
------------------
     ethr =  4.26E-08,  avg # of iterations = 12.5


     -----------------------------------------------
     Non-local corr. energy    =      52.68401781 Ry
     -----------------------------------------------


     total cpu time spent up to now is     5289.9 secs

     total energy              =  -30232.25671924 Ry
     estimated scf accuracy    <       0.00096110 Ry

     iteration #  9     ecut=    70.00 Ry     beta= 0.70
     Davidson diagonalization with overlap

---- Real-time Memory Report at c_bands before calling an iterative solver
          1626 MiB given to the printing process from OS
             0 MiB allocation reported by mallinfo(arena+hblkhd)
       1995652 MiB available memory on the node where the printing process lives
------------------
     ethr =  4.26E-08,  avg # of iterations = 12.3


     -----------------------------------------------
     Non-local corr. energy    =      52.67652292 Ry
     -----------------------------------------------


     total cpu time spent up to now is     5681.4 secs

     total energy              =  -30232.25672129 Ry
     estimated scf accuracy    <       0.00014099 Ry

     iteration # 10     ecut=    70.00 Ry     beta= 0.70
     Davidson diagonalization with overlap

---- Real-time Memory Report at c_bands before calling an iterative solver
          1626 MiB given to the printing process from OS
             0 MiB allocation reported by mallinfo(arena+hblkhd)
       1995535 MiB available memory on the node where the printing process lives
------------------
     ethr =  8.11E-09,  avg # of iterations = 11.5


     -----------------------------------------------
     Non-local corr. energy    =      52.67693776 Ry
     -----------------------------------------------


     total cpu time spent up to now is     6365.5 secs

     total energy              =  -30232.25676241 Ry
     estimated scf accuracy    <       0.00017112 Ry

     iteration # 11     ecut=    70.00 Ry     beta= 0.70
     Davidson diagonalization with overlap

---- Real-time Memory Report at c_bands before calling an iterative solver
          1626 MiB given to the printing process from OS
             0 MiB allocation reported by mallinfo(arena+hblkhd)
       1995285 MiB available memory on the node where the printing process lives
------------------
     ethr =  8.11E-09,  avg # of iterations = 14.8


     -----------------------------------------------
     Non-local corr. energy    =      52.67879423 Ry
     -----------------------------------------------


     total cpu time spent up to now is     6806.6 secs

     total energy              =  -30232.25675878 Ry
     estimated scf accuracy    <       0.00004673 Ry

     iteration # 12     ecut=    70.00 Ry     beta= 0.70
     Davidson diagonalization with overlap

---- Real-time Memory Report at c_bands before calling an iterative solver
          1626 MiB given to the printing process from OS
             0 MiB allocation reported by mallinfo(arena+hblkhd)
       1995197 MiB available memory on the node where the printing process lives
------------------
     ethr =  2.69E-09,  avg # of iterations = 12.5


     -----------------------------------------------
     Non-local corr. energy    =      52.67934096 Ry
     -----------------------------------------------


     total cpu time spent up to now is     7291.6 secs

     total energy              =  -30232.25676360 Ry
     estimated scf accuracy    <       0.00000234 Ry

     iteration # 13     ecut=    70.00 Ry     beta= 0.70
     Davidson diagonalization with overlap

---- Real-time Memory Report at c_bands before calling an iterative solver
          1626 MiB given to the printing process from OS
             0 MiB allocation reported by mallinfo(arena+hblkhd)
       1995194 MiB available memory on the node where the printing process lives
------------------
     ethr =  1.34E-10,  avg # of iterations =  6.5


     -----------------------------------------------
     Non-local corr. energy    =      52.67933036 Ry
     -----------------------------------------------


     total cpu time spent up to now is     7697.8 secs

     total energy              =  -30232.25676557 Ry
     estimated scf accuracy    <       0.00000060 Ry

     iteration # 14     ecut=    70.00 Ry     beta= 0.70
     Davidson diagonalization with overlap

---- Real-time Memory Report at c_bands before calling an iterative solver
          1626 MiB given to the printing process from OS
             0 MiB allocation reported by mallinfo(arena+hblkhd)
       1995273 MiB available memory on the node where the printing process lives
------------------
     ethr =  3.43E-11,  avg # of iterations = 11.0


     -----------------------------------------------
     Non-local corr. energy    =      52.67932066 Ry
     -----------------------------------------------


     total cpu time spent up to now is     8050.7 secs

     total energy              =  -30232.25676554 Ry
     estimated scf accuracy    <       0.00000031 Ry

     iteration # 15     ecut=    70.00 Ry     beta= 0.70
     Davidson diagonalization with overlap

---- Real-time Memory Report at c_bands before calling an iterative solver
          1626 MiB given to the printing process from OS
             0 MiB allocation reported by mallinfo(arena+hblkhd)
       1995171 MiB available memory on the node where the printing process lives
------------------
     ethr =  1.80E-11,  avg # of iterations = 13.0


     -----------------------------------------------
     Non-local corr. energy    =      52.67941627 Ry
     -----------------------------------------------


     total cpu time spent up to now is     8579.8 secs

     total energy              =  -30232.25676549 Ry
     estimated scf accuracy    <       0.00000027 Ry

     iteration # 16     ecut=    70.00 Ry     beta= 0.70
     Davidson diagonalization with overlap

---- Real-time Memory Report at c_bands before calling an iterative solver
          1626 MiB given to the printing process from OS
             0 MiB allocation reported by mallinfo(arena+hblkhd)
       1995173 MiB available memory on the node where the printing process lives
------------------
     ethr =  1.58E-11,  avg # of iterations = 13.5


     -----------------------------------------------
     Non-local corr. energy    =      52.67945546 Ry
     -----------------------------------------------


     total cpu time spent up to now is     9195.6 secs

     End of self-consistent calculation

          k = 0.0000 0.0000 0.0000 (154543 PWs)   bands (ev):

    -6.8855  -6.6607  -6.6116  -6.5940  -6.5939  -6.5930  -6.5827  -6.5826
    -6.5420  -6.4744  -6.4726  -6.4696  -6.4695  -6.4594  -6.4582  -6.4581
    -6.4530  -6.4530  -6.4475  -6.4475  -6.4475  -6.4462  -6.4406  -6.4406
    -6.4331  -6.4310  -6.4310  -6.4265  -6.4090  -6.4087  -6.4087  -6.4048
    -6.4048  -6.4035  -6.3994  -6.3936  -6.3906  -6.3906  -6.3862  -6.3852
    -6.3852  -6.3846  -6.3846  -6.3764  -6.3741  -6.3741  -6.3649  -6.3649
    -6.3585  -6.3585  -6.3469  -6.3422  -6.3406  -6.3406  -6.3295  -6.3228
    -6.3227  -6.3090  -6.3090  -6.3052  -6.2879  -6.2839  -6.2839  -6.2839
    -6.2827  -6.2818  -6.2675  -6.2675  -6.2571  -6.2571  -6.2564  -6.2564
    -6.2470  -6.2412  -6.2381  -6.2315  -6.2194  -6.2192  -6.2192  -6.2183
    -6.2183  -6.2052  -6.2052  -6.1884  -6.1470  -6.1470  -6.1267  -6.0623
    -6.0623  -6.0387  -6.0091  -6.0091  -5.9860  -5.9859  -5.9622  -5.3294
    -5.3293  -5.3024  -5.3018  -5.3018  -5.3010  -5.2977  -5.2977  -5.2968
    -5.2963  -5.2963  -5.2914  -5.2837  -5.2837  -5.2829  -5.2802  -5.2802
    -5.2797  -5.2750  -5.2750  -5.2696  -5.2696  -5.2695  -5.2665  -5.2665
    -5.2638  -5.2638  -5.2620  -5.2597  -5.2597  -5.2571  -5.2548  -5.2492
    -5.2492  -5.2452  -5.2445  -5.2445  -5.2394  -5.2361  -5.2341  -5.2341
    -5.2314  -5.2314  -5.2298  -5.2291  -5.2287  -5.2287  -5.2284  -5.2273
    -5.2273  -5.2224  -5.2224  -5.2207  -5.2192  -5.2192  -5.2153  -5.2152
    -5.2152  -5.2123  -5.2123  -5.2108  -5.2084  -5.2084  -5.2067  -5.2067
    -5.2050  -5.2022  -5.2021  -5.2021  -5.2000  -5.1995  -5.1995  -5.1946
    -5.1946  -5.1922  -5.1922  -5.1920  -5.1894  -5.1894  -5.1848  -5.1847
    -5.1839  -5.1839  -5.1802  -5.1790  -5.1790  -5.1764  -5.1752  -5.1745
    -5.1745  -5.1737  -5.1678  -5.1678  -5.1669  -5.1657  -5.1654  -5.1654
    -5.1635  -5.1635  -5.1630  -5.1610  -5.1604  -5.1604  -5.1582  -5.1582
    -5.1557  -5.1557  -5.1557  -5.1527  -5.1521  -5.1506  -5.1506  -5.1499
    -5.1490  -5.1490  -5.1467  -5.1467  -5.1442  -5.1429  -5.1423  -5.1423
    -5.1409  -5.1409  -5.1402  -5.1349  -5.1338  -5.1338  -5.1330  -5.1330
    -5.1325  -5.1306  -5.1304  -5.1304  -5.1266  -5.1266  -5.1248  -5.1239
    -5.1239  -5.1224  -5.1224  -5.1205  -5.1205  -5.1199  -5.1194  -5.1174
    -5.1174  -5.1170  -5.1158  -5.1141  -5.1141  -5.1133  -5.1132  -5.1132
    -5.1129  -5.1105  -5.1105  -5.1101  -5.1101  -5.1079  -5.1069  -5.1069
    -5.1049  -5.1049  -5.1049  -5.1033  -5.1033  -5.1012  -5.1001  -5.1001
    -5.0995  -5.0982  -5.0978  -5.0978  -5.0958  -5.0958  -5.0938  -5.0938
    -5.0938  -5.0934  -5.0931  -5.0899  -5.0899  -5.0891  -5.0891  -5.0853
    -5.0853  -5.0850  -5.0840  -5.0830  -5.0830  -5.0803  -5.0803  -5.0779
    -5.0773  -5.0770  -5.0758  -5.0758  -5.0719  -5.0711  -5.0711  -5.0692
    -5.0692  -5.0665  -5.0665  -5.0643  -5.0639  -5.0639  -5.0632  -5.0622
    -5.0622  -5.0619  -5.0612  -5.0596  -5.0596  -5.0578  -5.0578  -5.0578
    -5.0567  -5.0563  -5.0563  -5.0530  -5.0523  -5.0523  -5.0515  -5.0491
    -5.0491  -5.0484  -5.0460  -5.0436  -5.0436  -5.0420  -5.0420  -5.0411
    -5.0396  -5.0396  -5.0393  -5.0370  -5.0370  -5.0315  -5.0315  -5.0311
    -5.0311  -5.0304  -5.0285  -5.0285  -5.0282  -5.0269  -5.0227  -5.0227
    -5.0220  -5.0220  -5.0220  -5.0219  -5.0185  -5.0183  -5.0183  -5.0159
    -5.0159  -5.0104  -5.0087  -5.0087  -5.0059  -5.0059  -5.0053  -5.0044
    -5.0044  -5.0018  -5.0001  -5.0001  -4.9996  -4.9992  -4.9969  -4.9932
    -4.9931  -4.9875  -4.9868  -4.9868  -4.9867  -4.9835  -4.9835  -4.9820
    -4.9820  -4.9776  -4.9776  -4.9752  -4.9739  -4.9739  -4.9719  -4.9706
    -4.9706  -4.9690  -4.9675  -4.9675  -4.9648  -4.9615  -4.9615  -4.9604
    -4.9584  -4.9584  -4.9532  -4.9505  -4.9505  -4.9454  -4.9450  -4.9450
    -4.9438  -4.9415  -4.9415  -4.9396  -4.9355  -4.9354  -4.9354  -4.9319
    -4.9319  -4.9306  -4.9261  -4.9246  -4.9246  -4.9221  -4.9221  -4.9163
    -4.9163  -4.9130  -4.9130  -4.9130  -4.9093  -4.9093  -4.9080  -4.9076
    -4.9009  -4.8936  -4.8936  -4.8929  -4.8917  -4.8917  -4.8863  -4.8863
    -4.8854  -4.8844  -4.8736  -4.8736  -4.8704  -4.8652  -4.8652  -4.8644
    -4.8613  -4.8576  -4.8576  -4.8521  -4.8521  -4.8505  -4.8482  -4.8482
    -4.8380  -4.8372  -4.8372  -4.8310  -4.8310  -4.8246  -4.8222  -4.8222
    -4.8219  -4.8161  -4.8151  -4.8151  -4.8085  -4.8085  -4.8036  -4.8036
    -4.8012  -4.7965  -4.7956  -4.7956  -4.7849  -4.6038  -4.6038  -4.6013
    -4.5988  -4.5988  -4.5838  -4.5687  -4.5687  -4.5646  -4.5646  -4.5531
    -4.4905  -4.4430  -4.4258  -4.4258  -4.4072  -4.3915  -4.3915  -4.3850
    -4.3523  -4.3523  -4.2820  -4.2820  -4.2576  -4.2324  -4.2324  -4.2173
    -4.2117  -4.2116  -4.1914  -4.1870  -4.1794  -4.1794  -4.1084  -3.7778
    -3.7727  -3.7727  -3.7693  -3.7604  -3.7604  -3.7597  -3.7548  -3.7548
    -3.7524  -3.7384  -3.7384  -3.7084  -3.7084  -3.6730  -3.6729  -3.6208
    -3.6129  -3.6129  -3.6095  -3.5868  -3.5690  -3.5689  -3.5497  -3.5497
    -3.5457  -3.5280  -3.4993  -3.4993  -3.4703  -3.4698  -3.4698  -3.4558
    -3.4506  -3.4505  -3.4437  -3.4078  -3.3260  -3.3260  -3.2310  -3.1655
    -3.1655  -3.1569  -3.1489  -3.1462  -3.1462  -3.1193  -3.0999  -3.0999
    -3.0899  -3.0899  -3.0858  -3.0800  -3.0800  -3.0756  -3.0756  -3.0734
    -3.0433  -3.0433  -3.0145  -3.0124  -3.0124  -2.9954  -2.9613  -2.9278
    -2.9278  -2.8558  -2.8558  -2.8255  -2.8255  -2.8225  -2.7913  -2.7151
    -2.7151  -2.6760  -2.6725  -2.6725   2.0970   2.2945   2.3083   2.3083
     2.3157   2.3167   2.3167   2.4321   2.6307   2.6307   2.6857   2.7632
     2.7717   2.7717   2.8224   2.8224   2.8480   2.8537   2.8538   2.8687
     2.8687   2.8796   2.8847   2.8848   2.8858   2.8954   2.9045   2.9045
     2.9253   2.9254   2.9262   2.9403   3.0002   3.0003   3.0457   3.2167
     3.2170   3.2170   3.2670   3.2671   3.3219   3.3544   3.3544   3.3656
     3.3657   3.3988   3.4025   3.4025   3.4110   3.4662   3.4749   3.5162
     3.5162   3.5921   3.6001   3.6090   3.6134   3.6135   3.6248   3.6293
     3.6293   3.6430   3.6830   3.6830   3.6877   3.6878   3.7706   3.7707
     3.8217   3.8795   3.8795   3.9255   4.0078   4.0614   4.0615   4.4222
     4.8252   4.8252   4.8432   4.9017   4.9211   4.9211   4.9246   4.9315
     4.9315   4.9416   4.9417   4.9460   4.9599   4.9663   4.9664   4.9781
     4.9782   4.9825   4.9934   4.9934   5.0031   5.0031   5.0061   5.0216
     5.0318   5.0318   5.0399   5.0519   5.0519   5.1322   5.1322   5.1655
     5.1766   5.1766   5.1770   5.2290   5.2356   5.2357   5.2396   5.3297
     5.3506   5.3507   5.5005   5.5005   5.6219   5.9054   5.9140   5.9141
     5.9389   5.9389   5.9577   5.9643   5.9650   5.9650   5.9904   5.9904
     6.0322   6.0322   6.0362   6.0713   6.0714   6.0801   6.1181   6.1221
     6.1221   6.1234   6.1355   6.1405   6.1539   6.1540   6.1648   6.1649
     6.1781   6.1896   6.1896   6.1944   6.2022   6.2022   6.2133   6.2133
     6.2692   6.3398   6.3398   6.4241   6.4360   6.4490   6.4490   6.4527
     6.4527   6.4564   6.5097   6.5097   6.5160   6.5327   6.5556   6.5556
     6.5632   6.5696   6.5696   6.6651   6.6794   6.6893   6.6893   6.7945
     6.7945   6.8062   6.8346   6.8383   6.8659   6.8659   6.8746   6.9037
     6.9037   6.9228   6.9246   6.9246   6.9888   6.9888   7.0229   7.0527
     7.0527   7.0674   7.0674   7.1549   7.2099   7.2300   7.2301   7.2418
     7.2507   7.2507   7.2768   7.3118   7.3215   7.3275   7.3276   7.3362
     7.3362   7.3483   7.3483   7.3534   7.3534   7.3589   7.4026   7.4075
     7.4075   7.4146   7.4686   7.4959   7.4959   7.5100   7.5100   7.5116
     7.5407   7.5407   7.5740   7.5755   7.5755   7.5833   7.6083   7.6084
     7.6340   7.6520   7.6579   7.6579   7.6628   7.6628   7.6927   7.7004
     7.7004   7.7925   7.7926   7.8168   7.8168   7.8288   7.8856   7.8957
     7.8957   7.9331   7.9401   7.9538   7.9538   7.9654   7.9655   7.9746
     7.9746   7.9779   8.0255   8.0481   8.0482   8.0830   8.0936   8.0936
     8.1097   8.1434   8.1434   8.1987   8.1988   8.2835   8.2835   8.3536
     8.3920   8.3920   8.4402   8.5251   8.5252   8.5859   8.5860   8.7487
     8.7993   8.7994  10.3938  10.5812  11.0182  11.0183  12.1020  12.1080
    12.6601  12.7291  12.7642  12.7642  12.7770  12.8071  12.8112  12.8113
    12.8383  12.8820  12.8821  12.8992  12.8993  12.9059  13.0052  13.1085
    13.1361  13.1362  13.1586  13.1714  13.1715  13.1892  13.1892  13.2079
    13.2079  13.2791  13.4446  13.6979  13.6980  13.7196  13.7305  13.7305
    13.7500  13.9042  13.9397  13.9398  14.0640  14.0641  14.1029  14.2952
    14.3119  14.3120  14.3524  14.3549  14.3549  14.3589  14.3670  14.3670
    14.3812  14.3812  14.3830  14.3930  14.3930  14.4040  14.4040  14.4152
    14.4166  14.4166  14.4352  14.4557  14.4699  14.4699  14.5217  14.5218
    14.5329  14.5673  14.6892  14.6893  14.7122  14.7484  14.7494  14.7494
    14.7716  14.7815  14.7815  14.8114  14.8268  14.8268  14.8595  14.8595
    14.8854  14.8981  14.8982  14.9320  14.9320  14.9419  14.9946  14.9946
    15.0017  15.0017  15.0192  15.0550  15.2114  15.2114  15.2538  15.6794
    15.8878  15.9028  15.9028  15.9186  15.9336  15.9336  15.9434  15.9488
    15.9488  15.9992  15.9993  16.0195  16.0195  16.0263  16.0328  16.1080
    16.1080  16.1330  16.1330  16.1517  16.1551  16.1916  16.1935  16.1935
    16.2042  16.2042  16.2141  16.2958  16.2993  16.2993  16.3802  16.3966
    16.3967  16.4290  16.4291  16.4361  16.4511  16.4557  16.4557  16.4604
    16.4627  16.4627  16.4678  16.4758  16.4758  16.4762  16.4939  16.4939
    16.5126  16.5135  16.5135  16.5388  16.5388  16.5558  16.5558  16.5654
    16.5888  16.6002  16.6051  16.6052  16.6122  16.6179  16.6179  16.6708
    16.6708  16.6743  16.6743  16.6850  16.6943  16.7125  16.7125  16.7447
    16.7606  16.7606  16.8009

     occupation numbers 
     1.0000   1.0000   1.0000   1.0000   1.0000   1.0000   1.0000   1.0000
     1.0000   1.0000   1.0000   1.0000   1.0000   1.0000   1.0000   1.0000
     1.0000   1.0000   1.0000   1.0000   1.0000   1.0000   1.0000   1.0000
     1.0000   1.0000   1.0000   1.0000   1.0000   1.0000   1.0000   1.0000
     1.0000   1.0000   1.0000   1.0000   1.0000   1.0000   1.0000   1.0000
     1.0000   1.0000   1.0000   1.0000   1.0000   1.0000   1.0000   1.0000
     1.0000   1.0000   1.0000   1.0000   1.0000   1.0000   1.0000   1.0000
     1.0000   1.0000   1.0000   1.0000   1.0000   1.0000   1.0000   1.0000
     1.0000   1.0000   1.0000   1.0000   1.0000   1.0000   1.0000   1.0000
     1.0000   1.0000   1.0000   1.0000   1.0000   1.0000   1.0000   1.0000
     1.0000   1.0000   1.0000   1.0000   1.0000   1.0000   1.0000   1.0000
     1.0000   1.0000   1.0000   1.0000   1.0000   1.0000   1.0000   1.0000
     1.0000   1.0000   1.0000   1.0000   1.0000   1.0000   1.0000   1.0000
     1.0000   1.0000   1.0000   1.0000   1.0000   1.0000   1.0000   1.0000
     1.0000   1.0000   1.0000   1.0000   1.0000   1.0000   1.0000   1.0000
     1.0000   1.0000   1.0000   1.0000   1.0000   1.0000   1.0000   1.0000
     1.0000   1.0000   1.0000   1.0000   1.0000   1.0000   1.0000   1.0000
     1.0000   1.0000   1.0000   1.0000   1.0000   1.0000   1.0000   1.0000
     1.0000   1.0000   1.0000   1.0000   1.0000   1.0000   1.0000   1.0000
     1.0000   1.0000   1.0000   1.0000   1.0000   1.0000   1.0000   1.0000
     1.0000   1.0000   1.0000   1.0000   1.0000   1.0000   1.0000   1.0000
     1.0000   1.0000   1.0000   1.0000   1.0000   1.0000   1.0000   1.0000
     1.0000   1.0000   1.0000   1.0000   1.0000   1.0000   1.0000   1.0000
     1.0000   1.0000   1.0000   1.0000   1.0000   1.0000   1.0000   1.0000
     1.0000   1.0000   1.0000   1.0000   1.0000   1.0000   1.0000   1.0000
     1.0000   1.0000   1.0000   1.0000   1.0000   1.0000   1.0000   1.0000
     1.0000   1.0000   1.0000   1.0000   1.0000   1.0000   1.0000   1.0000
     1.0000   1.0000   1.0000   1.0000   1.0000   1.0000   1.0000   1.0000
     1.0000   1.0000   1.0000   1.0000   1.0000   1.0000   1.0000   1.0000
     1.0000   1.0000   1.0000   1.0000   1.0000   1.0000   1.0000   1.0000
     1.0000   1.0000   1.0000   1.0000   1.0000   1.0000   1.0000   1.0000
     1.0000   1.0000   1.0000   1.0000   1.0000   1.0000   1.0000   1.0000
     1.0000   1.0000   1.0000   1.0000   1.0000   1.0000   1.0000   1.0000
     1.0000   1.0000   1.0000   1.0000   1.0000   1.0000   1.0000   1.0000
     1.0000   1.0000   1.0000   1.0000   1.0000   1.0000   1.0000   1.0000
     1.0000   1.0000   1.0000   1.0000   1.0000   1.0000   1.0000   1.0000
     1.0000   1.0000   1.0000   1.0000   1.0000   1.0000   1.0000   1.0000
     1.0000   1.0000   1.0000   1.0000   1.0000   1.0000   1.0000   1.0000
     1.0000   1.0000   1.0000   1.0000   1.0000   1.0000   1.0000   1.0000
     1.0000   1.0000   1.0000   1.0000   1.0000   1.0000   1.0000   1.0000
     1.0000   1.0000   1.0000   1.0000   1.0000   1.0000   1.0000   1.0000
     1.0000   1.0000   1.0000   1.0000   1.0000   1.0000   1.0000   1.0000
     1.0000   1.0000   1.0000   1.0000   1.0000   1.0000   1.0000   1.0000
     1.0000   1.0000   1.0000   1.0000   1.0000   1.0000   1.0000   1.0000
     1.0000   1.0000   1.0000   1.0000   1.0000   1.0000   1.0000   1.0000
     1.0000   1.0000   1.0000   1.0000   1.0000   1.0000   1.0000   1.0000
     1.0000   1.0000   1.0000   1.0000   1.0000   1.0000   1.0000   1.0000
     1.0000   1.0000   1.0000   1.0000   1.0000   1.0000   1.0000   1.0000
     1.0000   1.0000   1.0000   1.0000   1.0000   1.0000   1.0000   1.0000
     1.0000   1.0000   1.0000   1.0000   1.0000   1.0000   1.0000   1.0000
     1.0000   1.0000   1.0000   1.0000   1.0000   1.0000   1.0000   1.0000
     1.0000   1.0000   1.0000   1.0000   1.0000   1.0000   1.0000   1.0000
     1.0000   1.0000   1.0000   1.0000   1.0000   1.0000   1.0000   1.0000
     1.0000   1.0000   1.0000   1.0000   1.0000   1.0000   1.0000   1.0000
     1.0000   1.0000   1.0000   1.0000   1.0000   1.0000   1.0000   1.0000
     1.0000   1.0000   1.0000   1.0000   1.0000   1.0000   1.0000   1.0000
     1.0000   1.0000   1.0000   1.0000   1.0000   1.0000   1.0000   1.0000
     1.0000   1.0000   1.0000   1.0000   1.0000   1.0000   1.0000   1.0000
     1.0000   1.0000   1.0000   1.0000   1.0000   1.0000   1.0000   1.0000
     1.0000   1.0000   1.0000   1.0000   1.0000   1.0000   1.0000   1.0000
     1.0000   1.0000   1.0000   1.0000   1.0000   1.0000   1.0000   1.0000
     1.0000   1.0000   1.0000   1.0000   1.0000   1.0000   1.0000   1.0000
     1.0000   1.0000   1.0000   1.0000   1.0000   1.0000   1.0000   1.0000
     1.0000   1.0000   1.0000   1.0000   1.0000   1.0000   1.0000   1.0000
     1.0000   1.0000   1.0000   1.0000   1.0000   1.0000   1.0000   1.0000
     1.0000   1.0000   1.0000   1.0000   1.0000   1.0000   1.0000   1.0000
     1.0000   1.0000   1.0000   1.0000   1.0000   1.0000   1.0000   1.0000
     1.0000   1.0000   1.0000   1.0000   1.0000   1.0000   1.0000   1.0000
     1.0000   1.0000   1.0000   1.0000   1.0000   1.0000   1.0000   1.0000
     1.0000   1.0000   1.0000   1.0000   1.0000   1.0000   1.0000   1.0000
     1.0000   1.0000   1.0000   1.0000   1.0000   1.0000   1.0000   1.0000
     1.0000   1.0000   1.0000   1.0000   1.0000   1.0000   1.0000   1.0000
     1.0000   1.0000   1.0000   1.0000   1.0000   1.0000   1.0000   1.0000
     1.0000   1.0000   1.0000   1.0000   1.0000   1.0000   1.0000   1.0000
     1.0000   1.0000   1.0000   1.0000   1.0000   1.0000   1.0000   1.0000
     1.0000   1.0000   1.0000   1.0000   1.0000   1.0000   1.0000   1.0000
     1.0000   1.0000   1.0000   1.0000   1.0000   1.0000   1.0000   1.0000
     1.0000   1.0000   1.0000   1.0000   1.0000   1.0000   1.0000   1.0000
     1.0000   1.0000   1.0000   1.0000   1.0000   1.0000   1.0000   1.0000
     1.0000   1.0000   1.0000   1.0000   1.0000   1.0000   1.0000   1.0000
     1.0000   1.0000   1.0000   1.0000   1.0000   1.0000   1.0000   1.0000
     1.0000   1.0000   1.0000   1.0000   1.0000   1.0000   1.0000   1.0000
     1.0000   1.0000   1.0000   1.0000   1.0000   1.0000   1.0000   1.0000
     1.0000   1.0000   1.0000   1.0000   1.0000   1.0000   1.0000   1.0000
     1.0000   1.0000   1.0000   1.0000   1.0000   1.0000   1.0000   1.0000
     1.0000   1.0000   1.0000   1.0000   1.0000   1.0000   1.0000   1.0000
     1.0000   1.0000   1.0000   1.0000   1.0000   1.0000   1.0000   1.0000
     1.0000   1.0000   1.0000   1.0000   1.0000   1.0000   1.0000   1.0000
     1.0000   1.0000   1.0000   1.0000   1.0000   1.0000   1.0000   1.0000
     1.0000   1.0000   1.0000   1.0000   1.0000   1.0000   1.0000   1.0000
     1.0000   1.0000   1.0000   1.0000   1.0000   1.0000   1.0000   1.0000
     1.0000   1.0000   1.0000   1.0000   1.0000   1.0000   1.0000   1.0000
     1.0000   1.0000   1.0000   1.0000   1.0000   1.0000   1.0000   1.0000
     1.0000   1.0000   1.0000   1.0000   1.0000   1.0000   1.0000   1.0000
     1.0000   1.0000   1.0000   1.0000   1.0000   1.0000   1.0000   1.0000
     1.0000   1.0000   1.0000   1.0000   1.0000   1.0000   1.0000   1.0000
     1.0000   1.0000   1.0000   1.0000   1.0000   1.0000   1.0000   1.0000
     1.0000   1.0000   1.0000   1.0000   1.0000   1.0000   1.0000   1.0000
     1.0000   1.0000   1.0000   1.0000   1.0000   1.0000   1.0000   1.0000
     1.0000   1.0000   1.0000   1.0000   1.0000   1.0000   1.0000   1.0000
     1.0000   1.0000   1.0000   1.0000   1.0000   1.0000   1.0000   1.0000
     1.0000   1.0000   1.0000   1.0000   1.0000   1.0000   1.0000   1.0000
     1.0000   1.0000   1.0000   1.0000   1.0000   1.0000   1.0000   1.0000
     1.0000   1.0000   1.0000   1.0000   1.0000   1.0000   1.0000   1.0000
     1.0000   1.0000   1.0000   1.0000   1.0000   1.0000   1.0000   1.0000
     1.0000   1.0000   1.0000   1.0000   1.0000   1.0000   1.0000   1.0000
     1.0000   1.0000   1.0000   1.0000   1.0000   1.0000   1.0000   1.0000
     1.0000   1.0000   1.0000   1.0000   1.0000   1.0000   1.0000   1.0000
     1.0000   1.0000   1.0000   1.0000   0.7625   0.7620   0.0000   0.0000
     0.0000   0.0000   0.0000   0.0000   0.0000   0.0000   0.0000   0.0000
     0.0000   0.0000   0.0000   0.0000   0.0000   0.0000   0.0000   0.0000
     0.0000   0.0000   0.0000   0.0000   0.0000   0.0000   0.0000   0.0000
     0.0000   0.0000   0.0000   0.0000   0.0000   0.0000   0.0000   0.0000
     0.0000   0.0000   0.0000   0.0000   0.0000   0.0000   0.0000   0.0000
     0.0000   0.0000   0.0000   0.0000   0.0000   0.0000   0.0000   0.0000
     0.0000   0.0000   0.0000   0.0000   0.0000   0.0000   0.0000   0.0000
     0.0000   0.0000   0.0000   0.0000   0.0000   0.0000   0.0000   0.0000
     0.0000   0.0000   0.0000   0.0000   0.0000   0.0000   0.0000   0.0000
     0.0000   0.0000   0.0000   0.0000   0.0000   0.0000   0.0000   0.0000
     0.0000   0.0000   0.0000   0.0000   0.0000   0.0000   0.0000   0.0000
     0.0000   0.0000   0.0000   0.0000   0.0000   0.0000   0.0000   0.0000
     0.0000   0.0000   0.0000   0.0000   0.0000   0.0000   0.0000   0.0000
     0.0000   0.0000   0.0000   0.0000   0.0000   0.0000   0.0000   0.0000
     0.0000   0.0000   0.0000   0.0000   0.0000   0.0000   0.0000   0.0000
     0.0000   0.0000   0.0000   0.0000   0.0000   0.0000   0.0000   0.0000
     0.0000   0.0000   0.0000   0.0000   0.0000   0.0000   0.0000   0.0000
     0.0000   0.0000   0.0000   0.0000   0.0000   0.0000   0.0000   0.0000
     0.0000   0.0000   0.0000   0.0000   0.0000   0.0000   0.0000   0.0000
     0.0000   0.0000   0.0000   0.0000   0.0000   0.0000   0.0000   0.0000
     0.0000   0.0000   0.0000   0.0000   0.0000   0.0000   0.0000   0.0000
     0.0000   0.0000   0.0000

          k = 0.0000 0.0000-0.4090 (154532 PWs)   bands (ev):

    -6.8684  -6.7311  -6.5883  -6.5883  -6.5863  -6.5791  -6.5790  -6.5415
    -6.5258  -6.5020  -6.4940  -6.4890  -6.4889  -6.4634  -6.4634  -6.4588
    -6.4572  -6.4571  -6.4460  -6.4446  -6.4446  -6.4381  -6.4359  -6.4346
    -6.4346  -6.4280  -6.4280  -6.4264  -6.4088  -6.4082  -6.4081  -6.4074
    -6.4045  -6.4045  -6.3985  -6.3903  -6.3896  -6.3896  -6.3863  -6.3862
    -6.3843  -6.3793  -6.3792  -6.3761  -6.3746  -6.3746  -6.3652  -6.3652
    -6.3589  -6.3589  -6.3475  -6.3437  -6.3382  -6.3381  -6.3295  -6.3230
    -6.3230  -6.3090  -6.3090  -6.3044  -6.2873  -6.2847  -6.2837  -6.2837
    -6.2829  -6.2814  -6.2675  -6.2675  -6.2574  -6.2574  -6.2568  -6.2568
    -6.2471  -6.2408  -6.2378  -6.2320  -6.2193  -6.2192  -6.2192  -6.2178
    -6.2178  -6.2053  -6.2053  -6.1882  -6.1473  -6.1473  -6.1262  -6.0615
    -6.0615  -6.0390  -6.0093  -6.0093  -5.9860  -5.9860  -5.9622  -5.3294
    -5.3294  -5.3020  -5.3017  -5.3017  -5.3007  -5.2976  -5.2976  -5.2965
    -5.2961  -5.2961  -5.2907  -5.2837  -5.2837  -5.2822  -5.2802  -5.2802
    -5.2797  -5.2750  -5.2750  -5.2695  -5.2695  -5.2681  -5.2664  -5.2664
    -5.2635  -5.2635  -5.2617  -5.2598  -5.2598  -5.2570  -5.2537  -5.2490
    -5.2490  -5.2444  -5.2444  -5.2443  -5.2406  -5.2362  -5.2352  -5.2352
    -5.2314  -5.2314  -5.2308  -5.2292  -5.2289  -5.2289  -5.2282  -5.2275
    -5.2275  -5.2233  -5.2233  -5.2227  -5.2192  -5.2192  -5.2158  -5.2158
    -5.2157  -5.2124  -5.2123  -5.2123  -5.2085  -5.2085  -5.2071  -5.2071
    -5.2060  -5.2029  -5.2029  -5.2021  -5.1998  -5.1998  -5.1995  -5.1978
    -5.1948  -5.1948  -5.1936  -5.1927  -5.1927  -5.1898  -5.1898  -5.1834
    -5.1834  -5.1827  -5.1801  -5.1786  -5.1786  -5.1762  -5.1734  -5.1734
    -5.1729  -5.1721  -5.1703  -5.1678  -5.1678  -5.1654  -5.1654  -5.1653
    -5.1627  -5.1621  -5.1621  -5.1607  -5.1607  -5.1594  -5.1591  -5.1591
    -5.1540  -5.1540  -5.1537  -5.1534  -5.1520  -5.1505  -5.1505  -5.1494
    -5.1482  -5.1475  -5.1475  -5.1436  -5.1436  -5.1434  -5.1434  -5.1433
    -5.1431  -5.1399  -5.1399  -5.1388  -5.1358  -5.1358  -5.1341  -5.1334
    -5.1334  -5.1307  -5.1300  -5.1286  -5.1286  -5.1249  -5.1249  -5.1233
    -5.1227  -5.1227  -5.1223  -5.1223  -5.1208  -5.1192  -5.1192  -5.1192
    -5.1181  -5.1180  -5.1180  -5.1162  -5.1139  -5.1139  -5.1136  -5.1136
    -5.1129  -5.1119  -5.1119  -5.1102  -5.1102  -5.1093  -5.1078  -5.1078
    -5.1062  -5.1049  -5.1048  -5.1040  -5.1027  -5.1027  -5.1003  -5.1003
    -5.1003  -5.0999  -5.0998  -5.0998  -5.0969  -5.0966  -5.0966  -5.0966
    -5.0938  -5.0938  -5.0915  -5.0904  -5.0904  -5.0872  -5.0872  -5.0864
    -5.0864  -5.0857  -5.0829  -5.0829  -5.0819  -5.0818  -5.0805  -5.0805
    -5.0782  -5.0771  -5.0771  -5.0726  -5.0723  -5.0723  -5.0716  -5.0697
    -5.0697  -5.0678  -5.0678  -5.0663  -5.0663  -5.0659  -5.0658  -5.0634
    -5.0619  -5.0619  -5.0605  -5.0605  -5.0604  -5.0572  -5.0572  -5.0567
    -5.0549  -5.0549  -5.0537  -5.0514  -5.0514  -5.0510  -5.0501  -5.0501
    -5.0481  -5.0459  -5.0458  -5.0458  -5.0439  -5.0437  -5.0410  -5.0410
    -5.0395  -5.0395  -5.0352  -5.0352  -5.0328  -5.0323  -5.0318  -5.0318
    -5.0311  -5.0311  -5.0285  -5.0285  -5.0259  -5.0247  -5.0234  -5.0234
    -5.0225  -5.0205  -5.0205  -5.0202  -5.0176  -5.0176  -5.0145  -5.0145
    -5.0143  -5.0114  -5.0088  -5.0088  -5.0067  -5.0067  -5.0044  -5.0030
    -5.0030  -5.0028  -4.9991  -4.9990  -4.9989  -4.9975  -4.9946  -4.9946
    -4.9902  -4.9871  -4.9853  -4.9853  -4.9845  -4.9845  -4.9822  -4.9814
    -4.9814  -4.9784  -4.9783  -4.9781  -4.9730  -4.9730  -4.9704  -4.9704
    -4.9689  -4.9682  -4.9682  -4.9649  -4.9615  -4.9615  -4.9611  -4.9584
[...]
     -----------------------------------------------

          total   stress  (Ry/bohr**3)                   (kbar)     P=       39.14
   0.00025745  -0.00000000   0.00000000           37.87       -0.00        0.00
   0.00000000   0.00025745  -0.00000000            0.00       37.87       -0.00
   0.00000000  -0.00000000   0.00028325            0.00       -0.00       41.67

     kinetic stress (kbar)  18509.91      0.00      0.00
                                0.00  18509.91      0.00
                                0.00      0.00  18507.58

     local   stress (kbar)   5639.13     -0.07     -0.00
                               -0.07   5639.03      0.00
                               -0.00      0.00   3815.98

     nonloc. stress (kbar)     82.96      0.00      0.00
                                0.00     82.96      0.00
                                0.00      0.00     91.46

     hartree stress (kbar)  19744.22     -0.00     -0.00
                               -0.00  19744.22      0.00
                               -0.00      0.00  20562.55

     exc-cor stress (kbar)   5287.27      0.00     -0.00
                                0.00   5287.28      0.00
                               -0.00      0.00   5287.97

     corecor stress (kbar) -14245.12     -0.00     -0.00
                               -0.00 -14245.12      0.00
                               -0.00      0.00 -14244.68

     ewald   stress (kbar) -35143.92      0.10      0.00
                                0.10 -35143.80     -0.00
                                0.00     -0.00 -34141.61

     hubbard stress (kbar)      0.00      0.00      0.00
                                0.00      0.00      0.00
                                0.00      0.00      0.00

     DFT-D   stress (kbar)      0.00      0.00      0.00
                                0.00      0.00      0.00
                                0.00      0.00      0.00

     XDM     stress (kbar)      0.00      0.00      0.00
                                0.00      0.00      0.00
                                0.00      0.00      0.00

     dft-nl  stress (kbar)    163.41     -0.00     -0.00
                               -0.00    163.41     -0.00
                               -0.00     -0.00    162.43

     TS-vdW  stress (kbar)      0.00      0.00      0.00
                                0.00      0.00      0.00
                                0.00      0.00      0.00

     MDB     stress (kbar)      0.00      0.00      0.00
                                0.00      0.00      0.00
                                0.00      0.00      0.00

     3D-RISM stress (kbar)      0.00      0.00      0.00
                                0.00      0.00      0.00
                                0.00      0.00      0.00

     Energy error            =      2.5E-05 Ry
     Gradient error          =      9.7E-04 Ry/Bohr

     bfgs converged in  12 scf cycles and  11 bfgs steps
     (criteria: energy <  1.0E-04 Ry, force <  1.0E-03 Ry/Bohr)

     End of BFGS Geometry Optimization

     Final energy             =  -30232.2688019773 Ry

     File ./GaN.bfgs deleted, as requested
Begin final coordinates

ATOMIC_POSITIONS (angstrom)
Ga            1.6222756606        0.9366198184        2.3742509203
Ga            1.6222756606        0.9366198184        7.8295250930
Ga            1.6222756606        0.9366198184       13.1839794061
Ga           -0.0039759634        3.7216094145        2.6445573397
Ga           -0.0083466788        3.7728533088        7.9688789641
Ga           -0.0008266079        3.7556121055       13.1895179977
Ga           -1.6263466315        6.5539904718        2.6405792300
Ga           -1.6204086901        6.5574187438        7.9381345089
Ga           -1.6202416707        6.5575151725       13.2283730749
Ga           -3.2680752462        9.3751952132        2.6445573397
Ga           -3.2258820896        9.3457881155        7.9688789641
Ga           -3.2370533742        9.3609212896       13.1895179977
Ga            4.8472732120        0.9525002398        2.6445573397
Ga            4.8938370840        0.9306634432        7.9688789641
Ga            4.8751457285        0.9327714724       13.1895179977
Ga            3.2485272846        3.7216094145        2.6445573397
Ga            3.2528980000        3.7728533088        7.9688789641
Ga            3.2453779291        3.7556121055       13.1895179977
Ga            1.6222756606        6.5439357494        2.6535795457
Ga            1.6222756606        6.5569639339        7.9153548402
Ga            1.6222756606        6.5607949117       13.2324768175
Ga           -0.0107431304        9.3724072652        2.6535795457
Ga            0.0005396083        9.3658931730        7.9153548402
Ga            0.0038573324        9.3639776840       13.2324768175
Ga            8.1113724947        0.9413239240        2.6405792300
Ga            8.1113724947        0.9344673799        7.9381345089
Ga            8.1113724947        0.9342745225       13.2283730749
Ga            6.4860081093        3.7446970570        2.6396665928
Ga            6.4913432411        3.7477772968        7.9354480208
Ga            6.4917546808        3.7480148417       13.2257064163
Ga            4.8708979527        6.5539904718        2.6405792300
Ga            4.8649600113        6.5574187438        7.9381345089
Ga            4.8647929919        6.5575151725       13.2283730749
Ga            3.2552944516        9.3724072652        2.6535795457
Ga            3.2440117129        9.3658931730        7.9153548402
Ga            3.2406939888        9.3639776840       13.2324768175
Ga           11.3754717774        0.9525002398        2.6445573397
Ga           11.3289079054        0.9306634432        7.9688789641
Ga           11.3475992610        0.9327714724       13.1895179977
Ga            9.7367368802        3.7446970570        2.6396665928
Ga            9.7314017483        3.7477772968        7.9354480208
Ga            9.7309903086        3.7480148417       13.2257064163
Ga            8.1113724947        6.5599107535        2.6396665928
Ga            8.1113724947        6.5537502739        7.9354480208
Ga            8.1113724947        6.5532751843       13.2257064163
Ga            6.5126265674        9.3751952132        2.6445573397
Ga            6.4704334108        9.3457881155        7.9688789641
Ga            6.4816046954        9.3609212896       13.1895179977
Ga           -0.1757594836        1.9747160973        5.3823502652
Ga            0.0056761102        1.8699642084       10.5438910993
Ga           -0.0312512916        1.8912842537       15.7743056321
Ga           -1.6489205801        4.7201011280        5.2925522303
Ga           -1.6288854157        4.6887699505       10.5835624736
Ga           -1.6192943725        4.6826871992       15.8640245466
Ga           -3.2258319590        7.4513917553        5.2925522303
Ga           -3.2429479725        7.4844083054       10.5835624736
Ga           -3.2434202681        7.4957557681       15.8640245466
Ga           -4.8668245904       10.0998792041        5.3823502652
Ga           -4.8668245904       10.3093829819       10.5438910993
Ga           -4.8668245904       10.2667428912       15.7743056321
Ga            3.4203039711        1.9747160973        5.3823502652
Ga            3.2388683773        1.8699642084       10.5438910993
Ga            3.2757957791        1.8912842537       15.7743056321
Ga            1.6222722437        4.6548861188        5.2795781627
Ga            1.6222722437        4.7009159321       10.5827083855
Ga            1.6222722437        4.6770371474       15.8601140000
Ga           -0.0000304121        7.4929487286        5.2743862220
Ga            0.0036076068        7.4950491398       10.5742278232
Ga            0.0005831349        7.4933029602       15.8784493449
Ga           -1.6467134017       10.3169353461        5.2795781627
Ga           -1.6068504141       10.2939204394       10.5827083855
Ga           -1.6275300482       10.3058598318       15.8601140000
Ga            6.5344576990        1.8778185154        5.2925522303
Ga            6.4973065212        1.8761331429       10.5835624736
Ga            6.4872431824        1.8708684315       15.8640245466
Ga            4.8934650676        4.7201011280        5.2925522303
Ga            4.8734299032        4.6887699505       10.5835624736
Ga            4.8638388600        4.6826871992       15.8640245466
Ga            3.2445748996        7.4929487286        5.2743862220
Ga            3.2409368807        7.4950491398       10.5742278232
Ga            3.2439613526        7.4933029602       15.8784493449
Ga            1.6222722437       10.3028593538        5.2743862220
Ga            1.6222722437       10.2986585314       10.5742278232
Ga            1.6222722437       10.3021508907       15.8784493449
Ga            9.6882804567        1.8778185154        5.2925522303
Ga            9.7254316345        1.8761331429       10.5835624736
Ga            9.7354949733        1.8708684315       15.8640245466
Ga            8.1113690779        4.6831037996        5.2836113123
Ga            8.1113690779        4.6831037996       10.5793572864
Ga            8.1113690779        4.6831037996       15.8707782706
Ga            6.4703764464        7.4513917553        5.2925522303
Ga            6.4874924599        7.4844083054       10.5835624736
Ga            6.4879647555        7.4957557681       15.8640245466
Ga            4.8912578892       10.3169353461        5.2795781627
Ga            4.8513949016       10.2939204394       10.5827083855
Ga            4.8720745357       10.3058598318       15.8601140000
N             1.6222756606        0.9366198184        9.8871121616
N             1.6222756606        0.9366198184       15.1661405743
N            -0.0630718354        3.8418814771        4.6297842087
N            -0.0010901788        3.7679204135        9.9544085723
N            -0.0008850738        3.7720636596       15.1645106389
N            -1.6171651657        6.5592913935        4.6260969256
N            -1.6190097343        6.5582264314        9.9290611976
N            -1.6194071882        6.5579969612       15.2120973169
N            -3.1934645205        9.2638806555        4.6297842087
N            -3.2265258522        9.3545388765        9.9544085723
N            -3.2228351434        9.3526448796       15.1645106389
N             4.9809798096        0.9435427348        4.6297842087
N             4.8859368214        0.9268455775        9.9544085723
N             4.8894224252        0.9245963283       15.1645106389
N             3.3076231566        3.8418814771        4.6297842087
N             3.2456415000        3.7679204135        9.9544085723
N             3.2454363950        3.7720636596       15.1645106389
N             1.6222756606        6.5548010060        4.6404245135
N             1.6222756606        6.5646882669        9.9141991299
N             1.6222756606        6.5599106404       15.2181810644
N            -0.0013335422        9.3669746369        4.6404245135
N             0.0072290769        9.3620310064        9.9141991299
N             0.0030915310        9.3644198197       15.2181810644
N             8.1113724947        0.9307220806        4.6260969256
N             8.1113724947        0.9328520049        9.9290611976
N             8.1113724947        0.9333109452       15.2120973169
N             6.5003876512        3.7529990894        4.6360557564
N             6.4914786480        3.7478554740        9.9282679589
N             6.4900687267        3.7470414556       15.2090283282
N             4.8617164869        6.5592913935        4.6260969256
N             4.8635610555        6.5582264314        9.9290611976
N             4.8639585094        6.5579969612       15.2120973169
N             3.2458848634        9.3669746369        4.6404245135
N             3.2373222443        9.3620310064        9.9141991299
N             3.2414597902        9.3644198197       15.2181810644
N            11.2417651799        0.9435427348        4.6297842087
N            11.3368081681        0.9268455775        9.9544085723
N            11.3333225643        0.9245963283       15.1645106389
N             9.7223573383        3.7529990894        4.6360557564
N             9.7312663415        3.7478554740        9.9282679589
N             9.7326762628        3.7470414556       15.2090283282
N             8.1113724947        6.5433066887        4.6360557564
N             8.1113724947        6.5535939195        9.9282679589
N             8.1113724947        6.5552219564       15.2090283282
N             6.4380158417        9.2638806555        4.6297842087
N             6.4710771734        9.3545388765        9.9544085723
N             6.4673864646        9.3526448796       15.1645106389
N            -0.0703056722        1.9138323109        1.8451504559
N            -0.0726364554        1.9151779892        7.3966124370
N            -0.0048173056        1.8760225848       12.5432091986
N            -1.6257403350        4.6870803547        1.9801641520
N            -1.6330847989        4.6943025298        7.2913703808
N            -1.6327892440        4.6893110835       12.5663007900
N            -3.2428386650        7.4879768231        1.9801641520
N            -3.2402563098        7.4780052433        7.2913703808
N            -3.2444312517        7.4807569245       12.5663007900
N            -4.8668245904       10.2216467770        1.8451504559
N            -4.8668245904       10.2189554203        7.3966124370
N            -4.8668245904       10.2972662291       12.5432091986
N             3.3148501597        1.9138323109        1.8451504559
N             3.3171809428        1.9151779892        7.3966124370
N             3.2493617931        1.8760225848       12.5432091986
N             1.6222722437        4.6739514591        1.9858600616
N             1.6222722437        4.6812997449        7.2876953689
N             1.6222722437        4.6986398388       12.5610453021
N             0.0014904616        7.4938268055        1.9973592619
N            -0.0017476941        7.4919572554        7.2740029534
N             0.0015010321        7.4938329083       12.5681008296
N            -1.6302023327       10.3074026759        1.9858600616
N            -1.6238385305       10.3037285330        7.2876953689
N            -1.6088215687       10.2950584861       12.5610453021
N             6.4942707478        1.8742542210        1.9801641520
N             6.5041975669        1.8770036257        7.2913703808
N             6.4997270702        1.8792433908       12.5663007900
N             4.8702848225        4.6870803547        1.9801641520
N             4.8776292864        4.6943025298        7.2913703808
N             4.8773337315        4.6893110835       12.5663007900
N             3.2430540259        7.4938268055        1.9973592619
N             3.2462921816        7.4919572554        7.2740029534
N             3.2430434554        7.4938329083       12.5681008296
N             1.6222722437       10.3011032002        1.9973592619
N             1.6222722437       10.3048423003        7.2740029534
N             1.6222722437       10.3010909944       12.5681008296
N             9.7284674078        1.8742542210        1.9801641520
N             9.7185405888        1.8770036257        7.2913703808
N             9.7230110855        1.8792433908       12.5663007900
N             8.1113690779        4.6831037996        1.9895790356
N             8.1113690779        4.6831037996        7.2815532902
N             8.1113690779        4.6831037996       12.5683363326
N             6.4873831524        7.4879768231        1.9801641520
N             6.4848007972        7.4780052433        7.2913703808
N             6.4889757391        7.4807569245       12.5663007900
N             4.8747468202       10.3074026759        1.9858600616
N             4.8683830180       10.3037285330        7.2876953689
N             4.8533660562       10.2950584861       12.5610453021
Ga            1.6222756606        0.9366198184        4.5964431708
End final coordinates



     Writing all to output data dir ./GaN.save/
 
     init_run     :     38.85s CPU     53.65s WALL (       1 calls)
     electrons    :  74960.79s CPU  75862.39s WALL (      12 calls)
     update_pot   :     19.89s CPU     20.10s WALL (      11 calls)
     forces       :    231.93s CPU    236.53s WALL (      12 calls)
     stress       :   4184.68s CPU   4226.79s WALL (      12 calls)

     Called by init_run:
     wfcinit      :     35.88s CPU     50.32s WALL (       1 calls)
     wfcinit:atom :      0.10s CPU      0.17s WALL (       2 calls)
     wfcinit:wfcr :     35.05s CPU     49.18s WALL (       2 calls)
     potinit      :      1.34s CPU      1.54s WALL (       1 calls)
     hinit0       :      0.61s CPU      0.69s WALL (       1 calls)

     Called by electrons:
     c_bands      :  73674.26s CPU  74555.27s WALL (     156 calls)
     sum_band     :   1081.86s CPU   1095.96s WALL (     156 calls)
     v_of_rho     :     89.10s CPU     90.53s WALL (     164 calls)
     v_h          :      0.92s CPU      0.94s WALL (     164 calls)
     v_xc         :    100.86s CPU    102.46s WALL (     188 calls)
     newd         :     25.07s CPU     25.57s WALL (     164 calls)
     PAW_pot      :     93.70s CPU     94.54s WALL (     175 calls)
     mix_rho      :      4.96s CPU      5.24s WALL (     156 calls)
     vdW_kernel   :      0.25s CPU      0.25s WALL (       1 calls)

     Called by c_bands:
     init_us_2    :     61.05s CPU     62.02s WALL (     696 calls)
     init_us_2:cp :     61.03s CPU     62.02s WALL (     696 calls)
     cegterg      :  58039.13s CPU  58745.88s WALL (     313 calls)

     Called by sum_band:
     sum_band:wei :      0.34s CPU      0.35s WALL (     156 calls)
     sum_band:loo :   1042.04s CPU   1052.73s WALL (     156 calls)
     sum_band:buf :     15.99s CPU     16.37s WALL (     312 calls)
     sum_band:ini :     33.76s CPU     34.20s WALL (     312 calls)
     sum_band:cal :    662.09s CPU    667.47s WALL (     334 calls)
     sum_band:bec :      8.60s CPU      8.75s WALL (     334 calls)
     addusdens    :     26.25s CPU     27.47s WALL (     156 calls)
     addusd:skk   :      5.01s CPU      5.14s WALL (     312 calls)
     addusd:dgemm :     15.05s CPU     16.02s WALL (     312 calls)
     addusd:qvan2 :      5.02s CPU      5.10s WALL (     312 calls)

     Called by *egterg:
     cdiaghg      :  45637.70s CPU  45948.94s WALL (    3467 calls)
     cegterg:over :   2411.91s CPU   2500.73s WALL (    3185 calls)
     cegterg:upda :   1465.45s CPU   1494.81s WALL (    3185 calls)
     cegterg:last :    714.42s CPU    719.83s WALL (     322 calls)
     h_psi        :   5420.21s CPU   5521.67s WALL (    3500 calls)
     s_psi        :   1678.11s CPU   1714.39s WALL (    3500 calls)
     g_psi        :      7.38s CPU      7.48s WALL (    3185 calls)

     Called by h_psi:
     h_psi:calbec :   1799.61s CPU   1814.21s WALL (    3500 calls)
     vloc_psi     :   1912.98s CPU   1937.34s WALL (    3500 calls)
     add_vuspsi   :   1678.19s CPU   1717.38s WALL (    3500 calls)

     General routines
     calbec       :   2800.98s CPU   2823.55s WALL (    3954 calls)
     fft          :     49.03s CPU     49.66s WALL (   12351 calls)
     ffts         :      1.09s CPU      1.11s WALL (     320 calls)
     fftw         :   2115.50s CPU   2142.23s WALL ( 2093548 calls)
     interpolate  :      1.24s CPU      1.25s WALL (     164 calls)
 
     Parallel routines

     PAW routines
     PAW_pot      :     93.70s CPU     94.54s WALL (     175 calls)
     PAW_symme    :      0.61s CPU      0.62s WALL (     330 calls)
 
     PWSCF        :     22h 5m CPU     22h21m WALL

 
   This run was terminated on:   5:48:45  14Apr2024            

=------------------------------------------------------------------------------=
   JOB DONE.
=------------------------------------------------------------------------------=
