
     Program PWSCF v.7.1 starts on 29Sep2023 at 12:32:41 

     This program is part of the open-source Quantum ESPRESSO suite
     for quantum simulation of materials; please cite
         "P. Giannozzi et al., J. Phys.:Condens. Matter 21 395502 (2009);
         "P. Giannozzi et al., J. Phys.:Condens. Matter 29 465901 (2017);
         "P. Giannozzi et al., J. Chem. Phys. 152 154105 (2020);
          URL http://www.quantum-espresso.org", 
     in publications or presentations arising from this work. More details at
     http://www.quantum-espresso.org/quote

     Parallel version (MPI & OpenMP), running on     128 processor cores
     Number of MPI processes:               128
     Threads/MPI process:                     1

     MPI processes distributed on     1 nodes
     1787231 MiB available memory on the printing compute node when the environment starts
 
     Reading input from espresso.pwi
Warning: card &CELL ignored
Warning: card    CELL_DYNAMICS    = 'BFGS' ignored
Warning: card / ignored

     Current dimensions of program PWSCF are:
     Max number of different atomic species (ntypx) = 10
     Max number of k-points (npk) =  40000
     Max angular momentum in pseudopotentials (lmaxx) =  4
     file Ga.pbe-dn-kjpaw_psl.1.0.0.UPF: wavefunction(s)  4S renormalized
     file N.pbe-n-kjpaw_psl.1.0.0.UPF: wavefunction(s)  2S renormalized

     **************************************************************************
     Initializing libbeef V0.1.2 with the BEEF-vdW functional.
     Citation: Wellendorff et al., PRB 85, 235149 (2012).
     **************************************************************************


     IMPORTANT: XC functional enforced from input :
     Exchange-correlation= BEEF-VDW
                           (   1   4  43  14   2   0   0)
     Any further DFT definition will be discarded
     Please, verify this is what you really want

 
     K-points division:     npool     =       2
     R & G space division:  proc/nbgrp/npool/nimage =      64
     Subspace diagonalization in iterative solution of the eigenvalue problem:
     a serial algorithm will be used

 
     Parallelization info
     --------------------
     sticks:   dense  smooth     PW     G-vecs:    dense   smooth      PW
     Min         226     181     47                26979    19303    2571
     Max         228     182     48                26983    19308    2576
     Sum       14527   11629   3037              1726709  1235535  164709
 
     Using Slab Decomposition
 


     bravais-lattice index     =            4
     lattice parameter (alat)  =      24.5252  a.u.
     unit-cell volume          =   15616.6055 (a.u.)^3
     number of atoms/cell      =          192
     number of atomic types    =            2
     number of electrons       =      1736.00
     number of Kohn-Sham states=         1042
     kinetic-energy cutoff     =      70.0000  Ry
     charge density cutoff     =     350.0000  Ry
     scf convergence threshold =      1.0E-09
     mixing beta               =       0.7000
     number of iterations used =            8  plain     mixing
     energy convergence thresh.=      1.0E-04
     force convergence thresh. =      1.0E-03
     Exchange-correlation= BEEF-VDW
                           (   1   4  43  14   2   0   0)
     nstep                     =           50


     celldm(1)=  24.525232  celldm(2)=   0.000000  celldm(3)=   1.222409
     celldm(4)=   0.000000  celldm(5)=   0.000000  celldm(6)=   0.000000

     crystal axes: (cart. coord. in units of alat)
               a(1) = (   1.000000   0.000000   0.000000 )  
               a(2) = (  -0.500000   0.866025   0.000000 )  
               a(3) = (   0.000000   0.000000   1.222409 )  

     reciprocal axes: (cart. coord. in units 2 pi/alat)
               b(1) = (  1.000000  0.577350 -0.000000 )  
               b(2) = (  0.000000  1.154701  0.000000 )  
               b(3) = (  0.000000 -0.000000  0.818057 )  


     PseudoPot. # 1 for Ga read from file:
     //group///packages/espresso/pseudo/psl_1.0.0/pslibrary.1.0.0/pbe/PSEUDOPOTENTIALS/Ga.pbe-dn-kjpaw_psl.1.0.0.UPF
     MD5 check sum: cd2a01e492f15b435d17032472d8505c
     Pseudo is Projector augmented-wave + core cor, Zval = 13.0
     Generated using 'atomic' code by A. Dal Corso  v.7.1
     Shape of augmentation charge: PSQ
     Using radial grid of 1205 points,  6 beta functions with: 
                l(1) =   0
                l(2) =   0
                l(3) =   1
                l(4) =   1
                l(5) =   2
                l(6) =   2
     Q(r) pseudized with 0 coefficients 


     PseudoPot. # 2 for N  read from file:
     //group///packages/espresso/pseudo/psl_1.0.0/pslibrary.1.0.0/pbe/PSEUDOPOTENTIALS/N.pbe-n-kjpaw_psl.1.0.0.UPF
     MD5 check sum: f77f775694dac7e2c3fe1c82443d1a16
     Pseudo is Projector augmented-wave + core cor, Zval =  5.0
     Generated using 'atomic' code by A. Dal Corso  v.7.1
     Shape of augmentation charge: PSQ
     Using radial grid of 1085 points,  4 beta functions with: 
                l(1) =   0
                l(2) =   0
                l(3) =   1
                l(4) =   1
     Q(r) pseudized with 0 coefficients 


     atomic species   valence    mass     pseudopotential
        Ga            13.00    69.72300     Ga( 1.00)
        N              5.00    14.00700     N ( 1.00)

      6 Sym. Ops. (no inversion) found ( 4 have fractional translation)


                                    s                        frac. trans.

      isym =  1     identity                                     

 cryst.   s( 1) = (     1          0          0      )
                  (     0          1          0      )
                  (     0          0          1      )

 cart.    s( 1) = (  1.0000000  0.0000000  0.0000000 )
                  (  0.0000000  1.0000000  0.0000000 )
                  (  0.0000000  0.0000000  1.0000000 )


      isym =  2     120 deg rotation - cryst. axis [0,0,1]       

 cryst.   s( 2) = (     0          1          0      )    f =( -0.2500000 )
                  (    -1         -1          0      )       (  0.0000002 )
                  (     0          0          1      )       (  0.0000000 )

 cart.    s( 2) = ( -0.5000000 -0.8660254  0.0000000 )    f =( -0.2500001 )
                  (  0.8660254 -0.5000000  0.0000000 )       (  0.0000002 )
                  (  0.0000000  0.0000000  1.0000000 )       (  0.0000000 )


      isym =  3     120 deg rotation - cryst. axis [0,0,-1]      

 cryst.   s( 3) = (    -1         -1          0      )    f =( -0.2500002 )
                  (     1          0          0      )       ( -0.2500000 )
                  (     0          0          1      )       (  0.0000000 )

 cart.    s( 3) = ( -0.5000000  0.8660254  0.0000000 )    f =( -0.1250002 )
                  ( -0.8660254 -0.5000000  0.0000000 )       ( -0.2165064 )
                  (  0.0000000  0.0000000  1.0000000 )       (  0.0000000 )


      isym =  4     inv. 180 deg rotation - cart. axis [1,0,0]   

 cryst.   s( 4) = (    -1          0          0      )    f =( -0.2500002 )
                  (     1          1          0      )       (  0.0000000 )
                  (     0          0          1      )       (  0.0000000 )

 cart.    s( 4) = ( -1.0000000  0.0000000  0.0000000 )    f =( -0.2500002 )
                  (  0.0000000  1.0000000  0.0000000 )       (  0.0000000 )
                  (  0.0000000  0.0000000  1.0000000 )       (  0.0000000 )


      isym =  5     inv. 180 deg rotation - cryst. axis [0,1,0]  

 cryst.   s( 5) = (     1          1          0      )
                  (     0         -1          0      )
                  (     0          0          1      )

 cart.    s( 5) = (  0.5000000  0.8660254  0.0000000 )
                  (  0.8660254 -0.5000000  0.0000000 )
                  (  0.0000000  0.0000000  1.0000000 )


      isym =  6     inv. 180 deg rotation - cryst. axis [1,1,0]  

 cryst.   s( 6) = (     0         -1          0      )    f =( -0.2500000 )
                  (    -1          0          0      )       ( -0.2500000 )
                  (     0          0          1      )       (  0.0000000 )

 cart.    s( 6) = (  0.5000000 -0.8660254  0.0000000 )    f =( -0.1250000 )
                  ( -0.8660254 -0.5000000  0.0000000 )       ( -0.2165064 )
                  (  0.0000000  0.0000000  1.0000000 )       (  0.0000000 )


     point group C_3v (3m)  
     there are  3 classes
     the character table:

       E     2C3   3s_v 
A_1    1.00  1.00  1.00
A_2    1.00  1.00 -1.00
E      2.00 -1.00  0.00

     the symmetry operations in each class and the name of the first element:

     E        1
          identity                                               
     2C3      2    3
          120 deg rotation - cryst. axis [0,0,1]                 
     3s_v     4    5    6
          inv. 180 deg rotation - cart. axis [1,0,0]             

   Cartesian axes

     site n.     atom                  positions (alat units)
         1           Ga  tau(   1) = (   0.1250001   0.0721687   0.2033935  )
         2           Ga  tau(   2) = (   0.1250001   0.0721687   0.6108633  )
         3           Ga  tau(   3) = (   0.1250001   0.0721687   1.0183331  )
         4           Ga  tau(   4) = (   0.0000001   0.2886751   0.2033935  )
         5           Ga  tau(   5) = (   0.0000001   0.2886751   0.6108633  )
         6           Ga  tau(   6) = (   0.0000001   0.2886751   1.0183331  )
         7           Ga  tau(   7) = (  -0.1249999   0.5051814   0.2033935  )
         8           Ga  tau(   8) = (  -0.1249999   0.5051814   0.6108633  )
         9           Ga  tau(   9) = (  -0.1249999   0.5051814   1.0183331  )
        10           Ga  tau(  10) = (  -0.2499999   0.7216878   0.2033935  )
        11           Ga  tau(  11) = (  -0.2499999   0.7216878   0.6108633  )
        12           Ga  tau(  12) = (  -0.2499999   0.7216878   1.0183331  )
        13           Ga  tau(  13) = (   0.3750001   0.0721687   0.2033935  )
        14           Ga  tau(  14) = (   0.3750001   0.0721687   0.6108633  )
        15           Ga  tau(  15) = (   0.3750001   0.0721687   1.0183331  )
        16           Ga  tau(  16) = (   0.2500001   0.2886751   0.2033935  )
        17           Ga  tau(  17) = (   0.2500001   0.2886751   0.6108633  )
        18           Ga  tau(  18) = (   0.2500001   0.2886751   1.0183331  )
        19           Ga  tau(  19) = (   0.1250001   0.5051814   0.2033935  )
        20           Ga  tau(  20) = (   0.1250001   0.5051814   0.6108633  )
        21           Ga  tau(  21) = (   0.1250001   0.5051814   1.0183331  )
        22           Ga  tau(  22) = (   0.0000001   0.7216878   0.2033935  )
        23           Ga  tau(  23) = (   0.0000001   0.7216878   0.6108633  )
        24           Ga  tau(  24) = (   0.0000001   0.7216878   1.0183331  )
        25           Ga  tau(  25) = (   0.6250001   0.0721687   0.2033935  )
        26           Ga  tau(  26) = (   0.6250001   0.0721687   0.6108633  )
        27           Ga  tau(  27) = (   0.6250001   0.0721687   1.0183331  )
        28           Ga  tau(  28) = (   0.5000001   0.2886751   0.2033935  )
        29           Ga  tau(  29) = (   0.5000001   0.2886751   0.6108633  )
        30           Ga  tau(  30) = (   0.5000001   0.2886751   1.0183331  )
        31           Ga  tau(  31) = (   0.3750001   0.5051814   0.2033935  )
        32           Ga  tau(  32) = (   0.3750001   0.5051814   0.6108633  )
        33           Ga  tau(  33) = (   0.3750001   0.5051814   1.0183331  )
        34           Ga  tau(  34) = (   0.2500001   0.7216878   0.2033935  )
        35           Ga  tau(  35) = (   0.2500001   0.7216878   0.6108633  )
        36           Ga  tau(  36) = (   0.2500001   0.7216878   1.0183331  )
        37           Ga  tau(  37) = (   0.8750001   0.0721687   0.2033935  )
        38           Ga  tau(  38) = (   0.8750001   0.0721687   0.6108633  )
        39           Ga  tau(  39) = (   0.8750001   0.0721687   1.0183331  )
        40           Ga  tau(  40) = (   0.7500001   0.2886751   0.2033935  )
        41           Ga  tau(  41) = (   0.7500001   0.2886751   0.6108633  )
        42           Ga  tau(  42) = (   0.7500001   0.2886751   1.0183331  )
        43           Ga  tau(  43) = (   0.6250001   0.5051814   0.2033935  )
        44           Ga  tau(  44) = (   0.6250001   0.5051814   0.6108633  )
        45           Ga  tau(  45) = (   0.6250001   0.5051814   1.0183331  )
        46           Ga  tau(  46) = (   0.5000001   0.7216878   0.2033935  )
        47           Ga  tau(  47) = (   0.5000001   0.7216878   0.6108633  )
        48           Ga  tau(  48) = (   0.5000001   0.7216878   1.0183331  )
        49           Ga  tau(  49) = (  -0.0000002   0.1443377   0.4071284  )
        50           Ga  tau(  50) = (  -0.0000002   0.1443377   0.8145982  )
        51           Ga  tau(  51) = (  -0.0000002   0.1443377   1.2220680  )
        52           Ga  tau(  52) = (  -0.1250002   0.3608440   0.4071284  )
        53           Ga  tau(  53) = (  -0.1250002   0.3608440   0.8145982  )
        54           Ga  tau(  54) = (  -0.1250002   0.3608440   1.2220680  )
        55           Ga  tau(  55) = (  -0.2500002   0.5773504   0.4071284  )
        56           Ga  tau(  56) = (  -0.2500002   0.5773504   0.8145982  )
        57           Ga  tau(  57) = (  -0.2500002   0.5773504   1.2220680  )
        58           Ga  tau(  58) = (  -0.3750001   0.7938567   0.4071284  )
        59           Ga  tau(  59) = (  -0.3750001   0.7938567   0.8145982  )
        60           Ga  tau(  60) = (  -0.3750001   0.7938567   1.2220680  )
        61           Ga  tau(  61) = (   0.2499998   0.1443377   0.4071284  )
        62           Ga  tau(  62) = (   0.2499998   0.1443377   0.8145982  )
        63           Ga  tau(  63) = (   0.2499998   0.1443377   1.2220680  )
        64           Ga  tau(  64) = (   0.1249998   0.3608440   0.4071284  )
        65           Ga  tau(  65) = (   0.1249998   0.3608440   0.8145982  )
        66           Ga  tau(  66) = (   0.1249998   0.3608440   1.2220680  )
        67           Ga  tau(  67) = (  -0.0000002   0.5773504   0.4071284  )
        68           Ga  tau(  68) = (  -0.0000002   0.5773504   0.8145982  )
        69           Ga  tau(  69) = (  -0.0000002   0.5773504   1.2220680  )
        70           Ga  tau(  70) = (  -0.1250002   0.7938567   0.4071284  )
        71           Ga  tau(  71) = (  -0.1250002   0.7938567   0.8145982  )
        72           Ga  tau(  72) = (  -0.1250002   0.7938567   1.2220680  )
        73           Ga  tau(  73) = (   0.4999998   0.1443377   0.4071284  )
        74           Ga  tau(  74) = (   0.4999998   0.1443377   0.8145982  )
        75           Ga  tau(  75) = (   0.4999998   0.1443377   1.2220680  )
        76           Ga  tau(  76) = (   0.3749998   0.3608440   0.4071284  )
        77           Ga  tau(  77) = (   0.3749998   0.3608440   0.8145982  )
        78           Ga  tau(  78) = (   0.3749998   0.3608440   1.2220680  )
        79           Ga  tau(  79) = (   0.2499998   0.5773504   0.4071284  )
        80           Ga  tau(  80) = (   0.2499998   0.5773504   0.8145982  )
        81           Ga  tau(  81) = (   0.2499998   0.5773504   1.2220680  )
        82           Ga  tau(  82) = (   0.1249998   0.7938567   0.4071284  )
        83           Ga  tau(  83) = (   0.1249998   0.7938567   0.8145982  )
        84           Ga  tau(  84) = (   0.1249998   0.7938567   1.2220680  )
        85           Ga  tau(  85) = (   0.7499998   0.1443377   0.4071284  )
        86           Ga  tau(  86) = (   0.7499998   0.1443377   0.8145982  )
        87           Ga  tau(  87) = (   0.7499998   0.1443377   1.2220680  )
        88           Ga  tau(  88) = (   0.6249998   0.3608440   0.4071284  )
        89           Ga  tau(  89) = (   0.6249998   0.3608440   0.8145982  )
        90           Ga  tau(  90) = (   0.6249998   0.3608440   1.2220680  )
        91           Ga  tau(  91) = (   0.4999998   0.5773504   0.4071284  )
        92           Ga  tau(  92) = (   0.4999998   0.5773504   0.8145982  )
        93           Ga  tau(  93) = (   0.4999998   0.5773504   1.2220680  )
        94           Ga  tau(  94) = (   0.3749998   0.7938567   0.4071284  )
        95           Ga  tau(  95) = (   0.3749998   0.7938567   0.8145982  )
        96           Ga  tau(  96) = (   0.3749998   0.7938567   1.2220680  )
        97           N   tau(  97) = (   0.1250001   0.0721687   0.7643472  )
        98           N   tau(  98) = (   0.1250001   0.0721687   1.1718169  )
        99           N   tau(  99) = (   0.0000001   0.2886751   0.3568774  )
       100           N   tau( 100) = (   0.0000001   0.2886751   0.7643472  )
       101           N   tau( 101) = (   0.0000001   0.2886751   1.1718169  )
       102           N   tau( 102) = (  -0.1249999   0.5051814   0.3568774  )
       103           N   tau( 103) = (  -0.1249999   0.5051814   0.7643472  )
       104           N   tau( 104) = (  -0.1249999   0.5051814   1.1718169  )
       105           N   tau( 105) = (  -0.2499999   0.7216878   0.3568774  )
       106           N   tau( 106) = (  -0.2499999   0.7216878   0.7643472  )
       107           N   tau( 107) = (  -0.2499999   0.7216878   1.1718169  )
       108           N   tau( 108) = (   0.3750001   0.0721687   0.3568774  )
       109           N   tau( 109) = (   0.3750001   0.0721687   0.7643472  )
       110           N   tau( 110) = (   0.3750001   0.0721687   1.1718169  )
       111           N   tau( 111) = (   0.2500001   0.2886751   0.3568774  )
       112           N   tau( 112) = (   0.2500001   0.2886751   0.7643472  )
       113           N   tau( 113) = (   0.2500001   0.2886751   1.1718169  )
       114           N   tau( 114) = (   0.1250001   0.5051814   0.3568774  )
       115           N   tau( 115) = (   0.1250001   0.5051814   0.7643472  )
       116           N   tau( 116) = (   0.1250001   0.5051814   1.1718169  )
       117           N   tau( 117) = (   0.0000001   0.7216878   0.3568774  )
       118           N   tau( 118) = (   0.0000001   0.7216878   0.7643472  )
       119           N   tau( 119) = (   0.0000001   0.7216878   1.1718169  )
       120           N   tau( 120) = (   0.6250001   0.0721687   0.3568774  )
       121           N   tau( 121) = (   0.6250001   0.0721687   0.7643472  )
       122           N   tau( 122) = (   0.6250001   0.0721687   1.1718169  )
       123           N   tau( 123) = (   0.5000001   0.2886751   0.3568774  )
       124           N   tau( 124) = (   0.5000001   0.2886751   0.7643472  )
       125           N   tau( 125) = (   0.5000001   0.2886751   1.1718169  )
       126           N   tau( 126) = (   0.3750001   0.5051814   0.3568774  )
       127           N   tau( 127) = (   0.3750001   0.5051814   0.7643472  )
       128           N   tau( 128) = (   0.3750001   0.5051814   1.1718169  )
       129           N   tau( 129) = (   0.2500001   0.7216878   0.3568774  )
       130           N   tau( 130) = (   0.2500001   0.7216878   0.7643472  )
       131           N   tau( 131) = (   0.2500001   0.7216878   1.1718169  )
       132           N   tau( 132) = (   0.8750001   0.0721687   0.3568774  )
       133           N   tau( 133) = (   0.8750001   0.0721687   0.7643472  )
       134           N   tau( 134) = (   0.8750001   0.0721687   1.1718169  )
       135           N   tau( 135) = (   0.7500001   0.2886751   0.3568774  )
       136           N   tau( 136) = (   0.7500001   0.2886751   0.7643472  )
       137           N   tau( 137) = (   0.7500001   0.2886751   1.1718169  )
       138           N   tau( 138) = (   0.6250001   0.5051814   0.3568774  )
       139           N   tau( 139) = (   0.6250001   0.5051814   0.7643472  )
       140           N   tau( 140) = (   0.6250001   0.5051814   1.1718169  )
       141           N   tau( 141) = (   0.5000001   0.7216878   0.3568774  )
       142           N   tau( 142) = (   0.5000001   0.7216878   0.7643472  )
       143           N   tau( 143) = (   0.5000001   0.7216878   1.1718169  )
       144           N   tau( 144) = (  -0.0000002   0.1443377   0.1531425  )
       145           N   tau( 145) = (  -0.0000002   0.1443377   0.5606123  )
       146           N   tau( 146) = (  -0.0000002   0.1443377   0.9680820  )
       147           N   tau( 147) = (  -0.1250002   0.3608440   0.1531425  )
       148           N   tau( 148) = (  -0.1250002   0.3608440   0.5606123  )
       149           N   tau( 149) = (  -0.1250002   0.3608440   0.9680820  )
       150           N   tau( 150) = (  -0.2500002   0.5773504   0.1531425  )
       151           N   tau( 151) = (  -0.2500002   0.5773504   0.5606123  )
       152           N   tau( 152) = (  -0.2500002   0.5773504   0.9680820  )
       153           N   tau( 153) = (  -0.3750001   0.7938567   0.1531425  )
       154           N   tau( 154) = (  -0.3750001   0.7938567   0.5606123  )
       155           N   tau( 155) = (  -0.3750001   0.7938567   0.9680820  )
       156           N   tau( 156) = (   0.2499998   0.1443377   0.1531425  )
       157           N   tau( 157) = (   0.2499998   0.1443377   0.5606123  )
       158           N   tau( 158) = (   0.2499998   0.1443377   0.9680820  )
       159           N   tau( 159) = (   0.1249998   0.3608440   0.1531425  )
       160           N   tau( 160) = (   0.1249998   0.3608440   0.5606123  )
       161           N   tau( 161) = (   0.1249998   0.3608440   0.9680820  )
       162           N   tau( 162) = (  -0.0000002   0.5773504   0.1531425  )
       163           N   tau( 163) = (  -0.0000002   0.5773504   0.5606123  )
       164           N   tau( 164) = (  -0.0000002   0.5773504   0.9680820  )
       165           N   tau( 165) = (  -0.1250002   0.7938567   0.1531425  )
       166           N   tau( 166) = (  -0.1250002   0.7938567   0.5606123  )
       167           N   tau( 167) = (  -0.1250002   0.7938567   0.9680820  )
       168           N   tau( 168) = (   0.4999998   0.1443377   0.1531425  )
       169           N   tau( 169) = (   0.4999998   0.1443377   0.5606123  )
       170           N   tau( 170) = (   0.4999998   0.1443377   0.9680820  )
       171           N   tau( 171) = (   0.3749998   0.3608440   0.1531425  )
       172           N   tau( 172) = (   0.3749998   0.3608440   0.5606123  )
       173           N   tau( 173) = (   0.3749998   0.3608440   0.9680820  )
       174           N   tau( 174) = (   0.2499998   0.5773504   0.1531425  )
       175           N   tau( 175) = (   0.2499998   0.5773504   0.5606123  )
       176           N   tau( 176) = (   0.2499998   0.5773504   0.9680820  )
       177           N   tau( 177) = (   0.1249998   0.7938567   0.1531425  )
       178           N   tau( 178) = (   0.1249998   0.7938567   0.5606123  )
       179           N   tau( 179) = (   0.1249998   0.7938567   0.9680820  )
       180           N   tau( 180) = (   0.7499998   0.1443377   0.1531425  )
       181           N   tau( 181) = (   0.7499998   0.1443377   0.5606123  )
       182           N   tau( 182) = (   0.7499998   0.1443377   0.9680820  )
       183           N   tau( 183) = (   0.6249998   0.3608440   0.1531425  )
       184           N   tau( 184) = (   0.6249998   0.3608440   0.5606123  )
       185           N   tau( 185) = (   0.6249998   0.3608440   0.9680820  )
       186           N   tau( 186) = (   0.4999998   0.5773504   0.1531425  )
       187           N   tau( 187) = (   0.4999998   0.5773504   0.5606123  )
       188           N   tau( 188) = (   0.4999998   0.5773504   0.9680820  )
       189           N   tau( 189) = (   0.3749998   0.7938567   0.1531425  )
       190           N   tau( 190) = (   0.3749998   0.7938567   0.5606123  )
       191           N   tau( 191) = (   0.3749998   0.7938567   0.9680820  )
       192           Ga  tau( 192) = (   0.1250001   0.0721687   0.3568774  )

   Crystallographic axes

     site n.     atom                  positions (cryst. coord.)
         1           Ga  tau(   1) = (  0.1666667  0.0833333  0.1663874  )
         2           Ga  tau(   2) = (  0.1666667  0.0833333  0.4997208  )
         3           Ga  tau(   3) = (  0.1666667  0.0833333  0.8330541  )
         4           Ga  tau(   4) = (  0.1666667  0.3333333  0.1663874  )
         5           Ga  tau(   5) = (  0.1666667  0.3333333  0.4997208  )
         6           Ga  tau(   6) = (  0.1666667  0.3333333  0.8330541  )
         7           Ga  tau(   7) = (  0.1666667  0.5833333  0.1663874  )
         8           Ga  tau(   8) = (  0.1666667  0.5833333  0.4997208  )
         9           Ga  tau(   9) = (  0.1666667  0.5833333  0.8330541  )
        10           Ga  tau(  10) = (  0.1666667  0.8333333  0.1663874  )
        11           Ga  tau(  11) = (  0.1666667  0.8333333  0.4997208  )
        12           Ga  tau(  12) = (  0.1666667  0.8333333  0.8330541  )
        13           Ga  tau(  13) = (  0.4166667  0.0833333  0.1663874  )
        14           Ga  tau(  14) = (  0.4166667  0.0833333  0.4997208  )
        15           Ga  tau(  15) = (  0.4166667  0.0833333  0.8330541  )
        16           Ga  tau(  16) = (  0.4166667  0.3333333  0.1663874  )
        17           Ga  tau(  17) = (  0.4166667  0.3333333  0.4997208  )
        18           Ga  tau(  18) = (  0.4166667  0.3333333  0.8330541  )
        19           Ga  tau(  19) = (  0.4166667  0.5833333  0.1663874  )
        20           Ga  tau(  20) = (  0.4166667  0.5833333  0.4997208  )
        21           Ga  tau(  21) = (  0.4166667  0.5833333  0.8330541  )
        22           Ga  tau(  22) = (  0.4166667  0.8333333  0.1663874  )
        23           Ga  tau(  23) = (  0.4166667  0.8333333  0.4997208  )
        24           Ga  tau(  24) = (  0.4166667  0.8333333  0.8330541  )
        25           Ga  tau(  25) = (  0.6666667  0.0833333  0.1663874  )
        26           Ga  tau(  26) = (  0.6666667  0.0833333  0.4997208  )
        27           Ga  tau(  27) = (  0.6666667  0.0833333  0.8330541  )
        28           Ga  tau(  28) = (  0.6666667  0.3333333  0.1663874  )
        29           Ga  tau(  29) = (  0.6666667  0.3333333  0.4997208  )
        30           Ga  tau(  30) = (  0.6666667  0.3333333  0.8330541  )
        31           Ga  tau(  31) = (  0.6666667  0.5833333  0.1663874  )
        32           Ga  tau(  32) = (  0.6666667  0.5833333  0.4997208  )
        33           Ga  tau(  33) = (  0.6666667  0.5833333  0.8330541  )
        34           Ga  tau(  34) = (  0.6666667  0.8333333  0.1663874  )
        35           Ga  tau(  35) = (  0.6666667  0.8333333  0.4997208  )
        36           Ga  tau(  36) = (  0.6666667  0.8333333  0.8330541  )
        37           Ga  tau(  37) = (  0.9166667  0.0833333  0.1663874  )
        38           Ga  tau(  38) = (  0.9166667  0.0833333  0.4997208  )
        39           Ga  tau(  39) = (  0.9166667  0.0833333  0.8330541  )
        40           Ga  tau(  40) = (  0.9166667  0.3333333  0.1663874  )
        41           Ga  tau(  41) = (  0.9166667  0.3333333  0.4997208  )
        42           Ga  tau(  42) = (  0.9166667  0.3333333  0.8330541  )
        43           Ga  tau(  43) = (  0.9166667  0.5833333  0.1663874  )
        44           Ga  tau(  44) = (  0.9166667  0.5833333  0.4997208  )
        45           Ga  tau(  45) = (  0.9166667  0.5833333  0.8330541  )
        46           Ga  tau(  46) = (  0.9166667  0.8333333  0.1663874  )
        47           Ga  tau(  47) = (  0.9166667  0.8333333  0.4997208  )
        48           Ga  tau(  48) = (  0.9166667  0.8333333  0.8330541  )
        49           Ga  tau(  49) = (  0.0833333  0.1666668  0.3330541  )
        50           Ga  tau(  50) = (  0.0833333  0.1666668  0.6663874  )
        51           Ga  tau(  51) = (  0.0833333  0.1666668  0.9997208  )
        52           Ga  tau(  52) = (  0.0833333  0.4166668  0.3330541  )
        53           Ga  tau(  53) = (  0.0833333  0.4166668  0.6663874  )
        54           Ga  tau(  54) = (  0.0833333  0.4166668  0.9997208  )
        55           Ga  tau(  55) = (  0.0833333  0.6666668  0.3330541  )
        56           Ga  tau(  56) = (  0.0833333  0.6666668  0.6663874  )
        57           Ga  tau(  57) = (  0.0833333  0.6666668  0.9997208  )
        58           Ga  tau(  58) = (  0.0833333  0.9166668  0.3330541  )
        59           Ga  tau(  59) = (  0.0833333  0.9166668  0.6663874  )
        60           Ga  tau(  60) = (  0.0833333  0.9166668  0.9997208  )
        61           Ga  tau(  61) = (  0.3333332  0.1666668  0.3330541  )
        62           Ga  tau(  62) = (  0.3333332  0.1666668  0.6663874  )
        63           Ga  tau(  63) = (  0.3333332  0.1666668  0.9997208  )
        64           Ga  tau(  64) = (  0.3333332  0.4166668  0.3330541  )
        65           Ga  tau(  65) = (  0.3333332  0.4166668  0.6663874  )
        66           Ga  tau(  66) = (  0.3333332  0.4166668  0.9997208  )
        67           Ga  tau(  67) = (  0.3333332  0.6666668  0.3330541  )
        68           Ga  tau(  68) = (  0.3333332  0.6666668  0.6663874  )
        69           Ga  tau(  69) = (  0.3333332  0.6666668  0.9997208  )
        70           Ga  tau(  70) = (  0.3333332  0.9166668  0.3330541  )
        71           Ga  tau(  71) = (  0.3333332  0.9166668  0.6663874  )
        72           Ga  tau(  72) = (  0.3333332  0.9166668  0.9997208  )
        73           Ga  tau(  73) = (  0.5833332  0.1666668  0.3330541  )
        74           Ga  tau(  74) = (  0.5833332  0.1666668  0.6663874  )
        75           Ga  tau(  75) = (  0.5833332  0.1666668  0.9997208  )
        76           Ga  tau(  76) = (  0.5833332  0.4166668  0.3330541  )
        77           Ga  tau(  77) = (  0.5833332  0.4166668  0.6663874  )
        78           Ga  tau(  78) = (  0.5833332  0.4166668  0.9997208  )
        79           Ga  tau(  79) = (  0.5833332  0.6666668  0.3330541  )
        80           Ga  tau(  80) = (  0.5833332  0.6666668  0.6663874  )
        81           Ga  tau(  81) = (  0.5833332  0.6666668  0.9997208  )
        82           Ga  tau(  82) = (  0.5833332  0.9166668  0.3330541  )
        83           Ga  tau(  83) = (  0.5833332  0.9166668  0.6663874  )
        84           Ga  tau(  84) = (  0.5833332  0.9166668  0.9997208  )
        85           Ga  tau(  85) = (  0.8333332  0.1666668  0.3330541  )
        86           Ga  tau(  86) = (  0.8333332  0.1666668  0.6663874  )
        87           Ga  tau(  87) = (  0.8333332  0.1666668  0.9997208  )
        88           Ga  tau(  88) = (  0.8333332  0.4166668  0.3330541  )
        89           Ga  tau(  89) = (  0.8333332  0.4166668  0.6663874  )
        90           Ga  tau(  90) = (  0.8333332  0.4166668  0.9997208  )
        91           Ga  tau(  91) = (  0.8333332  0.6666668  0.3330541  )
        92           Ga  tau(  92) = (  0.8333332  0.6666668  0.6663874  )
        93           Ga  tau(  93) = (  0.8333332  0.6666668  0.9997208  )
        94           Ga  tau(  94) = (  0.8333332  0.9166668  0.3330541  )
        95           Ga  tau(  95) = (  0.8333332  0.9166668  0.6663874  )
        96           Ga  tau(  96) = (  0.8333332  0.9166668  0.9997208  )
        97           N   tau(  97) = (  0.1666667  0.0833333  0.6252792  )
        98           N   tau(  98) = (  0.1666667  0.0833333  0.9586126  )
        99           N   tau(  99) = (  0.1666667  0.3333333  0.2919459  )
       100           N   tau( 100) = (  0.1666667  0.3333333  0.6252792  )
       101           N   tau( 101) = (  0.1666667  0.3333333  0.9586126  )
       102           N   tau( 102) = (  0.1666667  0.5833333  0.2919459  )
       103           N   tau( 103) = (  0.1666667  0.5833333  0.6252792  )
       104           N   tau( 104) = (  0.1666667  0.5833333  0.9586126  )
       105           N   tau( 105) = (  0.1666667  0.8333333  0.2919459  )
       106           N   tau( 106) = (  0.1666667  0.8333333  0.6252792  )
       107           N   tau( 107) = (  0.1666667  0.8333333  0.9586126  )
       108           N   tau( 108) = (  0.4166667  0.0833333  0.2919459  )
       109           N   tau( 109) = (  0.4166667  0.0833333  0.6252792  )
       110           N   tau( 110) = (  0.4166667  0.0833333  0.9586126  )
       111           N   tau( 111) = (  0.4166667  0.3333333  0.2919459  )
       112           N   tau( 112) = (  0.4166667  0.3333333  0.6252792  )
       113           N   tau( 113) = (  0.4166667  0.3333333  0.9586126  )
       114           N   tau( 114) = (  0.4166667  0.5833333  0.2919459  )
       115           N   tau( 115) = (  0.4166667  0.5833333  0.6252792  )
       116           N   tau( 116) = (  0.4166667  0.5833333  0.9586126  )
       117           N   tau( 117) = (  0.4166667  0.8333333  0.2919459  )
       118           N   tau( 118) = (  0.4166667  0.8333333  0.6252792  )
       119           N   tau( 119) = (  0.4166667  0.8333333  0.9586126  )
       120           N   tau( 120) = (  0.6666667  0.0833333  0.2919459  )
       121           N   tau( 121) = (  0.6666667  0.0833333  0.6252792  )
       122           N   tau( 122) = (  0.6666667  0.0833333  0.9586126  )
       123           N   tau( 123) = (  0.6666667  0.3333333  0.2919459  )
       124           N   tau( 124) = (  0.6666667  0.3333333  0.6252792  )
       125           N   tau( 125) = (  0.6666667  0.3333333  0.9586126  )
       126           N   tau( 126) = (  0.6666667  0.5833333  0.2919459  )
       127           N   tau( 127) = (  0.6666667  0.5833333  0.6252792  )
       128           N   tau( 128) = (  0.6666667  0.5833333  0.9586126  )
       129           N   tau( 129) = (  0.6666667  0.8333333  0.2919459  )
       130           N   tau( 130) = (  0.6666667  0.8333333  0.6252792  )
       131           N   tau( 131) = (  0.6666667  0.8333333  0.9586126  )
       132           N   tau( 132) = (  0.9166667  0.0833333  0.2919459  )
       133           N   tau( 133) = (  0.9166667  0.0833333  0.6252792  )
       134           N   tau( 134) = (  0.9166667  0.0833333  0.9586126  )
       135           N   tau( 135) = (  0.9166667  0.3333333  0.2919459  )
       136           N   tau( 136) = (  0.9166667  0.3333333  0.6252792  )
       137           N   tau( 137) = (  0.9166667  0.3333333  0.9586126  )
       138           N   tau( 138) = (  0.9166667  0.5833333  0.2919459  )
       139           N   tau( 139) = (  0.9166667  0.5833333  0.6252792  )
       140           N   tau( 140) = (  0.9166667  0.5833333  0.9586126  )
       141           N   tau( 141) = (  0.9166667  0.8333333  0.2919459  )
       142           N   tau( 142) = (  0.9166667  0.8333333  0.6252792  )
       143           N   tau( 143) = (  0.9166667  0.8333333  0.9586126  )
       144           N   tau( 144) = (  0.0833333  0.1666668  0.1252792  )
       145           N   tau( 145) = (  0.0833333  0.1666668  0.4586126  )
       146           N   tau( 146) = (  0.0833333  0.1666668  0.7919459  )
       147           N   tau( 147) = (  0.0833333  0.4166668  0.1252792  )
       148           N   tau( 148) = (  0.0833333  0.4166668  0.4586126  )
       149           N   tau( 149) = (  0.0833333  0.4166668  0.7919459  )
       150           N   tau( 150) = (  0.0833333  0.6666668  0.1252792  )
       151           N   tau( 151) = (  0.0833333  0.6666668  0.4586126  )
       152           N   tau( 152) = (  0.0833333  0.6666668  0.7919459  )
       153           N   tau( 153) = (  0.0833333  0.9166668  0.1252792  )
       154           N   tau( 154) = (  0.0833333  0.9166668  0.4586126  )
       155           N   tau( 155) = (  0.0833333  0.9166668  0.7919459  )
       156           N   tau( 156) = (  0.3333332  0.1666668  0.1252792  )
       157           N   tau( 157) = (  0.3333332  0.1666668  0.4586126  )
       158           N   tau( 158) = (  0.3333332  0.1666668  0.7919459  )
       159           N   tau( 159) = (  0.3333332  0.4166668  0.1252792  )
       160           N   tau( 160) = (  0.3333332  0.4166668  0.4586126  )
       161           N   tau( 161) = (  0.3333332  0.4166668  0.7919459  )
       162           N   tau( 162) = (  0.3333332  0.6666668  0.1252792  )
       163           N   tau( 163) = (  0.3333332  0.6666668  0.4586126  )
       164           N   tau( 164) = (  0.3333332  0.6666668  0.7919459  )
       165           N   tau( 165) = (  0.3333332  0.9166668  0.1252792  )
       166           N   tau( 166) = (  0.3333332  0.9166668  0.4586126  )
       167           N   tau( 167) = (  0.3333332  0.9166668  0.7919459  )
       168           N   tau( 168) = (  0.5833332  0.1666668  0.1252792  )
       169           N   tau( 169) = (  0.5833332  0.1666668  0.4586126  )
       170           N   tau( 170) = (  0.5833332  0.1666668  0.7919459  )
       171           N   tau( 171) = (  0.5833332  0.4166668  0.1252792  )
       172           N   tau( 172) = (  0.5833332  0.4166668  0.4586126  )
       173           N   tau( 173) = (  0.5833332  0.4166668  0.7919459  )
       174           N   tau( 174) = (  0.5833332  0.6666668  0.1252792  )
       175           N   tau( 175) = (  0.5833332  0.6666668  0.4586126  )
       176           N   tau( 176) = (  0.5833332  0.6666668  0.7919459  )
       177           N   tau( 177) = (  0.5833332  0.9166668  0.1252792  )
       178           N   tau( 178) = (  0.5833332  0.9166668  0.4586126  )
       179           N   tau( 179) = (  0.5833332  0.9166668  0.7919459  )
       180           N   tau( 180) = (  0.8333332  0.1666668  0.1252792  )
       181           N   tau( 181) = (  0.8333332  0.1666668  0.4586126  )
       182           N   tau( 182) = (  0.8333332  0.1666668  0.7919459  )
       183           N   tau( 183) = (  0.8333332  0.4166668  0.1252792  )
       184           N   tau( 184) = (  0.8333332  0.4166668  0.4586126  )
       185           N   tau( 185) = (  0.8333332  0.4166668  0.7919459  )
       186           N   tau( 186) = (  0.8333332  0.6666668  0.1252792  )
       187           N   tau( 187) = (  0.8333332  0.6666668  0.4586126  )
       188           N   tau( 188) = (  0.8333332  0.6666668  0.7919459  )
       189           N   tau( 189) = (  0.8333332  0.9166668  0.1252792  )
       190           N   tau( 190) = (  0.8333332  0.9166668  0.4586126  )
       191           N   tau( 191) = (  0.8333332  0.9166668  0.7919459  )
       192           Ga  tau( 192) = (  0.1666667  0.0833333  0.2919459  )

     number of k points=     4  Gaussian smearing, width (Ry)=  0.0100
                       cart. coord. in units 2pi/alat
        k(    1) = (   0.0000000   0.0000000   0.0000000), wk =   0.2500000
        k(    2) = (   0.0000000   0.0000000  -0.4090283), wk =   0.2500000
        k(    3) = (   0.0000000  -0.5773503   0.0000000), wk =   0.7500000
        k(    4) = (   0.0000000  -0.5773503  -0.4090283), wk =   0.7500000

                       cryst. coord.
        k(    1) = (   0.0000000   0.0000000   0.0000000), wk =   0.2500000
        k(    2) = (   0.0000000   0.0000000  -0.5000000), wk =   0.2500000
        k(    3) = (   0.0000000  -0.5000000   0.0000000), wk =   0.7500000
        k(    4) = (   0.0000000  -0.5000000  -0.5000000), wk =   0.7500000

     Dense  grid:  1726709 G-vectors     FFT dimensions: ( 160, 160, 180)

     Smooth grid:  1235535 G-vectors     FFT dimensions: ( 144, 144, 160)

     Dynamical RAM for                 wfc:      38.37 MB

     Dynamical RAM for     wfc (w. buffer):     115.10 MB

     Dynamical RAM for           str. fact:       0.82 MB

     Dynamical RAM for           local pot:       0.00 MB

     Dynamical RAM for          nlocal pot:      92.27 MB

     Dynamical RAM for                qrad:       3.00 MB

     Dynamical RAM for          rho,v,vnew:       2.99 MB

     Dynamical RAM for               rhoin:       1.00 MB

     Dynamical RAM for            rho*nmix:       6.59 MB

     Dynamical RAM for           G-vectors:       1.69 MB

     Dynamical RAM for          h,s,v(r/c):     795.24 MB

     Dynamical RAM for          <psi|beta>:      39.84 MB

     Dynamical RAM for                 psi:     153.46 MB

     Dynamical RAM for                hpsi:     153.46 MB

     Dynamical RAM for                spsi:     153.46 MB

     Dynamical RAM for      wfcinit/wfcrot:     128.21 MB

     Dynamical RAM for           addusdens:      58.46 MB

     Dynamical RAM for          addusforce:      98.36 MB

     Dynamical RAM for         addusstress:      41.48 MB

     Estimated static dynamical RAM per process >     221.04 MB

     Estimated max dynamical RAM per process >       1.49 GB

     Estimated total dynamical RAM >     189.98 GB

     Check: negative core charge=   -0.000003

     Initial potential from superposition of free atoms

     starting charge    1735.7128, renormalised to    1736.0000


     %%%%%%%%%%%%%%%%%%%%%%%%%%%%%%%%%%%%%%%%%%%%%%%%%%%%%%%%%%%%%%%%%%%%%%%%
     %                                                                      %
     % You are using vdW-DF, which was implemented by the Thonhauser group. %
     % Please cite the following two papers that made this development      %
     % possible and the two reviews that describe the various versions:     %
     %                                                                      %
     %   T. Thonhauser et al., PRL 115, 136402 (2015).                      %
     %   T. Thonhauser et al., PRB 76, 125112 (2007).                       %
     %   K. Berland et al., Rep. Prog. Phys. 78, 066501 (2015).             %
     %   D.C. Langreth et al., J. Phys.: Condens. Matter 21, 084203 (2009). %
     %                                                                      %
     % If you are calculating stress with vdW-DF, please also cite:         %
     %                                                                      %
     %   R. Sabatini et al., J. Phys.: Condens. Matter 24, 424209 (2012).   %
     %                                                                      %
     %%%%%%%%%%%%%%%%%%%%%%%%%%%%%%%%%%%%%%%%%%%%%%%%%%%%%%%%%%%%%%%%%%%%%%%%

     %%%%%%%%%%%%%%%%%%%%%%%%%%%%%%%%%%%%%%%%%%%%%%%%%%%%%%%%%%%%%%%%%%%%%%%%
     %                                                                      %
     %  vdW-DF NEWS:                                                        %
     %                                                                      %
     %  * vdW-DF3 is now available. DOI: 10.1021/acs.jctc.0c00471           %
     %    use with input_dft = 'vdW-DF3-opt1' or 'vdW-DF3-opt2'             %
     %                                                                      %
     %  * Unscreened and range-separated vdW-DF hybrid functionals          %
     %    DOI: 10.1063/1.4986522 and 10.1088/1361-648X/ac2ad2               %
     %    use with input_dft = 'vdW-DF-cx0' (etc) and 'vdW-DF-ahcx'         %
     %                                                                      %
     %%%%%%%%%%%%%%%%%%%%%%%%%%%%%%%%%%%%%%%%%%%%%%%%%%%%%%%%%%%%%%%%%%%%%%%%


     Carrying out vdW-DF run using the following parameters:
     Nqs    =  20  Npoints =  1024  r_max =  100.000
     q_mesh =  0.00001000  0.04494208  0.09755937  0.15916263
               0.23128650  0.31572767  0.41458969  0.53033537
               0.66584808  0.82450364  1.01025438  1.22772762
               1.48234092  1.78043706  2.12944203  2.53805004
               3.01644009  3.57652955  4.23227104  5.00000000


     -----------------------------------------------
     Non-local corr. energy    =      50.04392822 Ry
     -----------------------------------------------

     Starting wfcs are 1253 randomized atomic wfcs
     Checking if some PAW data can be deallocated... 
       PAW data deallocated on   79 nodes for type:  1
       PAW data deallocated on   49 nodes for type:  2

     total cpu time spent up to now is       45.9 secs

     Self-consistent Calculation

     iteration #  1     ecut=    70.00 Ry     beta= 0.70
     Davidson diagonalization with overlap

---- Real-time Memory Report at c_bands before calling an iterative solver
           610 MiB given to the printing process from OS
             0 MiB allocation reported by mallinfo(arena+hblkhd)
       1748646 MiB available memory on the node where the printing process lives
------------------
     ethr =  1.00E-02,  avg # of iterations =  4.5


     -----------------------------------------------
     Non-local corr. energy    =      52.19734600 Ry
     -----------------------------------------------


     total cpu time spent up to now is      200.0 secs

     total energy              =  -30195.41811036 Ry
     estimated scf accuracy    <      61.58103029 Ry

     iteration #  2     ecut=    70.00 Ry     beta= 0.70
     Davidson diagonalization with overlap

---- Real-time Memory Report at c_bands before calling an iterative solver
          1112 MiB given to the printing process from OS
             0 MiB allocation reported by mallinfo(arena+hblkhd)
       1749427 MiB available memory on the node where the printing process lives
------------------
     ethr =  3.55E-03,  avg # of iterations =  6.5


     -----------------------------------------------
     Non-local corr. energy    =      51.83688923 Ry
     -----------------------------------------------


     total cpu time spent up to now is      595.5 secs

     total energy              =  -30218.54724776 Ry
     estimated scf accuracy    <      82.64475877 Ry

     iteration #  3     ecut=    70.00 Ry     beta= 0.70
     Davidson diagonalization with overlap

---- Real-time Memory Report at c_bands before calling an iterative solver
          1449 MiB given to the printing process from OS
             0 MiB allocation reported by mallinfo(arena+hblkhd)
       1740212 MiB available memory on the node where the printing process lives
------------------
     ethr =  3.55E-03,  avg # of iterations =  5.5


     -----------------------------------------------
     Non-local corr. energy    =      52.01194902 Ry
     -----------------------------------------------


     total cpu time spent up to now is      825.7 secs

     total energy              =  -30231.98702225 Ry
     estimated scf accuracy    <       6.26331635 Ry

     iteration #  4     ecut=    70.00 Ry     beta= 0.70
     Davidson diagonalization with overlap

---- Real-time Memory Report at c_bands before calling an iterative solver
          1449 MiB given to the printing process from OS
             0 MiB allocation reported by mallinfo(arena+hblkhd)
       1740045 MiB available memory on the node where the printing process lives
------------------
     ethr =  3.61E-04,  avg # of iterations =  9.5


     -----------------------------------------------
     Non-local corr. energy    =      52.77298361 Ry
     -----------------------------------------------


     total cpu time spent up to now is     1213.6 secs

     total energy              =  -30233.27037321 Ry
     estimated scf accuracy    <       0.72224384 Ry

     iteration #  5     ecut=    70.00 Ry     beta= 0.70
     Davidson diagonalization with overlap

---- Real-time Memory Report at c_bands before calling an iterative solver
          1449 MiB given to the printing process from OS
             0 MiB allocation reported by mallinfo(arena+hblkhd)
       1739890 MiB available memory on the node where the printing process lives
------------------
     ethr =  4.16E-05,  avg # of iterations = 11.3


     -----------------------------------------------
     Non-local corr. energy    =      52.91766804 Ry
     -----------------------------------------------


     total cpu time spent up to now is     1862.3 secs

     total energy              =  -30233.34777992 Ry
     estimated scf accuracy    <       0.64335356 Ry

     iteration #  6     ecut=    70.00 Ry     beta= 0.70
     Davidson diagonalization with overlap

---- Real-time Memory Report at c_bands before calling an iterative solver
          1449 MiB given to the printing process from OS
             0 MiB allocation reported by mallinfo(arena+hblkhd)
       1739616 MiB available memory on the node where the printing process lives
------------------
     ethr =  3.71E-05,  avg # of iterations = 11.5


     -----------------------------------------------
     Non-local corr. energy    =      52.79658433 Ry
     -----------------------------------------------


     total cpu time spent up to now is     2359.7 secs

     total energy              =  -30233.46574250 Ry
     estimated scf accuracy    <       0.21658265 Ry

     iteration #  7     ecut=    70.00 Ry     beta= 0.70
     Davidson diagonalization with overlap

---- Real-time Memory Report at c_bands before calling an iterative solver
          1449 MiB given to the printing process from OS
             0 MiB allocation reported by mallinfo(arena+hblkhd)
       1739572 MiB available memory on the node where the printing process lives
------------------
     ethr =  1.25E-05,  avg # of iterations = 13.0


     -----------------------------------------------
     Non-local corr. energy    =      52.72691343 Ry
     -----------------------------------------------


     total cpu time spent up to now is     2898.1 secs

     total energy              =  -30233.49351607 Ry
     estimated scf accuracy    <       0.08957276 Ry

     iteration #  8     ecut=    70.00 Ry     beta= 0.70
     Davidson diagonalization with overlap

---- Real-time Memory Report at c_bands before calling an iterative solver
          1449 MiB given to the printing process from OS
             0 MiB allocation reported by mallinfo(arena+hblkhd)
       1739411 MiB available memory on the node where the printing process lives
------------------
     ethr =  5.16E-06,  avg # of iterations = 13.0


     -----------------------------------------------
     Non-local corr. energy    =      52.70239269 Ry
     -----------------------------------------------


     total cpu time spent up to now is     3320.0 secs

     total energy              =  -30233.50303231 Ry
     estimated scf accuracy    <       0.00455822 Ry

     iteration #  9     ecut=    70.00 Ry     beta= 0.70
     Davidson diagonalization with overlap

---- Real-time Memory Report at c_bands before calling an iterative solver
          1449 MiB given to the printing process from OS
             0 MiB allocation reported by mallinfo(arena+hblkhd)
       1739274 MiB available memory on the node where the printing process lives
------------------
     ethr =  2.63E-07,  avg # of iterations = 13.8


     -----------------------------------------------
     Non-local corr. energy    =      52.68862212 Ry
     -----------------------------------------------


     total cpu time spent up to now is     3983.0 secs

     total energy              =  -30233.50516459 Ry
     estimated scf accuracy    <       0.00221312 Ry

     iteration # 10     ecut=    70.00 Ry     beta= 0.70
     Davidson diagonalization with overlap

---- Real-time Memory Report at c_bands before calling an iterative solver
          1584 MiB given to the printing process from OS
             0 MiB allocation reported by mallinfo(arena+hblkhd)
       1735326 MiB available memory on the node where the printing process lives
------------------
     ethr =  1.27E-07,  avg # of iterations = 14.8


     -----------------------------------------------
     Non-local corr. energy    =      52.68451876 Ry
     -----------------------------------------------


     total cpu time spent up to now is     4600.7 secs

     total energy              =  -30233.50531326 Ry
     estimated scf accuracy    <       0.00042908 Ry

     iteration # 11     ecut=    70.00 Ry     beta= 0.70
     Davidson diagonalization with overlap

---- Real-time Memory Report at c_bands before calling an iterative solver
          1584 MiB given to the printing process from OS
             0 MiB allocation reported by mallinfo(arena+hblkhd)
       1735187 MiB available memory on the node where the printing process lives
------------------
     ethr =  2.47E-08,  avg # of iterations = 15.0


     -----------------------------------------------
     Non-local corr. energy    =      52.68536356 Ry
     -----------------------------------------------


     total cpu time spent up to now is     5358.4 secs

     total energy              =  -30233.50533162 Ry
     estimated scf accuracy    <       0.00043699 Ry

     iteration # 12     ecut=    70.00 Ry     beta= 0.70
     Davidson diagonalization with overlap

---- Real-time Memory Report at c_bands before calling an iterative solver
          1584 MiB given to the printing process from OS
             0 MiB allocation reported by mallinfo(arena+hblkhd)
       1735180 MiB available memory on the node where the printing process lives
------------------
     ethr =  2.47E-08,  avg # of iterations = 15.3


     -----------------------------------------------
     Non-local corr. energy    =      52.68671924 Ry
     -----------------------------------------------


     total cpu time spent up to now is     6046.1 secs

     total energy              =  -30233.50539117 Ry
     estimated scf accuracy    <       0.00008158 Ry

     iteration # 13     ecut=    70.00 Ry     beta= 0.70
     Davidson diagonalization with overlap

---- Real-time Memory Report at c_bands before calling an iterative solver
          1584 MiB given to the printing process from OS
             0 MiB allocation reported by mallinfo(arena+hblkhd)
       1735193 MiB available memory on the node where the printing process lives
------------------
     ethr =  4.70E-09,  avg # of iterations = 15.5


     -----------------------------------------------
     Non-local corr. energy    =      52.68811144 Ry
     -----------------------------------------------


     total cpu time spent up to now is     6920.9 secs

     total energy              =  -30233.50540348 Ry
     estimated scf accuracy    <       0.00008564 Ry

     iteration # 14     ecut=    70.00 Ry     beta= 0.70
     Davidson diagonalization with overlap

---- Real-time Memory Report at c_bands before calling an iterative solver
          1584 MiB given to the printing process from OS
             0 MiB allocation reported by mallinfo(arena+hblkhd)
       1734960 MiB available memory on the node where the printing process lives
------------------
     ethr =  4.70E-09,  avg # of iterations = 15.0


     -----------------------------------------------
     Non-local corr. energy    =      52.68900121 Ry
     -----------------------------------------------


     total cpu time spent up to now is     7584.6 secs

     total energy              =  -30233.50541472 Ry
     estimated scf accuracy    <       0.00000468 Ry

     iteration # 15     ecut=    70.00 Ry     beta= 0.70
     Davidson diagonalization with overlap

---- Real-time Memory Report at c_bands before calling an iterative solver
          1584 MiB given to the printing process from OS
             0 MiB allocation reported by mallinfo(arena+hblkhd)
       1734967 MiB available memory on the node where the printing process lives
------------------
     ethr =  2.69E-10,  avg # of iterations =  7.0


     -----------------------------------------------
     Non-local corr. energy    =      52.68913161 Ry
     -----------------------------------------------


     total cpu time spent up to now is     8202.6 secs

     total energy              =  -30233.50541686 Ry
     estimated scf accuracy    <       0.00000178 Ry

     iteration # 16     ecut=    70.00 Ry     beta= 0.70
     Davidson diagonalization with overlap

---- Real-time Memory Report at c_bands before calling an iterative solver
          1584 MiB given to the printing process from OS
             0 MiB allocation reported by mallinfo(arena+hblkhd)
       1735278 MiB available memory on the node where the printing process lives
------------------
     ethr =  1.03E-10,  avg # of iterations = 15.5


     -----------------------------------------------
     Non-local corr. energy    =      52.68902916 Ry
     -----------------------------------------------


     total cpu time spent up to now is     8987.6 secs

     total energy              =  -30233.50541709 Ry
     estimated scf accuracy    <       0.00000052 Ry

     iteration # 17     ecut=    70.00 Ry     beta= 0.70
     Davidson diagonalization with overlap

---- Real-time Memory Report at c_bands before calling an iterative solver
          1584 MiB given to the printing process from OS
             0 MiB allocation reported by mallinfo(arena+hblkhd)
       1735152 MiB available memory on the node where the printing process lives
------------------
     ethr =  2.99E-11,  avg # of iterations = 16.0


     -----------------------------------------------
     Non-local corr. energy    =      52.68892200 Ry
     -----------------------------------------------


     total cpu time spent up to now is     9742.4 secs

     total energy              =  -30233.50541711 Ry
     estimated scf accuracy    <       0.00000030 Ry

     iteration # 18     ecut=    70.00 Ry     beta= 0.70
     Davidson diagonalization with overlap

---- Real-time Memory Report at c_bands before calling an iterative solver
          1584 MiB given to the printing process from OS
             0 MiB allocation reported by mallinfo(arena+hblkhd)
       1735134 MiB available memory on the node where the printing process lives
------------------
     ethr =  1.70E-11,  avg # of iterations = 15.0


     -----------------------------------------------
     Non-local corr. energy    =      52.68892050 Ry
     -----------------------------------------------


     total cpu time spent up to now is    10337.2 secs

     total energy              =  -30233.50541715 Ry
     estimated scf accuracy    <       0.00000002 Ry

     iteration # 19     ecut=    70.00 Ry     beta= 0.70
     Davidson diagonalization with overlap

---- Real-time Memory Report at c_bands before calling an iterative solver
          1584 MiB given to the printing process from OS
             0 MiB allocation reported by mallinfo(arena+hblkhd)
       1735141 MiB available memory on the node where the printing process lives
------------------
     c_bands:  2 eigenvalues not converged
     ethr =  1.43E-12,  avg # of iterations = 15.8


     -----------------------------------------------
     Non-local corr. energy    =      52.68891875 Ry
     -----------------------------------------------


     total cpu time spent up to now is    10854.4 secs

     total energy              =  -30233.50541715 Ry
     estimated scf accuracy    <       0.00000002 Ry

     iteration # 20     ecut=    70.00 Ry     beta= 0.70
     Davidson diagonalization with overlap

---- Real-time Memory Report at c_bands before calling an iterative solver
          1592 MiB given to the printing process from OS
             0 MiB allocation reported by mallinfo(arena+hblkhd)
       1735194 MiB available memory on the node where the printing process lives
------------------
     ethr =  9.76E-13,  avg # of iterations = 15.3


     -----------------------------------------------
     Non-local corr. energy    =      52.68894559 Ry
     -----------------------------------------------


     total cpu time spent up to now is    11581.7 secs

     total energy              =  -30233.50541716 Ry
     estimated scf accuracy    <          7.2E-09 Ry

     iteration # 21     ecut=    70.00 Ry     beta= 0.70
     Davidson diagonalization with overlap

---- Real-time Memory Report at c_bands before calling an iterative solver
          1592 MiB given to the printing process from OS
             0 MiB allocation reported by mallinfo(arena+hblkhd)
       1735157 MiB available memory on the node where the printing process lives
------------------
     ethr =  4.13E-13,  avg # of iterations = 13.0


     -----------------------------------------------
     Non-local corr. energy    =      52.68895912 Ry
     -----------------------------------------------


     total cpu time spent up to now is    12075.4 secs

     total energy              =  -30233.50541716 Ry
     estimated scf accuracy    <          1.7E-09 Ry

     iteration # 22     ecut=    70.00 Ry     beta= 0.70
     Davidson diagonalization with overlap

---- Real-time Memory Report at c_bands before calling an iterative solver
          1592 MiB given to the printing process from OS
             0 MiB allocation reported by mallinfo(arena+hblkhd)
       1735159 MiB available memory on the node where the printing process lives
------------------
     ethr =  1.00E-13,  avg # of iterations = 14.5


     -----------------------------------------------
     Non-local corr. energy    =      52.68896655 Ry
     -----------------------------------------------


     total cpu time spent up to now is    12728.8 secs

     End of self-consistent calculation

          k = 0.0000 0.0000 0.0000 (154543 PWs)   bands (ev):

    -6.7858  -6.6564  -6.6564  -6.6064  -6.5831  -6.5730  -6.4801  -6.4801
    -6.4751  -6.4719  -6.4718  -6.4532  -6.3966  -6.3966  -6.3723  -6.3723
    -6.3705  -6.3674  -6.3671  -6.3661  -6.3661  -6.3642  -6.3641  -6.3585
    -6.3567  -6.3512  -6.3512  -6.3487  -6.3251  -6.3237  -6.3210  -6.3210
    -6.3189  -6.3074  -6.3074  -6.3023  -6.3023  -6.2951  -6.2917  -6.2917
    -6.2886  -6.2884  -6.2877  -6.2877  -6.2801  -6.2787  -6.2781  -6.2771
    -6.2771  -6.2765  -6.2765  -6.2763  -6.2763  -6.2751  -6.2723  -6.2721
    -6.2721  -6.2714  -6.2714  -6.2705  -6.2705  -6.2705  -6.2681  -6.2681
    -6.2646  -6.2646  -6.2646  -6.2632  -6.2624  -6.2598  -6.2598  -6.2580
    -6.2580  -6.2574  -6.2571  -6.2571  -6.2557  -6.2507  -6.2507  -6.2488
    -6.2451  -6.2441  -6.2441  -6.2437  -6.2425  -6.2425  -6.2411  -6.2411
    -6.2409  -6.2406  -6.2403  -6.2403  -6.2379  -6.2379  -6.2348  -6.2262
    -6.2254  -6.2254  -6.1729  -6.1729  -5.5962  -5.3173  -5.3173  -5.3135
    -5.2282  -5.2043  -5.2003  -5.2003  -5.1914  -5.1914  -5.1824  -5.1824
    -5.1812  -5.1801  -5.1801  -5.1778  -5.1774  -5.1774  -5.1761  -5.1717
    -5.1717  -5.1673  -5.1673  -5.1662  -5.1662  -5.1656  -5.1625  -5.1625
    -5.1588  -5.1579  -5.1579  -5.1572  -5.1572  -5.1572  -5.1535  -5.1535
    -5.1535  -5.1526  -5.1511  -5.1511  -5.1493  -5.1485  -5.1485  -5.1482
    -5.1482  -5.1476  -5.1476  -5.1472  -5.1470  -5.1464  -5.1464  -5.1441
    -5.1429  -5.1429  -5.1406  -5.1396  -5.1396  -5.1380  -5.1380  -5.1368
    -5.1338  -5.1337  -5.1325  -5.1325  -5.1310  -5.1296  -5.1296  -5.1291
    -5.1290  -5.1271  -5.1270  -5.1270  -5.1264  -5.1256  -5.1256  -5.1238
    -5.1236  -5.1228  -5.1228  -5.1227  -5.1209  -5.1209  -5.1187  -5.1187
    -5.1183  -5.1183  -5.1168  -5.1163  -5.1157  -5.1157  -5.1149  -5.1149
    -5.1146  -5.1135  -5.1135  -5.1121  -5.1120  -5.1120  -5.1118  -5.1109
    -5.1109  -5.1097  -5.1085  -5.1083  -5.1083  -5.1071  -5.1071  -5.1066
    -5.1017  -5.1017  -5.1011  -5.0994  -5.0994  -5.0974  -5.0956  -5.0956
    -5.0894  -5.0889  -5.0889  -5.0886  -5.0878  -5.0873  -5.0873  -5.0860
    -5.0860  -5.0860  -5.0851  -5.0851  -5.0841  -5.0838  -5.0821  -5.0817
    -5.0817  -5.0810  -5.0810  -5.0794  -5.0794  -5.0790  -5.0790  -5.0782
    -5.0781  -5.0777  -5.0777  -5.0761  -5.0749  -5.0749  -5.0739  -5.0731
    -5.0728  -5.0728  -5.0691  -5.0691  -5.0639  -5.0639  -5.0631  -5.0610
    -5.0606  -5.0606  -5.0581  -5.0581  -5.0570  -5.0570  -5.0562  -5.0542
    -5.0541  -5.0541  -5.0525  -5.0511  -5.0479  -5.0479  -5.0450  -5.0450
    -5.0438  -5.0402  -5.0402  -5.0389  -5.0381  -5.0377  -5.0377  -5.0357
    -5.0349  -5.0339  -5.0339  -5.0332  -5.0321  -5.0321  -5.0313  -5.0308
    -5.0308  -5.0307  -5.0292  -5.0292  -5.0249  -5.0249  -5.0245  -5.0235
    -5.0223  -5.0223  -5.0223  -5.0198  -5.0169  -5.0169  -5.0158  -5.0158
    -5.0152  -5.0152  -5.0149  -5.0144  -5.0144  -5.0144  -5.0142  -5.0139
    -5.0139  -5.0133  -5.0133  -5.0114  -5.0113  -5.0113  -5.0102  -5.0102
    -5.0090  -5.0078  -5.0078  -5.0077  -5.0077  -5.0067  -5.0057  -5.0055
    -5.0050  -5.0050  -5.0047  -5.0047  -5.0042  -5.0042  -5.0026  -5.0026
    -5.0022  -5.0013  -5.0013  -5.0005  -5.0005  -4.9985  -4.9985  -4.9979
    -4.9953  -4.9953  -4.9937  -4.9937  -4.9933  -4.9933  -4.9932  -4.9931
    -4.9927  -4.9926  -4.9926  -4.9921  -4.9921  -4.9913  -4.9913  -4.9912
    -4.9907  -4.9898  -4.9898  -4.9896  -4.9896  -4.9895  -4.9889  -4.9887
    -4.9887  -4.9879  -4.9862  -4.9862  -4.9860  -4.9852  -4.9849  -4.9836
    -4.9836  -4.9826  -4.9826  -4.9808  -4.9806  -4.9806  -4.9766  -4.9760
    -4.9760  -4.9753  -4.9742  -4.9742  -4.9728  -4.9728  -4.9697  -4.9697
    -4.9687  -4.9680  -4.9680  -4.9670  -4.9647  -4.9647  -4.9647  -4.9632
    -4.9632  -4.9616  -4.9578  -4.9578  -4.9577  -4.9534  -4.9512  -4.9512
    -4.9500  -4.9500  -4.9489  -4.9485  -4.9481  -4.9481  -4.9473  -4.9465
    -4.9465  -4.9460  -4.9453  -4.9453  -4.9434  -4.9429  -4.9429  -4.9421
    -4.9421  -4.9418  -4.9386  -4.9386  -4.9380  -4.9380  -4.9365  -4.9353
    -4.9353  -4.9329  -4.9329  -4.9326  -4.9313  -4.9310  -4.9310  -4.9308
    -4.9306  -4.9306  -4.9296  -4.9296  -4.9284  -4.9284  -4.9284  -4.9283
    -4.9275  -4.9275  -4.9271  -4.9269  -4.9268  -4.9258  -4.9254  -4.9249
    -4.9249  -4.9237  -4.9218  -4.9218  -4.9195  -4.9195  -4.9191  -4.9176
    -4.9176  -4.9172  -4.9168  -4.9168  -4.9127  -4.9127  -4.9119  -4.9102
    -4.9097  -4.9097  -4.9075  -4.9066  -4.9066  -4.9060  -4.9060  -4.9031
    -4.8957  -4.8957  -4.8919  -4.8639  -4.8639  -4.7866  -4.7866  -4.7664
    -4.7652  -4.7651  -4.7398  -4.7265  -4.7265  -4.7053  -4.5187  -4.5187
    -4.5146  -4.5114  -4.5114  -4.5113  -4.5076  -4.5076  -4.4963  -4.4958
    -4.4958  -4.4321  -4.2109  -4.1978  -3.7084  -3.7084  -3.7047  -3.7047
    -3.7030  -3.7003  -3.6994  -3.6980  -3.6979  -3.6979  -3.6947  -3.6947
    -3.6899  -3.6899  -3.6896  -3.6896  -3.6838  -3.6271  -3.5318  -3.5317
    -3.5277  -3.5196  -3.5129  -3.5129  -3.5072  -3.5072  -3.5041  -3.5041
    -3.5040  -3.5028  -3.4969  -3.4969  -3.4546  -3.4313  -3.4152  -3.4152
    -3.4091  -3.4071  -3.4071  -3.2802  -3.1165  -3.1165  -3.1084  -3.1059
    -3.1059  -3.0982  -3.0569  -3.0569  -3.0561  -3.0553  -3.0553  -3.0473
    -3.0452  -3.0412  -3.0412  -3.0385  -3.0385  -3.0325  -3.0324  -3.0324
    -3.0296  -3.0224  -3.0224  -2.9495  -2.9394  -2.9394  -2.7926  -2.7528
    -2.7510  -2.7510  -2.7478  -2.7478   0.4529   2.1558   2.3761   2.3813
     2.3814   2.3840   2.3840   2.3874   2.6349   2.6349   2.6426   2.8636
     2.8636   2.8639   2.8708   2.8708   2.8942   2.9234   2.9235   2.9259
     2.9260   2.9262   2.9316   2.9701   2.9701   2.9706   2.9753   2.9754
     2.9780   2.9780   2.9792   2.9959   2.9959   2.9988   3.0054   3.2618
     3.2618   3.2635   3.2764   3.2766   3.2766   3.4097   3.4098   3.4111
     3.4165   3.4166   3.4191   3.4195   3.4196   3.4282   3.4347   3.4348
     3.4836   3.6723   3.6764   3.6852   3.6852   3.6857   3.6881   3.6888
     3.6888   3.6908   3.6908   3.6964   3.6965   3.6965   3.7126   3.7126
     3.7541   3.8432   3.9091   3.9091   3.9091   3.9259   3.9260   4.1964
     4.8894   4.8894   4.9046   4.9838   4.9847   4.9848   4.9886   4.9903
     4.9903   4.9952   4.9953   5.0035   5.0035   5.0122   5.0511   5.0557
     5.0557   5.0592   5.0596   5.0603   5.0603   5.0651   5.0651   5.0654
     5.0726   5.0726   5.0739   5.0742   5.0743   5.1132   5.1133   5.1342
     5.2503   5.2503   5.2518   5.2534   5.2587   5.2587   5.2623   5.2668
     5.2668   5.2680   5.3203   5.3203   5.4891   5.9756   5.9793   5.9793
     5.9920   5.9920   6.0272   6.0290   6.0291   6.0301   6.0317   6.0337
     6.0337   6.0369   6.0369   6.0529   6.0606   6.0606   6.1474   6.1809
     6.1809   6.1835   6.1843   6.1870   6.1870   6.1883   6.1888   6.1898
     6.1898   6.1954   6.1954   6.1962   6.1962   6.2313   6.2313   6.2578
     6.2634   6.3109   6.3109   6.3207   6.4906   6.4906   6.4917   6.4926
     6.4926   6.4943   6.4945   6.4945   6.5098   6.5241   6.5241   6.5375
     6.6162   6.6219   6.6290   6.6290   6.6304   6.6727   6.6727   6.8156
     6.8157   6.8203   6.8558   6.8783   6.8783   6.8810   6.9091   6.9092
     6.9402   6.9708   6.9742   6.9746   6.9746   7.0366   7.0367   7.0587
     7.0594   7.0594   7.0692   7.0692   7.1447   7.2804   7.2833   7.2849
     7.2849   7.2925   7.2945   7.2945   7.2971   7.2971   7.2975   7.3443
     7.3443   7.3620   7.3620   7.3682   7.3784   7.3784   7.4074   7.4195
     7.4317   7.4317   7.4333   7.5029   7.5030   7.5566   7.5566   7.5579
     7.5605   7.5605   7.5616   7.5616   7.5619   7.5636   7.6083   7.6084
     7.6364   7.7049   7.7049   7.7063   7.7067   7.7071   7.7071   7.7089
     7.7089   7.7315   7.7531   7.7531   7.8702   7.8702   7.8869   7.9070
     7.9071   7.9722   7.9749   7.9764   7.9765   7.9840   7.9861   7.9862
     7.9887   7.9888   7.9895   8.0302   8.0645   8.0646   8.1031   8.1032
     8.1736   8.1736   8.1755   8.1789   8.1789   8.2739   8.2739   8.3640
     8.3676   8.3677   8.3678   8.5195   8.5196   8.5969   8.5970   8.7306
     8.8067   8.8068   9.5561   9.6748   9.6749  10.4391  12.1262  12.1369
    12.7519  12.7844  12.7845  12.7862  12.8363  12.8532  12.8533  12.8759
    12.8901  12.8962  12.8962  12.9068  12.9069  12.9075  13.0076  13.1719
    13.1720  13.1771  13.1771  13.1779  13.1823  13.1844  13.1844  13.2386
    13.2386  13.3007  13.5243  13.7500  13.7501  13.7736  13.7736  13.7991
    13.8513  13.9054  13.9055  13.9405  14.0753  14.0754  14.1196  14.4152
    14.4152  14.4165  14.4165  14.4177  14.4261  14.4318  14.4318  14.4341
    14.4343  14.4343  14.4346  14.4374  14.4374  14.4377  14.4462  14.4462
    14.4466  14.4497  14.4498  14.4725  14.4726  14.4753  14.4785  14.4802
    14.4803  14.5381  14.5381  14.5691  14.8006  14.8006  14.8116  14.8308
    14.8308  14.8319  14.8550  14.8880  14.8880  14.9009  14.9009  14.9023
    14.9023  14.9024  14.9033  14.9339  14.9339  14.9448  14.9671  14.9671
    14.9678  15.0106  15.0106  15.0107  15.1410  15.1410  15.1760  15.9122
    15.9496  15.9523  15.9524  15.9640  15.9640  15.9673  15.9748  15.9748
    16.0011  16.0011  16.0177  16.1017  16.1017  16.1061  16.1061  16.1069
    16.1312  16.1716  16.1716  16.1776  16.1877  16.1877  16.1893  16.2148
    16.2148  16.2196  16.2711  16.2715  16.2715  16.3235  16.4064  16.4064
    16.4260  16.4260  16.4401  16.4600  16.4819  16.4819  16.4911  16.4911
    16.4985  16.5061  16.5061  16.5093  16.5228  16.5228  16.5463  16.5580
    16.5580  16.5798  16.5915  16.5957  16.5957  16.5970  16.6014  16.6014
    16.6022  16.6024  16.6024  16.6048  16.6061  16.6061  16.6161  16.6227
    16.6227  16.6324  16.6395  16.6395  16.6396  16.6410  16.6410  16.6426
    16.6473  16.6473

     occupation numbers 
     1.0000   1.0000   1.0000   1.0000   1.0000   1.0000   1.0000   1.0000
     1.0000   1.0000   1.0000   1.0000   1.0000   1.0000   1.0000   1.0000
     1.0000   1.0000   1.0000   1.0000   1.0000   1.0000   1.0000   1.0000
     1.0000   1.0000   1.0000   1.0000   1.0000   1.0000   1.0000   1.0000
     1.0000   1.0000   1.0000   1.0000   1.0000   1.0000   1.0000   1.0000
     1.0000   1.0000   1.0000   1.0000   1.0000   1.0000   1.0000   1.0000
     1.0000   1.0000   1.0000   1.0000   1.0000   1.0000   1.0000   1.0000
     1.0000   1.0000   1.0000   1.0000   1.0000   1.0000   1.0000   1.0000
     1.0000   1.0000   1.0000   1.0000   1.0000   1.0000   1.0000   1.0000
     1.0000   1.0000   1.0000   1.0000   1.0000   1.0000   1.0000   1.0000
     1.0000   1.0000   1.0000   1.0000   1.0000   1.0000   1.0000   1.0000
     1.0000   1.0000   1.0000   1.0000   1.0000   1.0000   1.0000   1.0000
     1.0000   1.0000   1.0000   1.0000   1.0000   1.0000   1.0000   1.0000
     1.0000   1.0000   1.0000   1.0000   1.0000   1.0000   1.0000   1.0000
     1.0000   1.0000   1.0000   1.0000   1.0000   1.0000   1.0000   1.0000
     1.0000   1.0000   1.0000   1.0000   1.0000   1.0000   1.0000   1.0000
     1.0000   1.0000   1.0000   1.0000   1.0000   1.0000   1.0000   1.0000
     1.0000   1.0000   1.0000   1.0000   1.0000   1.0000   1.0000   1.0000
     1.0000   1.0000   1.0000   1.0000   1.0000   1.0000   1.0000   1.0000
     1.0000   1.0000   1.0000   1.0000   1.0000   1.0000   1.0000   1.0000
     1.0000   1.0000   1.0000   1.0000   1.0000   1.0000   1.0000   1.0000
     1.0000   1.0000   1.0000   1.0000   1.0000   1.0000   1.0000   1.0000
     1.0000   1.0000   1.0000   1.0000   1.0000   1.0000   1.0000   1.0000
     1.0000   1.0000   1.0000   1.0000   1.0000   1.0000   1.0000   1.0000
     1.0000   1.0000   1.0000   1.0000   1.0000   1.0000   1.0000   1.0000
     1.0000   1.0000   1.0000   1.0000   1.0000   1.0000   1.0000   1.0000
     1.0000   1.0000   1.0000   1.0000   1.0000   1.0000   1.0000   1.0000
     1.0000   1.0000   1.0000   1.0000   1.0000   1.0000   1.0000   1.0000
     1.0000   1.0000   1.0000   1.0000   1.0000   1.0000   1.0000   1.0000
     1.0000   1.0000   1.0000   1.0000   1.0000   1.0000   1.0000   1.0000
     1.0000   1.0000   1.0000   1.0000   1.0000   1.0000   1.0000   1.0000
     1.0000   1.0000   1.0000   1.0000   1.0000   1.0000   1.0000   1.0000
     1.0000   1.0000   1.0000   1.0000   1.0000   1.0000   1.0000   1.0000
     1.0000   1.0000   1.0000   1.0000   1.0000   1.0000   1.0000   1.0000
     1.0000   1.0000   1.0000   1.0000   1.0000   1.0000   1.0000   1.0000
     1.0000   1.0000   1.0000   1.0000   1.0000   1.0000   1.0000   1.0000
     1.0000   1.0000   1.0000   1.0000   1.0000   1.0000   1.0000   1.0000
     1.0000   1.0000   1.0000   1.0000   1.0000   1.0000   1.0000   1.0000
     1.0000   1.0000   1.0000   1.0000   1.0000   1.0000   1.0000   1.0000
     1.0000   1.0000   1.0000   1.0000   1.0000   1.0000   1.0000   1.0000
     1.0000   1.0000   1.0000   1.0000   1.0000   1.0000   1.0000   1.0000
     1.0000   1.0000   1.0000   1.0000   1.0000   1.0000   1.0000   1.0000
     1.0000   1.0000   1.0000   1.0000   1.0000   1.0000   1.0000   1.0000
     1.0000   1.0000   1.0000   1.0000   1.0000   1.0000   1.0000   1.0000
     1.0000   1.0000   1.0000   1.0000   1.0000   1.0000   1.0000   1.0000
     1.0000   1.0000   1.0000   1.0000   1.0000   1.0000   1.0000   1.0000
     1.0000   1.0000   1.0000   1.0000   1.0000   1.0000   1.0000   1.0000
     1.0000   1.0000   1.0000   1.0000   1.0000   1.0000   1.0000   1.0000
     1.0000   1.0000   1.0000   1.0000   1.0000   1.0000   1.0000   1.0000
     1.0000   1.0000   1.0000   1.0000   1.0000   1.0000   1.0000   1.0000
     1.0000   1.0000   1.0000   1.0000   1.0000   1.0000   1.0000   1.0000
     1.0000   1.0000   1.0000   1.0000   1.0000   1.0000   1.0000   1.0000
     1.0000   1.0000   1.0000   1.0000   1.0000   1.0000   1.0000   1.0000
     1.0000   1.0000   1.0000   1.0000   1.0000   1.0000   1.0000   1.0000
     1.0000   1.0000   1.0000   1.0000   1.0000   1.0000   1.0000   1.0000
     1.0000   1.0000   1.0000   1.0000   1.0000   1.0000   1.0000   1.0000
     1.0000   1.0000   1.0000   1.0000   1.0000   1.0000   1.0000   1.0000
     1.0000   1.0000   1.0000   1.0000   1.0000   1.0000   1.0000   1.0000
     1.0000   1.0000   1.0000   1.0000   1.0000   1.0000   1.0000   1.0000
     1.0000   1.0000   1.0000   1.0000   1.0000   1.0000   1.0000   1.0000
     1.0000   1.0000   1.0000   1.0000   1.0000   1.0000   1.0000   1.0000
     1.0000   1.0000   1.0000   1.0000   1.0000   1.0000   1.0000   1.0000
     1.0000   1.0000   1.0000   1.0000   1.0000   1.0000   1.0000   1.0000
     1.0000   1.0000   1.0000   1.0000   1.0000   1.0000   1.0000   1.0000
     1.0000   1.0000   1.0000   1.0000   1.0000   1.0000   1.0000   1.0000
     1.0000   1.0000   1.0000   1.0000   1.0000   1.0000   1.0000   1.0000
     1.0000   1.0000   1.0000   1.0000   1.0000   1.0000   1.0000   1.0000
     1.0000   1.0000   1.0000   1.0000   1.0000   1.0000   1.0000   1.0000
     1.0000   1.0000   1.0000   1.0000   1.0000   1.0000   1.0000   1.0000
     1.0000   1.0000   1.0000   1.0000   1.0000   1.0000   1.0000   1.0000
     1.0000   1.0000   1.0000   1.0000   1.0000   1.0000   1.0000   1.0000
     1.0000   1.0000   1.0000   1.0000   1.0000   1.0000   1.0000   1.0000
     1.0000   1.0000   1.0000   1.0000   1.0000   1.0000   1.0000   1.0000
     1.0000   1.0000   1.0000   1.0000   1.0000   1.0000   1.0000   1.0000
     1.0000   1.0000   1.0000   1.0000   1.0000   1.0000   1.0000   1.0000
     1.0000   1.0000   1.0000   1.0000   1.0000   1.0000   1.0000   1.0000
     1.0000   1.0000   1.0000   1.0000   1.0000   1.0000   1.0000   1.0000
     1.0000   1.0000   1.0000   1.0000   1.0000   1.0000   1.0000   1.0000
     1.0000   1.0000   1.0000   1.0000   1.0000   1.0000   1.0000   1.0000
     1.0000   1.0000   1.0000   1.0000   1.0000   1.0000   1.0000   1.0000
     1.0000   1.0000   1.0000   1.0000   1.0000   1.0000   1.0000   1.0000
     1.0000   1.0000   1.0000   1.0000   1.0000   1.0000   1.0000   1.0000
     1.0000   1.0000   1.0000   1.0000   1.0000   1.0000   1.0000   1.0000
     1.0000   1.0000   1.0000   1.0000   1.0000   1.0000   1.0000   1.0000
     1.0000   1.0000   1.0000   1.0000   1.0000   1.0000   1.0000   1.0000
     1.0000   1.0000   1.0000   1.0000   1.0000   1.0000   1.0000   1.0000
     1.0000   1.0000   1.0000   1.0000   1.0000   1.0000   1.0000   1.0000
     1.0000   1.0000   1.0000   1.0000   1.0000   1.0000   1.0000   1.0000
     1.0000   1.0000   1.0000   1.0000   1.0000   1.0000   1.0000   1.0000
     1.0000   1.0000   1.0000   1.0000   1.0000   1.0000   1.0000   1.0000
     1.0000   1.0000   1.0000   1.0000   1.0000   1.0000   1.0000   1.0000
     1.0000   1.0000   1.0000   1.0000   1.0000   1.0000   1.0000   1.0000
     1.0000   1.0000   1.0000   1.0000   1.0000   1.0000   1.0000   1.0000
     1.0000   1.0000   1.0000   1.0000   1.0000   1.0000   1.0000   1.0000
     1.0000   1.0000   1.0000   1.0000   1.0000   1.0000   1.0000   1.0000
     1.0000   1.0000   1.0000   1.0000   1.0000   1.0000   1.0000   1.0000
     1.0000   1.0000   1.0000   1.0000   1.0000   1.0000   1.0000   1.0000
     1.0000   1.0000   1.0000   1.0000   1.0000   1.0000   1.0000   1.0000
     1.0000   1.0000   1.0000   1.0000   1.0000   1.0000   1.0000   1.0000
     1.0000   1.0000   1.0000   1.0000   1.0000   1.0000   1.0000   1.0000
     1.0000   1.0000   1.0000   1.0000   1.0000   1.0000   1.0000   1.0000
     1.0000   1.0000   1.0000   1.0000   1.0000   1.0000   1.0000   1.0000
     1.0000   1.0000   1.0000   1.0000   1.0000   1.0000   1.0000   1.0000
     1.0000   1.0000   1.0000   1.0000   1.0000   1.0000   1.0000   1.0000
     1.0000   1.0000   1.0000   1.0000   1.0000   1.0000   1.0000   1.0000
     1.0000   1.0000   1.0000   1.0000   1.0000   1.0000   1.0000   1.0000
     1.0000   1.0000   1.0000   1.0000   1.0000   1.0000   1.0000   1.0000
     1.0000   1.0000   1.0000   1.0000   1.0000   1.0000   1.0000   1.0000
     1.0000   1.0000   0.7293   0.2665   0.2660   0.0000   0.0000   0.0000
     0.0000   0.0000   0.0000   0.0000   0.0000   0.0000   0.0000   0.0000
     0.0000   0.0000   0.0000   0.0000   0.0000   0.0000   0.0000   0.0000
     0.0000   0.0000   0.0000   0.0000   0.0000   0.0000   0.0000   0.0000
     0.0000   0.0000   0.0000   0.0000   0.0000   0.0000   0.0000   0.0000
     0.0000   0.0000   0.0000   0.0000   0.0000   0.0000   0.0000   0.0000
     0.0000   0.0000   0.0000   0.0000   0.0000   0.0000   0.0000   0.0000
     0.0000   0.0000   0.0000   0.0000   0.0000   0.0000   0.0000   0.0000
     0.0000   0.0000   0.0000   0.0000   0.0000   0.0000   0.0000   0.0000
     0.0000   0.0000   0.0000   0.0000   0.0000   0.0000   0.0000   0.0000
     0.0000   0.0000   0.0000   0.0000   0.0000   0.0000   0.0000   0.0000
     0.0000   0.0000   0.0000   0.0000   0.0000   0.0000   0.0000   0.0000
     0.0000   0.0000   0.0000   0.0000   0.0000   0.0000   0.0000   0.0000
     0.0000   0.0000   0.0000   0.0000   0.0000   0.0000   0.0000   0.0000
[...]
N             3.2473955960        9.3678468588        4.6347751980
N             3.2388054296        9.3628873239        9.9191164175
N             3.2416371022        9.3645221908       15.2155142359
N            11.2919800464        0.9414600191        4.6283069239
N            11.3405327064        0.9286512224        9.9550396474
N            11.3337950943        0.9254450097       15.1683717684
N             9.7279049853        3.7497961540        4.6325026468
N             9.7327403343        3.7470044639        9.9277109906
N             9.7329992432        3.7468549828       15.2089113151
N             8.1113724947        6.5497125597        4.6325026468
N             8.1113724947        6.5552959399        9.9277109906
N             8.1113724947        6.5555949021       15.2089113151
N             6.4613195903        9.3084093635        4.6283069239
N             6.4745031769        9.3568615988        9.9550396474
N             6.4683577092        9.3526297619       15.1683717684
N            -0.0641719373        1.9102909974        1.8480200727
N            -0.0585669421        1.9070549519        7.3934950591
N            -0.0042776657        1.8757110236       12.5509004463
N            -1.6243178486        4.6861913906        1.9803929955
N            -1.6285548370        4.6903812160        7.2850225907
N            -1.6310900077        4.6885897840       12.5677597990
N            -3.2428972873        7.4896532145        1.9803929955
N            -3.2413872862        7.4838889623        7.2850225907
N            -3.2442062972        7.4825891560       12.5677597990
N            -4.8668245904       10.2287294040        1.8480200727
N            -4.8668245904       10.2352014949        7.3934950591
N            -4.8668245904       10.2978893516       12.5509004463
N             3.3087164248        1.9102909974        1.8480200727
N             3.3031114296        1.9070549519        7.3934950591
N             3.2488221532        1.8757110236       12.5509004463
N             1.6222722437        4.6752672556        1.9831232539
N             1.6222722437        4.6828864896        7.2891442242
N             1.6222722437        4.6960766045       12.5638906584
N             0.0014250302        7.4937890286        1.9927250997
N            -0.0017646385        7.4919474726        7.2743901216
N             0.0010127227        7.4935509828       12.5695505156
N            -1.6290628195       10.3067447777        1.9831232539
N            -1.6224643693       10.3029351607        7.2891442242
N            -1.6110413947       10.2963401033       12.5638906584
N             6.4927896392        1.8734667937        1.9803929955
N             6.4985366286        1.8750412205        7.2850225907
N             6.4982527884        1.8781324588       12.5677597990
N             4.8688623361        4.6861913906        1.9803929955
N             4.8730993245        4.6903812160        7.2850225907
N             4.8756344952        4.6885897840       12.5677597990
N             3.2431194573        7.4937890286        1.9927250997
N             3.2463091260        7.4919474726        7.2743901216
N             3.2435317648        7.4935509828       12.5695505156
N             1.6222722437       10.3011787538        1.9927250997
N             1.6222722437       10.3048618660        7.2743901216
N             1.6222722437       10.3016548455       12.5695505156
N             9.7299485165        1.8734667937        1.9803929955
N             9.7242015271        1.8750412205        7.2850225907
N             9.7244853673        1.8781324588       12.5677597990
N             8.1113690779        4.6831037996        1.9886273460
N             8.1113690779        4.6831037996        7.2796840374
N             8.1113690779        4.6831037996       12.5689305893
N             6.4874417747        7.4896532145        1.9803929955
N             6.4859317736        7.4838889623        7.2850225907
N             6.4887507846        7.4825891560       12.5677597990
N             4.8736073070       10.3067447777        1.9831232539
N             4.8670088568       10.3029351607        7.2891442242
N             4.8555858822       10.2963401033       12.5638906584
Ga            1.6222756606        0.9366198184        4.5458907540



     Writing config-only to output data dir ./GaN.save/
     NEW-OLD atomic charge density approx. for the potential

     Check: negative core charge=   -0.000003


     -----------------------------------------------
     Non-local corr. energy    =      52.69206215 Ry
     -----------------------------------------------


     total cpu time spent up to now is   153845.1 secs

     Self-consistent Calculation

     iteration #  1     ecut=    70.00 Ry     beta= 0.70
     Davidson diagonalization with overlap

---- Real-time Memory Report at c_bands before calling an iterative solver
          1683 MiB given to the printing process from OS
             0 MiB allocation reported by mallinfo(arena+hblkhd)
       1730695 MiB available memory on the node where the printing process lives
------------------
     ethr =  1.00E-06,  avg # of iterations =  3.0

     Threshold (ethr) on eigenvalues was too large:
     Diagonalizing with lowered threshold

     Davidson diagonalization with overlap

---- Real-time Memory Report at c_bands before calling an iterative solver
          1683 MiB given to the printing process from OS
             0 MiB allocation reported by mallinfo(arena+hblkhd)
       1730831 MiB available memory on the node where the printing process lives
------------------
     ethr =  5.32E-08,  avg # of iterations =  2.0


     -----------------------------------------------
     Non-local corr. energy    =      52.69205207 Ry
     -----------------------------------------------


     total cpu time spent up to now is   154118.9 secs

     total energy              =  -30233.81411858 Ry
     estimated scf accuracy    <       0.00094232 Ry

     iteration #  2     ecut=    70.00 Ry     beta= 0.70
     Davidson diagonalization with overlap

---- Real-time Memory Report at c_bands before calling an iterative solver
          1683 MiB given to the printing process from OS
             0 MiB allocation reported by mallinfo(arena+hblkhd)
       1726782 MiB available memory on the node where the printing process lives
------------------
     ethr =  5.43E-08,  avg # of iterations = 10.0


     -----------------------------------------------
     Non-local corr. energy    =      52.69204943 Ry
     -----------------------------------------------


     total cpu time spent up to now is   154480.7 secs

     total energy              =  -30233.81437582 Ry
     estimated scf accuracy    <       0.00021172 Ry

     iteration #  3     ecut=    70.00 Ry     beta= 0.70
     Davidson diagonalization with overlap

---- Real-time Memory Report at c_bands before calling an iterative solver
          1683 MiB given to the printing process from OS
             0 MiB allocation reported by mallinfo(arena+hblkhd)
       1726772 MiB available memory on the node where the printing process lives
------------------
     ethr =  1.22E-08,  avg # of iterations = 14.0


     -----------------------------------------------
     Non-local corr. energy    =      52.69204975 Ry
     -----------------------------------------------


     total cpu time spent up to now is   154977.1 secs

     total energy              =  -30233.81438949 Ry
     estimated scf accuracy    <       0.00013179 Ry

     iteration #  4     ecut=    70.00 Ry     beta= 0.70
     Davidson diagonalization with overlap

---- Real-time Memory Report at c_bands before calling an iterative solver
          1683 MiB given to the printing process from OS
             0 MiB allocation reported by mallinfo(arena+hblkhd)
       1726774 MiB available memory on the node where the printing process lives
------------------
     ethr =  7.59E-09,  avg # of iterations = 14.0


     -----------------------------------------------
     Non-local corr. energy    =      52.69206170 Ry
     -----------------------------------------------


     total cpu time spent up to now is   155429.3 secs

     total energy              =  -30233.81440596 Ry
     estimated scf accuracy    <       0.00008067 Ry

     iteration #  5     ecut=    70.00 Ry     beta= 0.70
     Davidson diagonalization with overlap

---- Real-time Memory Report at c_bands before calling an iterative solver
          1683 MiB given to the printing process from OS
             0 MiB allocation reported by mallinfo(arena+hblkhd)
       1726765 MiB available memory on the node where the printing process lives
------------------
     ethr =  4.65E-09,  avg # of iterations =  1.3


     -----------------------------------------------
     Non-local corr. energy    =      52.69207771 Ry
     -----------------------------------------------


     total cpu time spent up to now is   155516.2 secs

     total energy              =  -30233.81441575 Ry
     estimated scf accuracy    <       0.00005122 Ry

     iteration #  6     ecut=    70.00 Ry     beta= 0.70
     Davidson diagonalization with overlap

---- Real-time Memory Report at c_bands before calling an iterative solver
          1683 MiB given to the printing process from OS
             0 MiB allocation reported by mallinfo(arena+hblkhd)
       1726750 MiB available memory on the node where the printing process lives
------------------
     ethr =  2.95E-09,  avg # of iterations =  1.5


     -----------------------------------------------
     Non-local corr. energy    =      52.69208735 Ry
     -----------------------------------------------


     total cpu time spent up to now is   155609.8 secs

     total energy              =  -30233.81442179 Ry
     estimated scf accuracy    <       0.00002039 Ry

     iteration #  7     ecut=    70.00 Ry     beta= 0.70
     Davidson diagonalization with overlap

---- Real-time Memory Report at c_bands before calling an iterative solver
          1683 MiB given to the printing process from OS
             0 MiB allocation reported by mallinfo(arena+hblkhd)
       1726732 MiB available memory on the node where the printing process lives
------------------
     ethr =  1.17E-09,  avg # of iterations = 13.0


     -----------------------------------------------
     Non-local corr. energy    =      52.69208901 Ry
     -----------------------------------------------


     total cpu time spent up to now is   155945.2 secs

     total energy              =  -30233.81442269 Ry
     estimated scf accuracy    <       0.00000162 Ry

     iteration #  8     ecut=    70.00 Ry     beta= 0.70
     Davidson diagonalization with overlap

---- Real-time Memory Report at c_bands before calling an iterative solver
          1683 MiB given to the printing process from OS
             0 MiB allocation reported by mallinfo(arena+hblkhd)
       1726708 MiB available memory on the node where the printing process lives
------------------
     ethr =  9.32E-11,  avg # of iterations = 10.0


     -----------------------------------------------
     Non-local corr. energy    =      52.69209199 Ry
     -----------------------------------------------


     total cpu time spent up to now is   156663.9 secs

     total energy              =  -30233.81442347 Ry
     estimated scf accuracy    <       0.00000026 Ry

     iteration #  9     ecut=    70.00 Ry     beta= 0.70
     Davidson diagonalization with overlap

---- Real-time Memory Report at c_bands before calling an iterative solver
          1683 MiB given to the printing process from OS
             0 MiB allocation reported by mallinfo(arena+hblkhd)
       1726717 MiB available memory on the node where the printing process lives
------------------
     ethr =  1.48E-11,  avg # of iterations = 12.3


     -----------------------------------------------
     Non-local corr. energy    =      52.69209278 Ry
     -----------------------------------------------


     total cpu time spent up to now is   157031.9 secs

     total energy              =  -30233.81442348 Ry
     estimated scf accuracy    <       0.00000003 Ry

     iteration # 10     ecut=    70.00 Ry     beta= 0.70
     Davidson diagonalization with overlap

---- Real-time Memory Report at c_bands before calling an iterative solver
          1683 MiB given to the printing process from OS
             0 MiB allocation reported by mallinfo(arena+hblkhd)
       1726643 MiB available memory on the node where the printing process lives
------------------
     ethr =  1.65E-12,  avg # of iterations = 12.8


     -----------------------------------------------
     Non-local corr. energy    =      52.69209351 Ry
     -----------------------------------------------


     total cpu time spent up to now is   157443.8 secs

     total energy              =  -30233.81442348 Ry
     estimated scf accuracy    <       0.00000001 Ry

     iteration # 11     ecut=    70.00 Ry     beta= 0.70
     Davidson diagonalization with overlap

---- Real-time Memory Report at c_bands before calling an iterative solver
          1683 MiB given to the printing process from OS
             0 MiB allocation reported by mallinfo(arena+hblkhd)
       1726616 MiB available memory on the node where the printing process lives
------------------
     c_bands:  1 eigenvalues not converged
     ethr =  6.72E-13,  avg # of iterations = 15.3


     -----------------------------------------------
     Non-local corr. energy    =      52.69209313 Ry
     -----------------------------------------------


     total cpu time spent up to now is   158002.8 secs

     total energy              =  -30233.81442348 Ry
     estimated scf accuracy    <          6.4E-09 Ry

     iteration # 12     ecut=    70.00 Ry     beta= 0.70
     Davidson diagonalization with overlap

---- Real-time Memory Report at c_bands before calling an iterative solver
          1683 MiB given to the printing process from OS
             0 MiB allocation reported by mallinfo(arena+hblkhd)
       1726582 MiB available memory on the node where the printing process lives
------------------
     c_bands:  1 eigenvalues not converged
     ethr =  3.67E-13,  avg # of iterations = 15.5


     -----------------------------------------------
     Non-local corr. energy    =      52.69209307 Ry
     -----------------------------------------------


     total cpu time spent up to now is   158613.9 secs

     total energy              =  -30233.81442348 Ry
     estimated scf accuracy    <          7.4E-10 Ry

     iteration # 13     ecut=    70.00 Ry     beta= 0.70
     Davidson diagonalization with overlap

---- Real-time Memory Report at c_bands before calling an iterative solver
          1683 MiB given to the printing process from OS
             0 MiB allocation reported by mallinfo(arena+hblkhd)
       1726574 MiB available memory on the node where the printing process lives
------------------
     c_bands:  1 eigenvalues not converged
     ethr =  1.00E-13,  avg # of iterations = 15.5


     -----------------------------------------------
     Non-local corr. energy    =      52.69209309 Ry
     -----------------------------------------------


     total cpu time spent up to now is   159137.6 secs

     total energy              =  -30233.81442348 Ry
     estimated scf accuracy    <          1.7E-10 Ry

     iteration # 14     ecut=    70.00 Ry     beta= 0.70
     Davidson diagonalization with overlap

---- Real-time Memory Report at c_bands before calling an iterative solver
          1683 MiB given to the printing process from OS
             0 MiB allocation reported by mallinfo(arena+hblkhd)
       1726590 MiB available memory on the node where the printing process lives
------------------
     c_bands:  1 eigenvalues not converged

     Program stopped by user request
     Calculation stopped in k-point loop, point #     2
     Calculation stopped in scf loop at iteration #    13

     Writing config to output data dir ./GaN.save/
 
     init_run     :     40.50s CPU     45.37s WALL (       1 calls)
     electrons    : 150773.33s CPU 152682.06s WALL (      19 calls)
     update_pot   :     31.28s CPU     31.62s WALL (      18 calls)
     forces       :    343.81s CPU    350.94s WALL (      18 calls)
     stress       :   6194.99s CPU   6263.31s WALL (      18 calls)

     Called by init_run:
     wfcinit      :     35.33s CPU     40.01s WALL (       1 calls)
     wfcinit:atom :      0.10s CPU      0.17s WALL (       2 calls)
     wfcinit:wfcr :     34.76s CPU     39.17s WALL (       2 calls)
     potinit      :      2.18s CPU      2.27s WALL (       1 calls)
     hinit0       :      0.31s CPU      0.32s WALL (       1 calls)

     Called by electrons:
     c_bands      : 147972.63s CPU 149841.82s WALL (     340 calls)
     sum_band     :   2356.09s CPU   2387.45s WALL (     339 calls)
     v_of_rho     :    188.48s CPU    191.84s WALL (     355 calls)
     v_h          :      2.03s CPU      2.06s WALL (     355 calls)
     v_xc         :    205.37s CPU    208.98s WALL (     391 calls)
     newd         :     53.47s CPU     54.69s WALL (     355 calls)
     PAW_pot      :    201.99s CPU    203.97s WALL (     373 calls)
     mix_rho      :     12.25s CPU     12.73s WALL (     339 calls)
     vdW_kernel   :      0.26s CPU      0.27s WALL (       1 calls)

     Called by c_bands:
     init_us_2    :    157.80s CPU    160.09s WALL (    1468 calls)
     init_us_2:cp :    157.77s CPU    160.08s WALL (    1468 calls)
     cegterg      : 123159.64s CPU 124869.08s WALL (     680 calls)

     Called by sum_band:
     sum_band:wei :      0.78s CPU      0.81s WALL (     339 calls)
     sum_band:loo :   2268.35s CPU   2293.19s WALL (     339 calls)
     sum_band:buf :     34.52s CPU     35.17s WALL (     678 calls)
     sum_band:ini :     72.35s CPU     73.36s WALL (     678 calls)
     sum_band:cal :   1395.96s CPU   1409.44s WALL (     714 calls)
     sum_band:bec :     18.39s CPU     18.68s WALL (     714 calls)
     addusdens    :     57.48s CPU     59.93s WALL (     339 calls)
     addusd:skk   :     11.37s CPU     11.66s WALL (     678 calls)
     addusd:dgemm :     32.86s CPU     34.77s WALL (     678 calls)
     addusd:qvan2 :     10.69s CPU     10.84s WALL (     678 calls)

     Called by *egterg:
     cdiaghg      :  96830.35s CPU  97538.50s WALL (    7936 calls)
     cegterg:over :   5068.75s CPU   5271.95s WALL (    7298 calls)
     cegterg:upda :   3087.98s CPU   3153.56s WALL (    7298 calls)
     cegterg:last :   1574.54s CPU   1588.47s WALL (     708 calls)
     h_psi        :  11483.78s CPU  11709.28s WALL (    7980 calls)
     s_psi        :   3575.83s CPU   3657.87s WALL (    7980 calls)
     g_psi        :     19.74s CPU     20.05s WALL (    7298 calls)

     Called by h_psi:
     h_psi:calbec :   3804.86s CPU   3844.72s WALL (    7980 calls)
     vloc_psi     :   4042.49s CPU   4089.59s WALL (    7980 calls)
     add_vuspsi   :   3572.31s CPU   3660.17s WALL (    7980 calls)

     General routines
     calbec       :   5668.27s CPU   5725.66s WALL (    8874 calls)
     fft          :     91.33s CPU     92.66s WALL (   25392 calls)
     ffts         :      2.31s CPU      2.35s WALL (     694 calls)
     fftw         :   4525.58s CPU   4578.24s WALL ( 4516070 calls)
     interpolate  :      2.68s CPU      2.72s WALL (     355 calls)
     davcio       :      0.00s CPU      0.03s WALL (      20 calls)
 
     Parallel routines

     PAW routines
     PAW_pot      :    201.99s CPU    203.97s WALL (     373 calls)
     PAW_symme    :      1.90s CPU      1.94s WALL (     712 calls)
 
     PWSCF        :   1d19h44m CPU   1d20h17m WALL

 
   This run was terminated on:   8:50:37   1Oct2023            

=------------------------------------------------------------------------------=
   JOB DONE.
=------------------------------------------------------------------------------=
