
     Program PWSCF v.7.1 starts on 15Apr2024 at 10:20:35 

     This program is part of the open-source Quantum ESPRESSO suite
     for quantum simulation of materials; please cite
         "P. Giannozzi et al., J. Phys.:Condens. Matter 21 395502 (2009);
         "P. Giannozzi et al., J. Phys.:Condens. Matter 29 465901 (2017);
         "P. Giannozzi et al., J. Chem. Phys. 152 154105 (2020);
          URL http://www.quantum-espresso.org", 
     in publications or presentations arising from this work. More details at
     http://www.quantum-espresso.org/quote

     Parallel version (MPI & OpenMP), running on     128 processor cores
     Number of MPI processes:               128
     Threads/MPI process:                     1

     MPI processes distributed on     1 nodes
     2048944 MiB available memory on the printing compute node when the environment starts
 
     Reading input from espresso.pwi
Warning: card &CELL ignored
Warning: card    CELL_DYNAMICS    = 'BFGS' ignored
Warning: card / ignored

     Current dimensions of program PWSCF are:
     Max number of different atomic species (ntypx) = 10
     Max number of k-points (npk) =  40000
     Max angular momentum in pseudopotentials (lmaxx) =  4
     file Ga.pbe-dn-kjpaw_psl.1.0.0.UPF: wavefunction(s)  4S renormalized
     file N.pbe-n-kjpaw_psl.1.0.0.UPF: wavefunction(s)  2S renormalized

     **************************************************************************
     Initializing libbeef V0.1.2 with the BEEF-vdW functional.
     Citation: Wellendorff et al., PRB 85, 235149 (2012).
     **************************************************************************


     IMPORTANT: XC functional enforced from input :
     Exchange-correlation= BEEF-VDW
                           (   1   4  43  14   2   0   0)
     Any further DFT definition will be discarded
     Please, verify this is what you really want

 
     K-points division:     npool     =       2
     R & G space division:  proc/nbgrp/npool/nimage =      64
     Subspace diagonalization in iterative solution of the eigenvalue problem:
     a serial algorithm will be used

 
     Parallelization info
     --------------------
     sticks:   dense  smooth     PW     G-vecs:    dense   smooth      PW
     Min         226     181     47                26979    19303    2571
     Max         228     182     48                26983    19308    2576
     Sum       14527   11629   3037              1726709  1235535  164709
 
     Using Slab Decomposition
 


     bravais-lattice index     =            4
     lattice parameter (alat)  =      24.5252  a.u.
     unit-cell volume          =   15616.6055 (a.u.)^3
     number of atoms/cell      =          192
     number of atomic types    =            2
     number of electrons       =      1738.00
     number of Kohn-Sham states=         1043
     kinetic-energy cutoff     =      70.0000  Ry
     charge density cutoff     =     350.0000  Ry
     scf convergence threshold =      1.0E-07
     mixing beta               =       0.7000
     number of iterations used =            8  plain     mixing
     Exchange-correlation= BEEF-VDW
                           (   1   4  43  14   2   0   0)

     celldm(1)=  24.525232  celldm(2)=   0.000000  celldm(3)=   1.222409
     celldm(4)=   0.000000  celldm(5)=   0.000000  celldm(6)=   0.000000

     crystal axes: (cart. coord. in units of alat)
               a(1) = (   1.000000   0.000000   0.000000 )  
               a(2) = (  -0.500000   0.866025   0.000000 )  
               a(3) = (   0.000000   0.000000   1.222409 )  

     reciprocal axes: (cart. coord. in units 2 pi/alat)
               b(1) = (  1.000000  0.577350 -0.000000 )  
               b(2) = (  0.000000  1.154701  0.000000 )  
               b(3) = (  0.000000 -0.000000  0.818057 )  


     PseudoPot. # 1 for Ga read from file:
     //group///packages/espresso/pseudo/psl_1.0.0/pslibrary.1.0.0/pbe/PSEUDOPOTENTIALS/Ga.pbe-dn-kjpaw_psl.1.0.0.UPF
     MD5 check sum: cd2a01e492f15b435d17032472d8505c
     Pseudo is Projector augmented-wave + core cor, Zval = 13.0
     Generated using 'atomic' code by A. Dal Corso  v.7.1
     Shape of augmentation charge: PSQ
     Using radial grid of 1205 points,  6 beta functions with: 
                l(1) =   0
                l(2) =   0
                l(3) =   1
                l(4) =   1
                l(5) =   2
                l(6) =   2
     Q(r) pseudized with 0 coefficients 


     PseudoPot. # 2 for N  read from file:
     //group///packages/espresso/pseudo/psl_1.0.0/pslibrary.1.0.0/pbe/PSEUDOPOTENTIALS/N.pbe-n-kjpaw_psl.1.0.0.UPF
     MD5 check sum: f77f775694dac7e2c3fe1c82443d1a16
     Pseudo is Projector augmented-wave + core cor, Zval =  5.0
     Generated using 'atomic' code by A. Dal Corso  v.7.1
     Shape of augmentation charge: PSQ
     Using radial grid of 1085 points,  4 beta functions with: 
                l(1) =   0
                l(2) =   0
                l(3) =   1
                l(4) =   1
     Q(r) pseudized with 0 coefficients 


     atomic species   valence    mass     pseudopotential
        Ga            13.00    69.72300     Ga( 1.00)
        N              5.00    14.00700     N ( 1.00)

      6 Sym. Ops. (no inversion) found ( 4 have fractional translation)


                                    s                        frac. trans.

      isym =  1     identity                                     

 cryst.   s( 1) = (     1          0          0      )
                  (     0          1          0      )
                  (     0          0          1      )

 cart.    s( 1) = (  1.0000000  0.0000000  0.0000000 )
                  (  0.0000000  1.0000000  0.0000000 )
                  (  0.0000000  0.0000000  1.0000000 )


      isym =  2     120 deg rotation - cryst. axis [0,0,1]       

 cryst.   s( 2) = (     0          1          0      )    f =( -0.2500000 )
                  (    -1         -1          0      )       (  0.0000002 )
                  (     0          0          1      )       (  0.0000000 )

 cart.    s( 2) = ( -0.5000000 -0.8660254  0.0000000 )    f =( -0.2500001 )
                  (  0.8660254 -0.5000000  0.0000000 )       (  0.0000002 )
                  (  0.0000000  0.0000000  1.0000000 )       (  0.0000000 )


      isym =  3     120 deg rotation - cryst. axis [0,0,-1]      

 cryst.   s( 3) = (    -1         -1          0      )    f =( -0.2500002 )
                  (     1          0          0      )       ( -0.2500000 )
                  (     0          0          1      )       (  0.0000000 )

 cart.    s( 3) = ( -0.5000000  0.8660254  0.0000000 )    f =( -0.1250002 )
                  ( -0.8660254 -0.5000000  0.0000000 )       ( -0.2165064 )
                  (  0.0000000  0.0000000  1.0000000 )       (  0.0000000 )


      isym =  4     inv. 180 deg rotation - cart. axis [1,0,0]   

 cryst.   s( 4) = (    -1          0          0      )    f =( -0.2500002 )
                  (     1          1          0      )       (  0.0000000 )
                  (     0          0          1      )       (  0.0000000 )

 cart.    s( 4) = ( -1.0000000  0.0000000  0.0000000 )    f =( -0.2500002 )
                  (  0.0000000  1.0000000  0.0000000 )       (  0.0000000 )
                  (  0.0000000  0.0000000  1.0000000 )       (  0.0000000 )


      isym =  5     inv. 180 deg rotation - cryst. axis [0,1,0]  

 cryst.   s( 5) = (     1          1          0      )
                  (     0         -1          0      )
                  (     0          0          1      )

 cart.    s( 5) = (  0.5000000  0.8660254  0.0000000 )
                  (  0.8660254 -0.5000000  0.0000000 )
                  (  0.0000000  0.0000000  1.0000000 )


      isym =  6     inv. 180 deg rotation - cryst. axis [1,1,0]  

 cryst.   s( 6) = (     0         -1          0      )    f =( -0.2500000 )
                  (    -1          0          0      )       ( -0.2500000 )
                  (     0          0          1      )       (  0.0000000 )

 cart.    s( 6) = (  0.5000000 -0.8660254  0.0000000 )    f =( -0.1250000 )
                  ( -0.8660254 -0.5000000  0.0000000 )       ( -0.2165064 )
                  (  0.0000000  0.0000000  1.0000000 )       (  0.0000000 )


     point group C_3v (3m)  
     there are  3 classes
     the character table:

       E     2C3   3s_v 
A_1    1.00  1.00  1.00
A_2    1.00  1.00 -1.00
E      2.00 -1.00  0.00

     the symmetry operations in each class and the name of the first element:

     E        1
          identity                                               
     2C3      2    3
          120 deg rotation - cryst. axis [0,0,1]                 
     3s_v     4    5    6
          inv. 180 deg rotation - cart. axis [1,0,0]             

   Cartesian axes

     site n.     atom                  positions (alat units)
         1           Ga  tau(   1) = (   0.1250001   0.0721687   0.2033935  )
         2           Ga  tau(   2) = (   0.1250001   0.0721687   0.6108633  )
         3           Ga  tau(   3) = (   0.1250001   0.0721687   1.0183331  )
         4           Ga  tau(   4) = (   0.0000001   0.2886751   0.2033935  )
         5           Ga  tau(   5) = (   0.0000001   0.2886751   0.6108633  )
         6           Ga  tau(   6) = (   0.0000001   0.2886751   1.0183331  )
         7           Ga  tau(   7) = (  -0.1249999   0.5051814   0.2033935  )
         8           Ga  tau(   8) = (  -0.1249999   0.5051814   0.6108633  )
         9           Ga  tau(   9) = (  -0.1249999   0.5051814   1.0183331  )
        10           Ga  tau(  10) = (  -0.2499999   0.7216878   0.2033935  )
        11           Ga  tau(  11) = (  -0.2499999   0.7216878   0.6108633  )
        12           Ga  tau(  12) = (  -0.2499999   0.7216878   1.0183331  )
        13           Ga  tau(  13) = (   0.3750001   0.0721687   0.2033935  )
        14           Ga  tau(  14) = (   0.3750001   0.0721687   0.6108633  )
        15           Ga  tau(  15) = (   0.3750001   0.0721687   1.0183331  )
        16           Ga  tau(  16) = (   0.2500001   0.2886751   0.2033935  )
        17           Ga  tau(  17) = (   0.2500001   0.2886751   0.6108633  )
        18           Ga  tau(  18) = (   0.2500001   0.2886751   1.0183331  )
        19           Ga  tau(  19) = (   0.1250001   0.5051814   0.2033935  )
        20           Ga  tau(  20) = (   0.1250001   0.5051814   0.6108633  )
        21           Ga  tau(  21) = (   0.1250001   0.5051814   1.0183331  )
        22           Ga  tau(  22) = (   0.0000001   0.7216878   0.2033935  )
        23           Ga  tau(  23) = (   0.0000001   0.7216878   0.6108633  )
        24           Ga  tau(  24) = (   0.0000001   0.7216878   1.0183331  )
        25           Ga  tau(  25) = (   0.6250001   0.0721687   0.2033935  )
        26           Ga  tau(  26) = (   0.6250001   0.0721687   0.6108633  )
        27           Ga  tau(  27) = (   0.6250001   0.0721687   1.0183331  )
        28           Ga  tau(  28) = (   0.5000001   0.2886751   0.2033935  )
        29           Ga  tau(  29) = (   0.5000001   0.2886751   0.6108633  )
        30           Ga  tau(  30) = (   0.5000001   0.2886751   1.0183331  )
        31           Ga  tau(  31) = (   0.3750001   0.5051814   0.2033935  )
        32           Ga  tau(  32) = (   0.3750001   0.5051814   0.6108633  )
        33           Ga  tau(  33) = (   0.3750001   0.5051814   1.0183331  )
        34           Ga  tau(  34) = (   0.2500001   0.7216878   0.2033935  )
        35           Ga  tau(  35) = (   0.2500001   0.7216878   0.6108633  )
        36           Ga  tau(  36) = (   0.2500001   0.7216878   1.0183331  )
        37           Ga  tau(  37) = (   0.8750001   0.0721687   0.2033935  )
        38           Ga  tau(  38) = (   0.8750001   0.0721687   0.6108633  )
        39           Ga  tau(  39) = (   0.8750001   0.0721687   1.0183331  )
        40           Ga  tau(  40) = (   0.7500001   0.2886751   0.2033935  )
        41           Ga  tau(  41) = (   0.7500001   0.2886751   0.6108633  )
        42           Ga  tau(  42) = (   0.7500001   0.2886751   1.0183331  )
        43           Ga  tau(  43) = (   0.6250001   0.5051814   0.2033935  )
        44           Ga  tau(  44) = (   0.6250001   0.5051814   0.6108633  )
        45           Ga  tau(  45) = (   0.6250001   0.5051814   1.0183331  )
        46           Ga  tau(  46) = (   0.5000001   0.7216878   0.2033935  )
        47           Ga  tau(  47) = (   0.5000001   0.7216878   0.6108633  )
        48           Ga  tau(  48) = (   0.5000001   0.7216878   1.0183331  )
        49           Ga  tau(  49) = (  -0.0000002   0.1443377   0.4071284  )
        50           Ga  tau(  50) = (  -0.0000002   0.1443377   0.8145982  )
        51           Ga  tau(  51) = (  -0.0000002   0.1443377   1.2220680  )
        52           Ga  tau(  52) = (  -0.1250002   0.3608440   0.4071284  )
        53           Ga  tau(  53) = (  -0.1250002   0.3608440   0.8145982  )
        54           Ga  tau(  54) = (  -0.1250002   0.3608440   1.2220680  )
        55           Ga  tau(  55) = (  -0.2500002   0.5773504   0.4071284  )
        56           Ga  tau(  56) = (  -0.2500002   0.5773504   0.8145982  )
        57           Ga  tau(  57) = (  -0.2500002   0.5773504   1.2220680  )
        58           Ga  tau(  58) = (  -0.3750001   0.7938567   0.4071284  )
        59           Ga  tau(  59) = (  -0.3750001   0.7938567   0.8145982  )
        60           Ga  tau(  60) = (  -0.3750001   0.7938567   1.2220680  )
        61           Ga  tau(  61) = (   0.2499998   0.1443377   0.4071284  )
        62           Ga  tau(  62) = (   0.2499998   0.1443377   0.8145982  )
        63           Ga  tau(  63) = (   0.2499998   0.1443377   1.2220680  )
        64           Ga  tau(  64) = (   0.1249998   0.3608440   0.4071284  )
        65           Ga  tau(  65) = (   0.1249998   0.3608440   0.8145982  )
        66           Ga  tau(  66) = (   0.1249998   0.3608440   1.2220680  )
        67           Ga  tau(  67) = (  -0.0000002   0.5773504   0.4071284  )
        68           Ga  tau(  68) = (  -0.0000002   0.5773504   0.8145982  )
        69           Ga  tau(  69) = (  -0.0000002   0.5773504   1.2220680  )
        70           Ga  tau(  70) = (  -0.1250002   0.7938567   0.4071284  )
        71           Ga  tau(  71) = (  -0.1250002   0.7938567   0.8145982  )
        72           Ga  tau(  72) = (  -0.1250002   0.7938567   1.2220680  )
        73           Ga  tau(  73) = (   0.4999998   0.1443377   0.4071284  )
        74           Ga  tau(  74) = (   0.4999998   0.1443377   0.8145982  )
        75           Ga  tau(  75) = (   0.4999998   0.1443377   1.2220680  )
        76           Ga  tau(  76) = (   0.3749998   0.3608440   0.4071284  )
        77           Ga  tau(  77) = (   0.3749998   0.3608440   0.8145982  )
        78           Ga  tau(  78) = (   0.3749998   0.3608440   1.2220680  )
        79           Ga  tau(  79) = (   0.2499998   0.5773504   0.4071284  )
        80           Ga  tau(  80) = (   0.2499998   0.5773504   0.8145982  )
        81           Ga  tau(  81) = (   0.2499998   0.5773504   1.2220680  )
        82           Ga  tau(  82) = (   0.1249998   0.7938567   0.4071284  )
        83           Ga  tau(  83) = (   0.1249998   0.7938567   0.8145982  )
        84           Ga  tau(  84) = (   0.1249998   0.7938567   1.2220680  )
        85           Ga  tau(  85) = (   0.7499998   0.1443377   0.4071284  )
        86           Ga  tau(  86) = (   0.7499998   0.1443377   0.8145982  )
        87           Ga  tau(  87) = (   0.7499998   0.1443377   1.2220680  )
        88           Ga  tau(  88) = (   0.6249998   0.3608440   0.4071284  )
        89           Ga  tau(  89) = (   0.6249998   0.3608440   0.8145982  )
        90           Ga  tau(  90) = (   0.6249998   0.3608440   1.2220680  )
        91           Ga  tau(  91) = (   0.4999998   0.5773504   0.4071284  )
        92           Ga  tau(  92) = (   0.4999998   0.5773504   0.8145982  )
        93           Ga  tau(  93) = (   0.4999998   0.5773504   1.2220680  )
        94           Ga  tau(  94) = (   0.3749998   0.7938567   0.4071284  )
        95           Ga  tau(  95) = (   0.3749998   0.7938567   0.8145982  )
        96           Ga  tau(  96) = (   0.3749998   0.7938567   1.2220680  )
        97           N   tau(  97) = (   0.1250001   0.0721687   0.7643472  )
        98           N   tau(  98) = (   0.1250001   0.0721687   1.1718169  )
        99           N   tau(  99) = (   0.0000001   0.2886751   0.3568774  )
       100           N   tau( 100) = (   0.0000001   0.2886751   0.7643472  )
       101           N   tau( 101) = (   0.0000001   0.2886751   1.1718169  )
       102           N   tau( 102) = (  -0.1249999   0.5051814   0.3568774  )
       103           N   tau( 103) = (  -0.1249999   0.5051814   0.7643472  )
       104           N   tau( 104) = (  -0.1249999   0.5051814   1.1718169  )
       105           N   tau( 105) = (  -0.2499999   0.7216878   0.3568774  )
       106           N   tau( 106) = (  -0.2499999   0.7216878   0.7643472  )
       107           N   tau( 107) = (  -0.2499999   0.7216878   1.1718169  )
       108           N   tau( 108) = (   0.3750001   0.0721687   0.3568774  )
       109           N   tau( 109) = (   0.3750001   0.0721687   0.7643472  )
       110           N   tau( 110) = (   0.3750001   0.0721687   1.1718169  )
       111           N   tau( 111) = (   0.2500001   0.2886751   0.3568774  )
       112           N   tau( 112) = (   0.2500001   0.2886751   0.7643472  )
       113           N   tau( 113) = (   0.2500001   0.2886751   1.1718169  )
       114           N   tau( 114) = (   0.1250001   0.5051814   0.3568774  )
       115           N   tau( 115) = (   0.1250001   0.5051814   0.7643472  )
       116           N   tau( 116) = (   0.1250001   0.5051814   1.1718169  )
       117           N   tau( 117) = (   0.0000001   0.7216878   0.3568774  )
       118           N   tau( 118) = (   0.0000001   0.7216878   0.7643472  )
       119           N   tau( 119) = (   0.0000001   0.7216878   1.1718169  )
       120           N   tau( 120) = (   0.6250001   0.0721687   0.3568774  )
       121           N   tau( 121) = (   0.6250001   0.0721687   0.7643472  )
       122           N   tau( 122) = (   0.6250001   0.0721687   1.1718169  )
       123           N   tau( 123) = (   0.5000001   0.2886751   0.3568774  )
       124           N   tau( 124) = (   0.5000001   0.2886751   0.7643472  )
       125           N   tau( 125) = (   0.5000001   0.2886751   1.1718169  )
       126           N   tau( 126) = (   0.3750001   0.5051814   0.3568774  )
       127           N   tau( 127) = (   0.3750001   0.5051814   0.7643472  )
       128           N   tau( 128) = (   0.3750001   0.5051814   1.1718169  )
       129           N   tau( 129) = (   0.2500001   0.7216878   0.3568774  )
       130           N   tau( 130) = (   0.2500001   0.7216878   0.7643472  )
       131           N   tau( 131) = (   0.2500001   0.7216878   1.1718169  )
       132           N   tau( 132) = (   0.8750001   0.0721687   0.3568774  )
       133           N   tau( 133) = (   0.8750001   0.0721687   0.7643472  )
       134           N   tau( 134) = (   0.8750001   0.0721687   1.1718169  )
       135           N   tau( 135) = (   0.7500001   0.2886751   0.3568774  )
       136           N   tau( 136) = (   0.7500001   0.2886751   0.7643472  )
       137           N   tau( 137) = (   0.7500001   0.2886751   1.1718169  )
       138           N   tau( 138) = (   0.6250001   0.5051814   0.3568774  )
       139           N   tau( 139) = (   0.6250001   0.5051814   0.7643472  )
       140           N   tau( 140) = (   0.6250001   0.5051814   1.1718169  )
       141           N   tau( 141) = (   0.5000001   0.7216878   0.3568774  )
       142           N   tau( 142) = (   0.5000001   0.7216878   0.7643472  )
       143           N   tau( 143) = (   0.5000001   0.7216878   1.1718169  )
       144           N   tau( 144) = (  -0.0000002   0.1443377   0.1531425  )
       145           N   tau( 145) = (  -0.0000002   0.1443377   0.5606123  )
       146           N   tau( 146) = (  -0.0000002   0.1443377   0.9680820  )
       147           N   tau( 147) = (  -0.1250002   0.3608440   0.1531425  )
       148           N   tau( 148) = (  -0.1250002   0.3608440   0.5606123  )
       149           N   tau( 149) = (  -0.1250002   0.3608440   0.9680820  )
       150           N   tau( 150) = (  -0.2500002   0.5773504   0.1531425  )
       151           N   tau( 151) = (  -0.2500002   0.5773504   0.5606123  )
       152           N   tau( 152) = (  -0.2500002   0.5773504   0.9680820  )
       153           N   tau( 153) = (  -0.3750001   0.7938567   0.1531425  )
       154           N   tau( 154) = (  -0.3750001   0.7938567   0.5606123  )
       155           N   tau( 155) = (  -0.3750001   0.7938567   0.9680820  )
       156           N   tau( 156) = (   0.2499998   0.1443377   0.1531425  )
       157           N   tau( 157) = (   0.2499998   0.1443377   0.5606123  )
       158           N   tau( 158) = (   0.2499998   0.1443377   0.9680820  )
       159           N   tau( 159) = (   0.1249998   0.3608440   0.1531425  )
       160           N   tau( 160) = (   0.1249998   0.3608440   0.5606123  )
       161           N   tau( 161) = (   0.1249998   0.3608440   0.9680820  )
       162           N   tau( 162) = (  -0.0000002   0.5773504   0.1531425  )
       163           N   tau( 163) = (  -0.0000002   0.5773504   0.5606123  )
       164           N   tau( 164) = (  -0.0000002   0.5773504   0.9680820  )
       165           N   tau( 165) = (  -0.1250002   0.7938567   0.1531425  )
       166           N   tau( 166) = (  -0.1250002   0.7938567   0.5606123  )
       167           N   tau( 167) = (  -0.1250002   0.7938567   0.9680820  )
       168           N   tau( 168) = (   0.4999998   0.1443377   0.1531425  )
       169           N   tau( 169) = (   0.4999998   0.1443377   0.5606123  )
       170           N   tau( 170) = (   0.4999998   0.1443377   0.9680820  )
       171           N   tau( 171) = (   0.3749998   0.3608440   0.1531425  )
       172           N   tau( 172) = (   0.3749998   0.3608440   0.5606123  )
       173           N   tau( 173) = (   0.3749998   0.3608440   0.9680820  )
       174           N   tau( 174) = (   0.2499998   0.5773504   0.1531425  )
       175           N   tau( 175) = (   0.2499998   0.5773504   0.5606123  )
       176           N   tau( 176) = (   0.2499998   0.5773504   0.9680820  )
       177           N   tau( 177) = (   0.1249998   0.7938567   0.1531425  )
       178           N   tau( 178) = (   0.1249998   0.7938567   0.5606123  )
       179           N   tau( 179) = (   0.1249998   0.7938567   0.9680820  )
       180           N   tau( 180) = (   0.7499998   0.1443377   0.1531425  )
       181           N   tau( 181) = (   0.7499998   0.1443377   0.5606123  )
       182           N   tau( 182) = (   0.7499998   0.1443377   0.9680820  )
       183           N   tau( 183) = (   0.6249998   0.3608440   0.1531425  )
       184           N   tau( 184) = (   0.6249998   0.3608440   0.5606123  )
       185           N   tau( 185) = (   0.6249998   0.3608440   0.9680820  )
       186           N   tau( 186) = (   0.4999998   0.5773504   0.1531425  )
       187           N   tau( 187) = (   0.4999998   0.5773504   0.5606123  )
       188           N   tau( 188) = (   0.4999998   0.5773504   0.9680820  )
       189           N   tau( 189) = (   0.3749998   0.7938567   0.1531425  )
       190           N   tau( 190) = (   0.3749998   0.7938567   0.5606123  )
       191           N   tau( 191) = (   0.3749998   0.7938567   0.9680820  )
       192           Ga  tau( 192) = (   0.1250001   0.0721687   0.3568774  )

   Crystallographic axes

     site n.     atom                  positions (cryst. coord.)
         1           Ga  tau(   1) = (  0.1666667  0.0833333  0.1663874  )
         2           Ga  tau(   2) = (  0.1666667  0.0833333  0.4997208  )
         3           Ga  tau(   3) = (  0.1666667  0.0833333  0.8330541  )
         4           Ga  tau(   4) = (  0.1666667  0.3333333  0.1663874  )
         5           Ga  tau(   5) = (  0.1666667  0.3333333  0.4997208  )
         6           Ga  tau(   6) = (  0.1666667  0.3333333  0.8330541  )
         7           Ga  tau(   7) = (  0.1666667  0.5833333  0.1663874  )
         8           Ga  tau(   8) = (  0.1666667  0.5833333  0.4997208  )
         9           Ga  tau(   9) = (  0.1666667  0.5833333  0.8330541  )
        10           Ga  tau(  10) = (  0.1666667  0.8333333  0.1663874  )
        11           Ga  tau(  11) = (  0.1666667  0.8333333  0.4997208  )
        12           Ga  tau(  12) = (  0.1666667  0.8333333  0.8330541  )
        13           Ga  tau(  13) = (  0.4166667  0.0833333  0.1663874  )
        14           Ga  tau(  14) = (  0.4166667  0.0833333  0.4997208  )
        15           Ga  tau(  15) = (  0.4166667  0.0833333  0.8330541  )
        16           Ga  tau(  16) = (  0.4166667  0.3333333  0.1663874  )
        17           Ga  tau(  17) = (  0.4166667  0.3333333  0.4997208  )
        18           Ga  tau(  18) = (  0.4166667  0.3333333  0.8330541  )
        19           Ga  tau(  19) = (  0.4166667  0.5833333  0.1663874  )
        20           Ga  tau(  20) = (  0.4166667  0.5833333  0.4997208  )
        21           Ga  tau(  21) = (  0.4166667  0.5833333  0.8330541  )
        22           Ga  tau(  22) = (  0.4166667  0.8333333  0.1663874  )
        23           Ga  tau(  23) = (  0.4166667  0.8333333  0.4997208  )
        24           Ga  tau(  24) = (  0.4166667  0.8333333  0.8330541  )
        25           Ga  tau(  25) = (  0.6666667  0.0833333  0.1663874  )
        26           Ga  tau(  26) = (  0.6666667  0.0833333  0.4997208  )
        27           Ga  tau(  27) = (  0.6666667  0.0833333  0.8330541  )
        28           Ga  tau(  28) = (  0.6666667  0.3333333  0.1663874  )
        29           Ga  tau(  29) = (  0.6666667  0.3333333  0.4997208  )
        30           Ga  tau(  30) = (  0.6666667  0.3333333  0.8330541  )
        31           Ga  tau(  31) = (  0.6666667  0.5833333  0.1663874  )
        32           Ga  tau(  32) = (  0.6666667  0.5833333  0.4997208  )
        33           Ga  tau(  33) = (  0.6666667  0.5833333  0.8330541  )
        34           Ga  tau(  34) = (  0.6666667  0.8333333  0.1663874  )
        35           Ga  tau(  35) = (  0.6666667  0.8333333  0.4997208  )
        36           Ga  tau(  36) = (  0.6666667  0.8333333  0.8330541  )
        37           Ga  tau(  37) = (  0.9166667  0.0833333  0.1663874  )
        38           Ga  tau(  38) = (  0.9166667  0.0833333  0.4997208  )
        39           Ga  tau(  39) = (  0.9166667  0.0833333  0.8330541  )
        40           Ga  tau(  40) = (  0.9166667  0.3333333  0.1663874  )
        41           Ga  tau(  41) = (  0.9166667  0.3333333  0.4997208  )
        42           Ga  tau(  42) = (  0.9166667  0.3333333  0.8330541  )
        43           Ga  tau(  43) = (  0.9166667  0.5833333  0.1663874  )
        44           Ga  tau(  44) = (  0.9166667  0.5833333  0.4997208  )
        45           Ga  tau(  45) = (  0.9166667  0.5833333  0.8330541  )
        46           Ga  tau(  46) = (  0.9166667  0.8333333  0.1663874  )
        47           Ga  tau(  47) = (  0.9166667  0.8333333  0.4997208  )
        48           Ga  tau(  48) = (  0.9166667  0.8333333  0.8330541  )
        49           Ga  tau(  49) = (  0.0833333  0.1666668  0.3330541  )
        50           Ga  tau(  50) = (  0.0833333  0.1666668  0.6663874  )
        51           Ga  tau(  51) = (  0.0833333  0.1666668  0.9997208  )
        52           Ga  tau(  52) = (  0.0833333  0.4166668  0.3330541  )
        53           Ga  tau(  53) = (  0.0833333  0.4166668  0.6663874  )
        54           Ga  tau(  54) = (  0.0833333  0.4166668  0.9997208  )
        55           Ga  tau(  55) = (  0.0833333  0.6666668  0.3330541  )
        56           Ga  tau(  56) = (  0.0833333  0.6666668  0.6663874  )
        57           Ga  tau(  57) = (  0.0833333  0.6666668  0.9997208  )
        58           Ga  tau(  58) = (  0.0833333  0.9166668  0.3330541  )
        59           Ga  tau(  59) = (  0.0833333  0.9166668  0.6663874  )
        60           Ga  tau(  60) = (  0.0833333  0.9166668  0.9997208  )
        61           Ga  tau(  61) = (  0.3333332  0.1666668  0.3330541  )
        62           Ga  tau(  62) = (  0.3333332  0.1666668  0.6663874  )
        63           Ga  tau(  63) = (  0.3333332  0.1666668  0.9997208  )
        64           Ga  tau(  64) = (  0.3333332  0.4166668  0.3330541  )
        65           Ga  tau(  65) = (  0.3333332  0.4166668  0.6663874  )
        66           Ga  tau(  66) = (  0.3333332  0.4166668  0.9997208  )
        67           Ga  tau(  67) = (  0.3333332  0.6666668  0.3330541  )
        68           Ga  tau(  68) = (  0.3333332  0.6666668  0.6663874  )
        69           Ga  tau(  69) = (  0.3333332  0.6666668  0.9997208  )
        70           Ga  tau(  70) = (  0.3333332  0.9166668  0.3330541  )
        71           Ga  tau(  71) = (  0.3333332  0.9166668  0.6663874  )
        72           Ga  tau(  72) = (  0.3333332  0.9166668  0.9997208  )
        73           Ga  tau(  73) = (  0.5833332  0.1666668  0.3330541  )
        74           Ga  tau(  74) = (  0.5833332  0.1666668  0.6663874  )
        75           Ga  tau(  75) = (  0.5833332  0.1666668  0.9997208  )
        76           Ga  tau(  76) = (  0.5833332  0.4166668  0.3330541  )
        77           Ga  tau(  77) = (  0.5833332  0.4166668  0.6663874  )
        78           Ga  tau(  78) = (  0.5833332  0.4166668  0.9997208  )
        79           Ga  tau(  79) = (  0.5833332  0.6666668  0.3330541  )
        80           Ga  tau(  80) = (  0.5833332  0.6666668  0.6663874  )
        81           Ga  tau(  81) = (  0.5833332  0.6666668  0.9997208  )
        82           Ga  tau(  82) = (  0.5833332  0.9166668  0.3330541  )
        83           Ga  tau(  83) = (  0.5833332  0.9166668  0.6663874  )
        84           Ga  tau(  84) = (  0.5833332  0.9166668  0.9997208  )
        85           Ga  tau(  85) = (  0.8333332  0.1666668  0.3330541  )
        86           Ga  tau(  86) = (  0.8333332  0.1666668  0.6663874  )
        87           Ga  tau(  87) = (  0.8333332  0.1666668  0.9997208  )
        88           Ga  tau(  88) = (  0.8333332  0.4166668  0.3330541  )
        89           Ga  tau(  89) = (  0.8333332  0.4166668  0.6663874  )
        90           Ga  tau(  90) = (  0.8333332  0.4166668  0.9997208  )
        91           Ga  tau(  91) = (  0.8333332  0.6666668  0.3330541  )
        92           Ga  tau(  92) = (  0.8333332  0.6666668  0.6663874  )
        93           Ga  tau(  93) = (  0.8333332  0.6666668  0.9997208  )
        94           Ga  tau(  94) = (  0.8333332  0.9166668  0.3330541  )
        95           Ga  tau(  95) = (  0.8333332  0.9166668  0.6663874  )
        96           Ga  tau(  96) = (  0.8333332  0.9166668  0.9997208  )
        97           N   tau(  97) = (  0.1666667  0.0833333  0.6252792  )
        98           N   tau(  98) = (  0.1666667  0.0833333  0.9586126  )
        99           N   tau(  99) = (  0.1666667  0.3333333  0.2919459  )
       100           N   tau( 100) = (  0.1666667  0.3333333  0.6252792  )
       101           N   tau( 101) = (  0.1666667  0.3333333  0.9586126  )
       102           N   tau( 102) = (  0.1666667  0.5833333  0.2919459  )
       103           N   tau( 103) = (  0.1666667  0.5833333  0.6252792  )
       104           N   tau( 104) = (  0.1666667  0.5833333  0.9586126  )
       105           N   tau( 105) = (  0.1666667  0.8333333  0.2919459  )
       106           N   tau( 106) = (  0.1666667  0.8333333  0.6252792  )
       107           N   tau( 107) = (  0.1666667  0.8333333  0.9586126  )
       108           N   tau( 108) = (  0.4166667  0.0833333  0.2919459  )
       109           N   tau( 109) = (  0.4166667  0.0833333  0.6252792  )
       110           N   tau( 110) = (  0.4166667  0.0833333  0.9586126  )
       111           N   tau( 111) = (  0.4166667  0.3333333  0.2919459  )
       112           N   tau( 112) = (  0.4166667  0.3333333  0.6252792  )
       113           N   tau( 113) = (  0.4166667  0.3333333  0.9586126  )
       114           N   tau( 114) = (  0.4166667  0.5833333  0.2919459  )
       115           N   tau( 115) = (  0.4166667  0.5833333  0.6252792  )
       116           N   tau( 116) = (  0.4166667  0.5833333  0.9586126  )
       117           N   tau( 117) = (  0.4166667  0.8333333  0.2919459  )
       118           N   tau( 118) = (  0.4166667  0.8333333  0.6252792  )
       119           N   tau( 119) = (  0.4166667  0.8333333  0.9586126  )
       120           N   tau( 120) = (  0.6666667  0.0833333  0.2919459  )
       121           N   tau( 121) = (  0.6666667  0.0833333  0.6252792  )
       122           N   tau( 122) = (  0.6666667  0.0833333  0.9586126  )
       123           N   tau( 123) = (  0.6666667  0.3333333  0.2919459  )
       124           N   tau( 124) = (  0.6666667  0.3333333  0.6252792  )
       125           N   tau( 125) = (  0.6666667  0.3333333  0.9586126  )
       126           N   tau( 126) = (  0.6666667  0.5833333  0.2919459  )
       127           N   tau( 127) = (  0.6666667  0.5833333  0.6252792  )
       128           N   tau( 128) = (  0.6666667  0.5833333  0.9586126  )
       129           N   tau( 129) = (  0.6666667  0.8333333  0.2919459  )
       130           N   tau( 130) = (  0.6666667  0.8333333  0.6252792  )
       131           N   tau( 131) = (  0.6666667  0.8333333  0.9586126  )
       132           N   tau( 132) = (  0.9166667  0.0833333  0.2919459  )
       133           N   tau( 133) = (  0.9166667  0.0833333  0.6252792  )
       134           N   tau( 134) = (  0.9166667  0.0833333  0.9586126  )
       135           N   tau( 135) = (  0.9166667  0.3333333  0.2919459  )
       136           N   tau( 136) = (  0.9166667  0.3333333  0.6252792  )
       137           N   tau( 137) = (  0.9166667  0.3333333  0.9586126  )
       138           N   tau( 138) = (  0.9166667  0.5833333  0.2919459  )
       139           N   tau( 139) = (  0.9166667  0.5833333  0.6252792  )
       140           N   tau( 140) = (  0.9166667  0.5833333  0.9586126  )
       141           N   tau( 141) = (  0.9166667  0.8333333  0.2919459  )
       142           N   tau( 142) = (  0.9166667  0.8333333  0.6252792  )
       143           N   tau( 143) = (  0.9166667  0.8333333  0.9586126  )
       144           N   tau( 144) = (  0.0833333  0.1666668  0.1252792  )
       145           N   tau( 145) = (  0.0833333  0.1666668  0.4586126  )
       146           N   tau( 146) = (  0.0833333  0.1666668  0.7919459  )
       147           N   tau( 147) = (  0.0833333  0.4166668  0.1252792  )
       148           N   tau( 148) = (  0.0833333  0.4166668  0.4586126  )
       149           N   tau( 149) = (  0.0833333  0.4166668  0.7919459  )
       150           N   tau( 150) = (  0.0833333  0.6666668  0.1252792  )
       151           N   tau( 151) = (  0.0833333  0.6666668  0.4586126  )
       152           N   tau( 152) = (  0.0833333  0.6666668  0.7919459  )
       153           N   tau( 153) = (  0.0833333  0.9166668  0.1252792  )
       154           N   tau( 154) = (  0.0833333  0.9166668  0.4586126  )
       155           N   tau( 155) = (  0.0833333  0.9166668  0.7919459  )
       156           N   tau( 156) = (  0.3333332  0.1666668  0.1252792  )
       157           N   tau( 157) = (  0.3333332  0.1666668  0.4586126  )
       158           N   tau( 158) = (  0.3333332  0.1666668  0.7919459  )
       159           N   tau( 159) = (  0.3333332  0.4166668  0.1252792  )
       160           N   tau( 160) = (  0.3333332  0.4166668  0.4586126  )
       161           N   tau( 161) = (  0.3333332  0.4166668  0.7919459  )
       162           N   tau( 162) = (  0.3333332  0.6666668  0.1252792  )
       163           N   tau( 163) = (  0.3333332  0.6666668  0.4586126  )
       164           N   tau( 164) = (  0.3333332  0.6666668  0.7919459  )
       165           N   tau( 165) = (  0.3333332  0.9166668  0.1252792  )
       166           N   tau( 166) = (  0.3333332  0.9166668  0.4586126  )
       167           N   tau( 167) = (  0.3333332  0.9166668  0.7919459  )
       168           N   tau( 168) = (  0.5833332  0.1666668  0.1252792  )
       169           N   tau( 169) = (  0.5833332  0.1666668  0.4586126  )
       170           N   tau( 170) = (  0.5833332  0.1666668  0.7919459  )
       171           N   tau( 171) = (  0.5833332  0.4166668  0.1252792  )
       172           N   tau( 172) = (  0.5833332  0.4166668  0.4586126  )
       173           N   tau( 173) = (  0.5833332  0.4166668  0.7919459  )
       174           N   tau( 174) = (  0.5833332  0.6666668  0.1252792  )
       175           N   tau( 175) = (  0.5833332  0.6666668  0.4586126  )
       176           N   tau( 176) = (  0.5833332  0.6666668  0.7919459  )
       177           N   tau( 177) = (  0.5833332  0.9166668  0.1252792  )
       178           N   tau( 178) = (  0.5833332  0.9166668  0.4586126  )
       179           N   tau( 179) = (  0.5833332  0.9166668  0.7919459  )
       180           N   tau( 180) = (  0.8333332  0.1666668  0.1252792  )
       181           N   tau( 181) = (  0.8333332  0.1666668  0.4586126  )
       182           N   tau( 182) = (  0.8333332  0.1666668  0.7919459  )
       183           N   tau( 183) = (  0.8333332  0.4166668  0.1252792  )
       184           N   tau( 184) = (  0.8333332  0.4166668  0.4586126  )
       185           N   tau( 185) = (  0.8333332  0.4166668  0.7919459  )
       186           N   tau( 186) = (  0.8333332  0.6666668  0.1252792  )
       187           N   tau( 187) = (  0.8333332  0.6666668  0.4586126  )
       188           N   tau( 188) = (  0.8333332  0.6666668  0.7919459  )
       189           N   tau( 189) = (  0.8333332  0.9166668  0.1252792  )
       190           N   tau( 190) = (  0.8333332  0.9166668  0.4586126  )
       191           N   tau( 191) = (  0.8333332  0.9166668  0.7919459  )
       192           Ga  tau( 192) = (  0.1666667  0.0833333  0.2919459  )

     number of k points=     4  Gaussian smearing, width (Ry)=  0.0100
                       cart. coord. in units 2pi/alat
        k(    1) = (   0.0000000   0.0000000   0.0000000), wk =   0.2500000
        k(    2) = (   0.0000000   0.0000000  -0.4090283), wk =   0.2500000
        k(    3) = (   0.0000000  -0.5773503   0.0000000), wk =   0.7500000
        k(    4) = (   0.0000000  -0.5773503  -0.4090283), wk =   0.7500000

                       cryst. coord.
        k(    1) = (   0.0000000   0.0000000   0.0000000), wk =   0.2500000
        k(    2) = (   0.0000000   0.0000000  -0.5000000), wk =   0.2500000
        k(    3) = (   0.0000000  -0.5000000   0.0000000), wk =   0.7500000
        k(    4) = (   0.0000000  -0.5000000  -0.5000000), wk =   0.7500000

     Dense  grid:  1726709 G-vectors     FFT dimensions: ( 160, 160, 180)

     Smooth grid:  1235535 G-vectors     FFT dimensions: ( 144, 144, 160)

     Dynamical RAM for                 wfc:      38.40 MB

     Dynamical RAM for     wfc (w. buffer):     115.21 MB

     Dynamical RAM for           str. fact:       0.82 MB

     Dynamical RAM for           local pot:       0.00 MB

     Dynamical RAM for          nlocal pot:      92.27 MB

     Dynamical RAM for                qrad:       3.00 MB

     Dynamical RAM for          rho,v,vnew:       2.99 MB

     Dynamical RAM for               rhoin:       1.00 MB

     Dynamical RAM for            rho*nmix:       6.59 MB

     Dynamical RAM for           G-vectors:       1.69 MB

     Dynamical RAM for          h,s,v(r/c):     796.76 MB

     Dynamical RAM for          <psi|beta>:      39.88 MB

     Dynamical RAM for                 psi:     153.61 MB

     Dynamical RAM for                hpsi:     153.61 MB

     Dynamical RAM for                spsi:     153.61 MB

     Dynamical RAM for      wfcinit/wfcrot:     101.71 MB

     Dynamical RAM for           addusdens:      58.46 MB

     Dynamical RAM for          addusforce:      98.36 MB

     Dynamical RAM for         addusstress:      41.48 MB

     Estimated static dynamical RAM per process >     221.15 MB

     Estimated max dynamical RAM per process >       1.49 GB

     Estimated total dynamical RAM >     190.24 GB

     Atomic positions and unit cell read from directory:
     ./GaN.save/
     Atomic positions from file used, from input discarded
 

     Check: negative core charge=   -0.000003

     The initial density is read from file :
     ./GaN.save/charge-density



     %%%%%%%%%%%%%%%%%%%%%%%%%%%%%%%%%%%%%%%%%%%%%%%%%%%%%%%%%%%%%%%%%%%%%%%%
     %                                                                      %
     % You are using vdW-DF, which was implemented by the Thonhauser group. %
     % Please cite the following two papers that made this development      %
     % possible and the two reviews that describe the various versions:     %
     %                                                                      %
     %   T. Thonhauser et al., PRL 115, 136402 (2015).                      %
     %   T. Thonhauser et al., PRB 76, 125112 (2007).                       %
     %   K. Berland et al., Rep. Prog. Phys. 78, 066501 (2015).             %
     %   D.C. Langreth et al., J. Phys.: Condens. Matter 21, 084203 (2009). %
     %                                                                      %
     % If you are calculating stress with vdW-DF, please also cite:         %
     %                                                                      %
     %   R. Sabatini et al., J. Phys.: Condens. Matter 24, 424209 (2012).   %
     %                                                                      %
     %%%%%%%%%%%%%%%%%%%%%%%%%%%%%%%%%%%%%%%%%%%%%%%%%%%%%%%%%%%%%%%%%%%%%%%%

     %%%%%%%%%%%%%%%%%%%%%%%%%%%%%%%%%%%%%%%%%%%%%%%%%%%%%%%%%%%%%%%%%%%%%%%%
     %                                                                      %
     %  vdW-DF NEWS:                                                        %
     %                                                                      %
     %  * vdW-DF3 is now available. DOI: 10.1021/acs.jctc.0c00471           %
     %    use with input_dft = 'vdW-DF3-opt1' or 'vdW-DF3-opt2'             %
     %                                                                      %
     %  * Unscreened and range-separated vdW-DF hybrid functionals          %
     %    DOI: 10.1063/1.4986522 and 10.1088/1361-648X/ac2ad2               %
     %    use with input_dft = 'vdW-DF-cx0' (etc) and 'vdW-DF-ahcx'         %
     %                                                                      %
     %%%%%%%%%%%%%%%%%%%%%%%%%%%%%%%%%%%%%%%%%%%%%%%%%%%%%%%%%%%%%%%%%%%%%%%%


     Carrying out vdW-DF run using the following parameters:
     Nqs    =  20  Npoints =  1024  r_max =  100.000
     q_mesh =  0.00001000  0.04494208  0.09755937  0.15916263
               0.23128650  0.31572767  0.41458969  0.53033537
               0.66584808  0.82450364  1.01025438  1.22772762
               1.48234092  1.78043706  2.12944203  2.53805004
               3.01644009  3.57652955  4.23227104  5.00000000


     -----------------------------------------------
     Non-local corr. energy    =      52.68149889 Ry
     -----------------------------------------------

     Starting wfcs from file
     Checking if some PAW data can be deallocated... 
       PAW data deallocated on   79 nodes for type:  1
       PAW data deallocated on   49 nodes for type:  2

     total cpu time spent up to now is       19.5 secs

     Self-consistent Calculation

     iteration #  1     ecut=    70.00 Ry     beta= 0.70
     Davidson diagonalization with overlap

---- Real-time Memory Report at c_bands before calling an iterative solver
           379 MiB given to the printing process from OS
             0 MiB allocation reported by mallinfo(arena+hblkhd)
       2012207 MiB available memory on the node where the printing process lives
------------------
     ethr =  1.00E-05,  avg # of iterations =  1.0

     Threshold (ethr) on eigenvalues was too large:
     Diagonalizing with lowered threshold

     Davidson diagonalization with overlap

---- Real-time Memory Report at c_bands before calling an iterative solver
          1128 MiB given to the printing process from OS
             0 MiB allocation reported by mallinfo(arena+hblkhd)
       2001555 MiB available memory on the node where the printing process lives
------------------
     ethr =  1.13E-13,  avg # of iterations = 16.3


     -----------------------------------------------
     Non-local corr. energy    =      52.68149887 Ry
     -----------------------------------------------


     total cpu time spent up to now is      775.3 secs

     End of self-consistent calculation

          k = 0.0000 0.0000 0.0000 (154543 PWs)   bands (ev):

    -6.8578  -6.6424  -6.6138  -6.5626  -6.5626  -6.5604  -6.5491  -6.5491
    -6.5057  -6.4505  -6.4479  -6.4472  -6.4471  -6.4306  -6.4306  -6.4271
    -6.4271  -6.4254  -6.4215  -6.4198  -6.4198  -6.4083  -6.4065  -6.4065
    -6.4057  -6.3989  -6.3980  -6.3980  -6.3869  -6.3841  -6.3841  -6.3821
    -6.3808  -6.3807  -6.3807  -6.3764  -6.3764  -6.3643  -6.3643  -6.3607
    -6.3556  -6.3538  -6.3538  -6.3525  -6.3506  -6.3506  -6.3445  -6.3444
    -6.3439  -6.3348  -6.3348  -6.3342  -6.3255  -6.3255  -6.3237  -6.3222
    -6.3199  -6.3199  -6.3126  -6.3125  -6.3000  -6.2956  -6.2956  -6.2932
    -6.2839  -6.2839  -6.2828  -6.2722  -6.2698  -6.2698  -6.2626  -6.2626
    -6.2571  -6.2437  -6.2437  -6.2430  -6.2403  -6.2361  -6.2339  -6.2339
    -6.2189  -6.2189  -6.2133  -6.2052  -6.1850  -6.1850  -6.1622  -6.1263
    -6.1263  -6.1225  -6.0991  -6.0991  -6.0665  -6.0648  -6.0648  -5.2968
    -5.2968  -5.2751  -5.2751  -5.2736  -5.2734  -5.2690  -5.2690  -5.2680
    -5.2676  -5.2676  -5.2667  -5.2553  -5.2553  -5.2547  -5.2503  -5.2503
    -5.2487  -5.2454  -5.2454  -5.2418  -5.2417  -5.2413  -5.2401  -5.2401
    -5.2397  -5.2397  -5.2387  -5.2322  -5.2322  -5.2320  -5.2273  -5.2252
    -5.2252  -5.2200  -5.2195  -5.2195  -5.2161  -5.2159  -5.2159  -5.2121
    -5.2121  -5.2083  -5.2082  -5.2064  -5.2064  -5.2064  -5.2021  -5.2021
    -5.2002  -5.2001  -5.2001  -5.2000  -5.2000  -5.1997  -5.1974  -5.1938
    -5.1938  -5.1904  -5.1904  -5.1903  -5.1887  -5.1886  -5.1828  -5.1828
    -5.1824  -5.1816  -5.1816  -5.1807  -5.1807  -5.1799  -5.1775  -5.1770
    -5.1770  -5.1764  -5.1753  -5.1753  -5.1739  -5.1714  -5.1714  -5.1706
    -5.1674  -5.1674  -5.1647  -5.1618  -5.1610  -5.1610  -5.1601  -5.1578
    -5.1578  -5.1573  -5.1573  -5.1573  -5.1551  -5.1506  -5.1506  -5.1485
    -5.1456  -5.1456  -5.1451  -5.1451  -5.1430  -5.1426  -5.1426  -5.1425
    -5.1405  -5.1401  -5.1401  -5.1368  -5.1355  -5.1355  -5.1351  -5.1348
    -5.1348  -5.1331  -5.1331  -5.1310  -5.1297  -5.1286  -5.1286  -5.1263
    -5.1260  -5.1260  -5.1241  -5.1241  -5.1233  -5.1206  -5.1195  -5.1195
    -5.1172  -5.1172  -5.1164  -5.1162  -5.1162  -5.1162  -5.1132  -5.1125
    -5.1112  -5.1112  -5.1099  -5.1099  -5.1093  -5.1093  -5.1090  -5.1056
    -5.1056  -5.1028  -5.1028  -5.1027  -5.1023  -5.1023  -5.1010  -5.1001
    -5.0986  -5.0986  -5.0981  -5.0961  -5.0961  -5.0958  -5.0953  -5.0953
    -5.0943  -5.0943  -5.0897  -5.0897  -5.0895  -5.0888  -5.0879  -5.0875
    -5.0875  -5.0875  -5.0866  -5.0866  -5.0831  -5.0828  -5.0825  -5.0825
    -5.0810  -5.0810  -5.0790  -5.0783  -5.0778  -5.0778  -5.0769  -5.0769
    -5.0724  -5.0724  -5.0694  -5.0687  -5.0687  -5.0676  -5.0676  -5.0676
    -5.0675  -5.0663  -5.0663  -5.0639  -5.0639  -5.0633  -5.0614  -5.0614
    -5.0613  -5.0609  -5.0581  -5.0581  -5.0568  -5.0565  -5.0565  -5.0565
    -5.0526  -5.0526  -5.0523  -5.0495  -5.0495  -5.0493  -5.0479  -5.0469
    -5.0457  -5.0457  -5.0447  -5.0447  -5.0442  -5.0442  -5.0430  -5.0411
    -5.0411  -5.0404  -5.0387  -5.0387  -5.0372  -5.0368  -5.0359  -5.0359
    -5.0359  -5.0342  -5.0342  -5.0320  -5.0320  -5.0312  -5.0272  -5.0272
    -5.0268  -5.0259  -5.0257  -5.0256  -5.0250  -5.0238  -5.0238  -5.0220
    -5.0220  -5.0213  -5.0213  -5.0204  -5.0204  -5.0200  -5.0153  -5.0143
    -5.0143  -5.0115  -5.0115  -5.0114  -5.0112  -5.0112  -5.0093  -5.0068
    -5.0068  -5.0053  -5.0050  -5.0050  -5.0047  -5.0024  -5.0024  -5.0011
    -5.0007  -5.0007  -4.9994  -4.9941  -4.9937  -4.9935  -4.9935  -4.9934
    -4.9934  -4.9920  -4.9919  -4.9919  -4.9898  -4.9892  -4.9892  -4.9859
    -4.9837  -4.9837  -4.9827  -4.9827  -4.9765  -4.9765  -4.9750  -4.9744
    -4.9722  -4.9722  -4.9716  -4.9697  -4.9697  -4.9678  -4.9664  -4.9643
    -4.9643  -4.9613  -4.9590  -4.9590  -4.9551  -4.9551  -4.9549  -4.9491
    -4.9491  -4.9480  -4.9475  -4.9475  -4.9448  -4.9407  -4.9407  -4.9404
    -4.9372  -4.9372  -4.9363  -4.9319  -4.9302  -4.9302  -4.9275  -4.9275
    -4.9243  -4.9233  -4.9176  -4.9176  -4.9166  -4.9106  -4.9106  -4.9085
    -4.9085  -4.9080  -4.9061  -4.9061  -4.9055  -4.8962  -4.8962  -4.8960
    -4.8933  -4.8932  -4.8920  -4.8907  -4.8907  -4.8802  -4.8802  -4.8786
    -4.8759  -4.8744  -4.8744  -4.8664  -4.8664  -4.8545  -4.8538  -4.8511
    -4.8511  -4.8446  -4.8446  -4.8368  -4.8366  -4.8365  -4.8249  -4.8200
    -4.8173  -4.8173  -4.8022  -4.8021  -4.7814  -4.6148  -4.6148  -4.6114
    -4.6114  -4.6007  -4.5858  -4.5858  -4.5809  -4.5655  -4.5655  -4.5616
    -4.5308  -4.5039  -4.4770  -4.4769  -4.4673  -4.4673  -4.4580  -4.4167
    -4.4040  -4.4040  -4.3293  -4.3293  -4.3106  -4.3097  -4.3097  -4.2855
    -4.2855  -4.2611  -4.2559  -4.2544  -4.2544  -4.2150  -4.1366  -3.7696
    -3.7635  -3.7542  -3.7542  -3.7537  -3.7537  -3.7415  -3.7414  -3.7406
    -3.7362  -3.7362  -3.7295  -3.7072  -3.7072  -3.6795  -3.6795  -3.6250
    -3.5915  -3.5896  -3.5896  -3.5841  -3.5602  -3.5602  -3.5468  -3.5468
    -3.5377  -3.5236  -3.5082  -3.5082  -3.4812  -3.4777  -3.4777  -3.4770
    -3.4489  -3.4489  -3.4484  -3.4012  -3.3687  -3.3687  -3.2289  -3.1786
    -3.1786  -3.1712  -3.1682  -3.1681  -3.1525  -3.1332  -3.1324  -3.1324
    -3.1150  -3.1136  -3.1136  -3.0921  -3.0921  -3.0776  -3.0775  -3.0690
    -3.0660  -3.0660  -3.0236  -3.0236  -3.0185  -3.0023  -2.9854  -2.9854
    -2.9702  -2.8914  -2.8914  -2.8874  -2.8874  -2.8767  -2.8117  -2.7415
    -2.7415  -2.7139  -2.7034  -2.7034   2.1040   2.2624   2.3217   2.3256
     2.3256   2.3293   2.3364   2.3365   2.6210   2.6211   2.6548   2.7768
     2.7788   2.7788   2.8239   2.8239   2.8555   2.8608   2.8609   2.8824
     2.8825   2.8860   2.8967   2.8979   2.8979   2.9125   2.9133   2.9133
     2.9324   2.9324   2.9347   2.9568   3.0183   3.0183   3.0521   3.2045
     3.2124   3.2125   3.2793   3.2793   3.3376   3.3499   3.3499   3.3635
     3.3635   3.3880   3.4118   3.4118   3.4201   3.4773   3.4840   3.5149
     3.5149   3.5932   3.6129   3.6180   3.6251   3.6251   3.6305   3.6305
     3.6310   3.6453   3.6750   3.6750   3.6949   3.6950   3.7714   3.7715
     3.8385   3.8720   3.8721   3.9268   3.9876   4.0159   4.0159   4.4043
     4.8341   4.8342   4.8531   4.9153   4.9342   4.9343   4.9377   4.9437
     4.9438   4.9565   4.9565   4.9647   4.9723   4.9727   4.9727   4.9904
     4.9904   4.9909   5.0074   5.0074   5.0173   5.0173   5.0174   5.0208
     5.0373   5.0373   5.0455   5.0579   5.0579   5.1337   5.1337   5.1753
     5.1888   5.1898   5.1898   5.2207   5.2338   5.2455   5.2455   5.3260
     5.3279   5.3279   5.4842   5.4842   5.6191   5.9158   5.9249   5.9249
     5.9522   5.9522   5.9658   5.9691   5.9751   5.9751   5.9904   5.9904
     6.0298   6.0299   6.0377   6.0620   6.0620   6.0852   6.1156   6.1303
     6.1303   6.1316   6.1450   6.1502   6.1571   6.1571   6.1742   6.1743
     6.1796   6.1847   6.1847   6.2023   6.2023   6.2157   6.2227   6.2227
     6.2685   6.3363   6.3363   6.4095   6.4226   6.4524   6.4524   6.4576
     6.4576   6.4593   6.5198   6.5198   6.5204   6.5377   6.5485   6.5485
     6.5757   6.5843   6.5844   6.6529   6.6816   6.6817   6.6834   6.8005
     6.8006   6.8158   6.8346   6.8424   6.8632   6.8632   6.8927   6.9236
     6.9236   6.9445   6.9445   6.9446   6.9992   6.9993   7.0329   7.0534
     7.0534   7.0626   7.0626   7.1778   7.2157   7.2400   7.2401   7.2495
     7.2573   7.2678   7.2679   7.2840   7.3184   7.3184   7.3217   7.3286
     7.3342   7.3343   7.3505   7.3505   7.3520   7.3520   7.3650   7.4125
     7.4125   7.4169   7.4599   7.5031   7.5031   7.5070   7.5070   7.5180
     7.5373   7.5374   7.5674   7.5794   7.5806   7.5807   7.6008   7.6008
     7.6342   7.6471   7.6610   7.6610   7.6659   7.6659   7.6776   7.6952
     7.6952   7.8159   7.8160   7.8279   7.8279   7.8402   7.8837   7.8954
     7.8955   7.9306   7.9416   7.9575   7.9575   7.9703   7.9704   7.9795
     7.9831   7.9831   8.0291   8.0590   8.0591   8.0908   8.0909   8.1085
     8.1205   8.1443   8.1443   8.1895   8.1895   8.2987   8.2988   8.3384
     8.3813   8.3813   8.4208   8.5292   8.5293   8.5877   8.5878   8.7504
     8.7979   8.7980  10.4022  10.4193  10.7270  10.7271  12.1131  12.1174
    12.6818  12.7449  12.7791  12.7791  12.7926  12.8149  12.8149  12.8195
    12.8347  12.8886  12.8887  12.9020  12.9049  12.9049  13.0037  13.1203
    13.1506  13.1506  13.1659  13.1713  13.1714  13.1889  13.1889  13.2129
    13.2129  13.2846  13.4377  13.7158  13.7158  13.7343  13.7357  13.7357
    13.7623  13.8897  13.8978  13.8979  14.0681  14.0681  14.0956  14.2829
    14.3306  14.3306  14.3606  14.3606  14.3664  14.3705  14.3705  14.3846
    14.3846  14.3879  14.3883  14.3979  14.3979  14.4097  14.4097  14.4251
    14.4275  14.4275  14.4343  14.4669  14.4669  14.4685  14.5100  14.5101
    14.5317  14.5653  14.6700  14.6700  14.7226  14.7429  14.7429  14.7638
    14.7883  14.7883  14.8043  14.8141  14.8141  14.8253  14.8495  14.8495
    14.8879  14.9032  14.9032  14.9463  14.9463  14.9530  14.9859  14.9859
    15.0082  15.0082  15.0292  15.0662  15.2045  15.2045  15.2438  15.5834
    15.8149  15.9006  15.9007  15.9297  15.9297  15.9452  15.9605  15.9742
    15.9742  16.0177  16.0203  16.0203  16.0259  16.0259  16.0441  16.1026
    16.1026  16.1457  16.1457  16.1497  16.1601  16.1943  16.2030  16.2030
    16.2131  16.2131  16.2344  16.2868  16.2920  16.2920  16.3784  16.3972
    16.3972  16.4210  16.4210  16.4384  16.4599  16.4661  16.4661  16.4720
    16.4808  16.4808  16.4923  16.4948  16.4948  16.4956  16.4975  16.5187
    16.5187  16.5251  16.5251  16.5411  16.5411  16.5665  16.5666  16.5713
    16.5885  16.5948  16.5988  16.6068  16.6068  16.6177  16.6177  16.6512
    16.6512  16.6674  16.6674  16.6890  16.6890  16.7137  16.7166  16.7577
    16.7875  16.7972  16.7972

     occupation numbers 
     1.0000   1.0000   1.0000   1.0000   1.0000   1.0000   1.0000   1.0000
     1.0000   1.0000   1.0000   1.0000   1.0000   1.0000   1.0000   1.0000
     1.0000   1.0000   1.0000   1.0000   1.0000   1.0000   1.0000   1.0000
     1.0000   1.0000   1.0000   1.0000   1.0000   1.0000   1.0000   1.0000
     1.0000   1.0000   1.0000   1.0000   1.0000   1.0000   1.0000   1.0000
     1.0000   1.0000   1.0000   1.0000   1.0000   1.0000   1.0000   1.0000
     1.0000   1.0000   1.0000   1.0000   1.0000   1.0000   1.0000   1.0000
     1.0000   1.0000   1.0000   1.0000   1.0000   1.0000   1.0000   1.0000
     1.0000   1.0000   1.0000   1.0000   1.0000   1.0000   1.0000   1.0000
     1.0000   1.0000   1.0000   1.0000   1.0000   1.0000   1.0000   1.0000
     1.0000   1.0000   1.0000   1.0000   1.0000   1.0000   1.0000   1.0000
     1.0000   1.0000   1.0000   1.0000   1.0000   1.0000   1.0000   1.0000
     1.0000   1.0000   1.0000   1.0000   1.0000   1.0000   1.0000   1.0000
     1.0000   1.0000   1.0000   1.0000   1.0000   1.0000   1.0000   1.0000
     1.0000   1.0000   1.0000   1.0000   1.0000   1.0000   1.0000   1.0000
     1.0000   1.0000   1.0000   1.0000   1.0000   1.0000   1.0000   1.0000
     1.0000   1.0000   1.0000   1.0000   1.0000   1.0000   1.0000   1.0000
     1.0000   1.0000   1.0000   1.0000   1.0000   1.0000   1.0000   1.0000
     1.0000   1.0000   1.0000   1.0000   1.0000   1.0000   1.0000   1.0000
     1.0000   1.0000   1.0000   1.0000   1.0000   1.0000   1.0000   1.0000
     1.0000   1.0000   1.0000   1.0000   1.0000   1.0000   1.0000   1.0000
     1.0000   1.0000   1.0000   1.0000   1.0000   1.0000   1.0000   1.0000
     1.0000   1.0000   1.0000   1.0000   1.0000   1.0000   1.0000   1.0000
     1.0000   1.0000   1.0000   1.0000   1.0000   1.0000   1.0000   1.0000
     1.0000   1.0000   1.0000   1.0000   1.0000   1.0000   1.0000   1.0000
     1.0000   1.0000   1.0000   1.0000   1.0000   1.0000   1.0000   1.0000
     1.0000   1.0000   1.0000   1.0000   1.0000   1.0000   1.0000   1.0000
     1.0000   1.0000   1.0000   1.0000   1.0000   1.0000   1.0000   1.0000
     1.0000   1.0000   1.0000   1.0000   1.0000   1.0000   1.0000   1.0000
     1.0000   1.0000   1.0000   1.0000   1.0000   1.0000   1.0000   1.0000
     1.0000   1.0000   1.0000   1.0000   1.0000   1.0000   1.0000   1.0000
     1.0000   1.0000   1.0000   1.0000   1.0000   1.0000   1.0000   1.0000
     1.0000   1.0000   1.0000   1.0000   1.0000   1.0000   1.0000   1.0000
     1.0000   1.0000   1.0000   1.0000   1.0000   1.0000   1.0000   1.0000
     1.0000   1.0000   1.0000   1.0000   1.0000   1.0000   1.0000   1.0000
     1.0000   1.0000   1.0000   1.0000   1.0000   1.0000   1.0000   1.0000
     1.0000   1.0000   1.0000   1.0000   1.0000   1.0000   1.0000   1.0000
     1.0000   1.0000   1.0000   1.0000   1.0000   1.0000   1.0000   1.0000
     1.0000   1.0000   1.0000   1.0000   1.0000   1.0000   1.0000   1.0000
     1.0000   1.0000   1.0000   1.0000   1.0000   1.0000   1.0000   1.0000
     1.0000   1.0000   1.0000   1.0000   1.0000   1.0000   1.0000   1.0000
     1.0000   1.0000   1.0000   1.0000   1.0000   1.0000   1.0000   1.0000
     1.0000   1.0000   1.0000   1.0000   1.0000   1.0000   1.0000   1.0000
     1.0000   1.0000   1.0000   1.0000   1.0000   1.0000   1.0000   1.0000
     1.0000   1.0000   1.0000   1.0000   1.0000   1.0000   1.0000   1.0000
     1.0000   1.0000   1.0000   1.0000   1.0000   1.0000   1.0000   1.0000
     1.0000   1.0000   1.0000   1.0000   1.0000   1.0000   1.0000   1.0000
     1.0000   1.0000   1.0000   1.0000   1.0000   1.0000   1.0000   1.0000
     1.0000   1.0000   1.0000   1.0000   1.0000   1.0000   1.0000   1.0000
     1.0000   1.0000   1.0000   1.0000   1.0000   1.0000   1.0000   1.0000
     1.0000   1.0000   1.0000   1.0000   1.0000   1.0000   1.0000   1.0000
     1.0000   1.0000   1.0000   1.0000   1.0000   1.0000   1.0000   1.0000
     1.0000   1.0000   1.0000   1.0000   1.0000   1.0000   1.0000   1.0000
     1.0000   1.0000   1.0000   1.0000   1.0000   1.0000   1.0000   1.0000
     1.0000   1.0000   1.0000   1.0000   1.0000   1.0000   1.0000   1.0000
     1.0000   1.0000   1.0000   1.0000   1.0000   1.0000   1.0000   1.0000
     1.0000   1.0000   1.0000   1.0000   1.0000   1.0000   1.0000   1.0000
     1.0000   1.0000   1.0000   1.0000   1.0000   1.0000   1.0000   1.0000
     1.0000   1.0000   1.0000   1.0000   1.0000   1.0000   1.0000   1.0000
     1.0000   1.0000   1.0000   1.0000   1.0000   1.0000   1.0000   1.0000
     1.0000   1.0000   1.0000   1.0000   1.0000   1.0000   1.0000   1.0000
     1.0000   1.0000   1.0000   1.0000   1.0000   1.0000   1.0000   1.0000
     1.0000   1.0000   1.0000   1.0000   1.0000   1.0000   1.0000   1.0000
     1.0000   1.0000   1.0000   1.0000   1.0000   1.0000   1.0000   1.0000
     1.0000   1.0000   1.0000   1.0000   1.0000   1.0000   1.0000   1.0000
     1.0000   1.0000   1.0000   1.0000   1.0000   1.0000   1.0000   1.0000
     1.0000   1.0000   1.0000   1.0000   1.0000   1.0000   1.0000   1.0000
     1.0000   1.0000   1.0000   1.0000   1.0000   1.0000   1.0000   1.0000
     1.0000   1.0000   1.0000   1.0000   1.0000   1.0000   1.0000   1.0000
     1.0000   1.0000   1.0000   1.0000   1.0000   1.0000   1.0000   1.0000
     1.0000   1.0000   1.0000   1.0000   1.0000   1.0000   1.0000   1.0000
     1.0000   1.0000   1.0000   1.0000   1.0000   1.0000   1.0000   1.0000
     1.0000   1.0000   1.0000   1.0000   1.0000   1.0000   1.0000   1.0000
     1.0000   1.0000   1.0000   1.0000   1.0000   1.0000   1.0000   1.0000
     1.0000   1.0000   1.0000   1.0000   1.0000   1.0000   1.0000   1.0000
     1.0000   1.0000   1.0000   1.0000   1.0000   1.0000   1.0000   1.0000
     1.0000   1.0000   1.0000   1.0000   1.0000   1.0000   1.0000   1.0000
     1.0000   1.0000   1.0000   1.0000   1.0000   1.0000   1.0000   1.0000
     1.0000   1.0000   1.0000   1.0000   1.0000   1.0000   1.0000   1.0000
     1.0000   1.0000   1.0000   1.0000   1.0000   1.0000   1.0000   1.0000
     1.0000   1.0000   1.0000   1.0000   1.0000   1.0000   1.0000   1.0000
     1.0000   1.0000   1.0000   1.0000   1.0000   1.0000   1.0000   1.0000
     1.0000   1.0000   1.0000   1.0000   1.0000   1.0000   1.0000   1.0000
     1.0000   1.0000   1.0000   1.0000   1.0000   1.0000   1.0000   1.0000
     1.0000   1.0000   1.0000   1.0000   1.0000   1.0000   1.0000   1.0000
     1.0000   1.0000   1.0000   1.0000   1.0000   1.0000   1.0000   1.0000
     1.0000   1.0000   1.0000   1.0000   1.0000   1.0000   1.0000   1.0000
     1.0000   1.0000   1.0000   1.0000   1.0000   1.0000   1.0000   1.0000
     1.0000   1.0000   1.0000   1.0000   1.0000   1.0000   1.0000   1.0000
     1.0000   1.0000   1.0000   1.0000   1.0000   1.0000   1.0000   1.0000
     1.0000   1.0000   1.0000   1.0000   1.0000   1.0000   1.0000   1.0000
     1.0000   1.0000   1.0000   1.0000   1.0000   1.0000   1.0000   1.0000
     1.0000   1.0000   1.0000   1.0000   1.0000   1.0000   1.0000   1.0000
     1.0000   1.0000   1.0000   1.0000   1.0000   1.0000   1.0000   1.0000
     1.0000   1.0000   1.0000   1.0000   1.0000   1.0000   1.0000   1.0000
     1.0000   1.0000   1.0000   1.0000   1.0000   1.0000   1.0000   1.0000
     1.0000   1.0000   1.0000   1.0000   1.0000   1.0000   1.0000   1.0000
     1.0000   1.0000   1.0000   1.0000   1.0000   1.0000   1.0000   1.0000
     1.0000   1.0000   1.0000   1.0000   1.0000   1.0000   1.0000   1.0000
     1.0000   1.0000   1.0000   1.0000   1.0000   1.0000   1.0000   1.0000
     1.0000   1.0000   1.0000   1.0000   1.0000   1.0000   1.0000   1.0000
     1.0000   1.0000   1.0000   1.0000   1.0000   1.0000   1.0000   1.0000
     1.0000   1.0000   1.0000   1.0000   1.0000   1.0000   1.0000   1.0000
     1.0000   1.0000   1.0000   1.0000   1.0000   1.0000   1.0000   1.0000
     1.0000   1.0000   1.0000   1.0000   1.0000   1.0000   1.0000   1.0000
     1.0000   1.0000   1.0000   1.0000   1.0000   1.0000   1.0000   1.0000
     1.0000   1.0000   1.0000   1.0000   1.0000   1.0000   1.0000   1.0000
     1.0000   1.0000   1.0000   1.0000   1.0000   1.0000   1.0000   1.0000
     1.0000   1.0000   1.0000   1.0000   0.8286   0.8282   0.0000   0.0000
     0.0000   0.0000   0.0000   0.0000   0.0000   0.0000   0.0000   0.0000
     0.0000   0.0000   0.0000   0.0000   0.0000   0.0000   0.0000   0.0000
     0.0000   0.0000   0.0000   0.0000   0.0000   0.0000   0.0000   0.0000
     0.0000   0.0000   0.0000   0.0000   0.0000   0.0000   0.0000   0.0000
     0.0000   0.0000   0.0000   0.0000   0.0000   0.0000   0.0000   0.0000
     0.0000   0.0000   0.0000   0.0000   0.0000   0.0000   0.0000   0.0000
     0.0000   0.0000   0.0000   0.0000   0.0000   0.0000   0.0000   0.0000
     0.0000   0.0000   0.0000   0.0000   0.0000   0.0000   0.0000   0.0000
     0.0000   0.0000   0.0000   0.0000   0.0000   0.0000   0.0000   0.0000
     0.0000   0.0000   0.0000   0.0000   0.0000   0.0000   0.0000   0.0000
     0.0000   0.0000   0.0000   0.0000   0.0000   0.0000   0.0000   0.0000
     0.0000   0.0000   0.0000   0.0000   0.0000   0.0000   0.0000   0.0000
     0.0000   0.0000   0.0000   0.0000   0.0000   0.0000   0.0000   0.0000
     0.0000   0.0000   0.0000   0.0000   0.0000   0.0000   0.0000   0.0000
     0.0000   0.0000   0.0000   0.0000   0.0000   0.0000   0.0000   0.0000
     0.0000   0.0000   0.0000   0.0000   0.0000   0.0000   0.0000   0.0000
     0.0000   0.0000   0.0000   0.0000   0.0000   0.0000   0.0000   0.0000
     0.0000   0.0000   0.0000   0.0000   0.0000   0.0000   0.0000   0.0000
     0.0000   0.0000   0.0000   0.0000   0.0000   0.0000   0.0000   0.0000
     0.0000   0.0000   0.0000   0.0000   0.0000   0.0000   0.0000   0.0000
     0.0000   0.0000   0.0000   0.0000   0.0000   0.0000   0.0000   0.0000
     0.0000   0.0000   0.0000

          k = 0.0000 0.0000-0.4090 (154532 PWs)   bands (ev):

    -6.8330  -6.7337  -6.5526  -6.5526  -6.5505  -6.5433  -6.5433  -6.5037
    -6.4999  -6.4946  -6.4815  -6.4815  -6.4793  -6.4474  -6.4473  -6.4232
    -6.4190  -6.4190  -6.4171  -6.4071  -6.4071  -6.4053  -6.4023  -6.4002
    -6.4002  -6.3993  -6.3932  -6.3932  -6.3865  -6.3834  -6.3834  -6.3825
    -6.3789  -6.3789  -6.3787  -6.3765  -6.3764  -6.3638  -6.3638  -6.3600
    -6.3572  -6.3551  -6.3551  -6.3522  -6.3469  -6.3469  -6.3442  -6.3442
    -6.3414  -6.3369  -6.3369  -6.3368  -6.3262  -6.3262  -6.3237  -6.3213
    -6.3199  -6.3199  -6.3129  -6.3128  -6.2991  -6.2950  -6.2950  -6.2928
    -6.2842  -6.2842  -6.2828  -6.2724  -6.2699  -6.2699  -6.2627  -6.2627
    -6.2571  -6.2439  -6.2439  -6.2427  -6.2391  -6.2375  -6.2335  -6.2334
    -6.2188  -6.2188  -6.2174  -6.1996  -6.1856  -6.1856  -6.1632  -6.1254
    -6.1254  -6.1229  -6.0989  -6.0988  -6.0664  -6.0652  -6.0652  -5.2968
    -5.2968  -5.2750  -5.2750  -5.2727  -5.2723  -5.2686  -5.2686  -5.2673
    -5.2673  -5.2672  -5.2639  -5.2553  -5.2553  -5.2535  -5.2503  -5.2503
    -5.2486  -5.2453  -5.2453  -5.2415  -5.2415  -5.2400  -5.2397  -5.2397
    -5.2395  -5.2395  -5.2375  -5.2322  -5.2322  -5.2300  -5.2272  -5.2249
    -5.2248  -5.2201  -5.2197  -5.2194  -5.2194  -5.2174  -5.2174  -5.2136
    -5.2136  -5.2091  -5.2084  -5.2073  -5.2073  -5.2063  -5.2059  -5.2033
    -5.2033  -5.2008  -5.2008  -5.2001  -5.2001  -5.1994  -5.1992  -5.1938
    -5.1937  -5.1917  -5.1904  -5.1902  -5.1902  -5.1894  -5.1894  -5.1846
    -5.1846  -5.1846  -5.1831  -5.1821  -5.1821  -5.1809  -5.1809  -5.1770
    -5.1770  -5.1768  -5.1765  -5.1765  -5.1758  -5.1710  -5.1710  -5.1677
    -5.1677  -5.1637  -5.1635  -5.1603  -5.1585  -5.1585  -5.1578  -5.1560
    -5.1560  -5.1546  -5.1546  -5.1540  -5.1529  -5.1529  -5.1510  -5.1510
    -5.1481  -5.1481  -5.1464  -5.1434  -5.1432  -5.1431  -5.1431  -5.1419
    -5.1419  -5.1369  -5.1369  -5.1369  -5.1360  -5.1360  -5.1358  -5.1339
    -5.1319  -5.1319  -5.1302  -5.1301  -5.1292  -5.1287  -5.1287  -5.1286
    -5.1266  -5.1266  -5.1266  -5.1240  -5.1240  -5.1220  -5.1220  -5.1220
    -5.1206  -5.1173  -5.1173  -5.1159  -5.1145  -5.1145  -5.1138  -5.1120
    -5.1112  -5.1106  -5.1106  -5.1096  -5.1096  -5.1074  -5.1074  -5.1063
    -5.1055  -5.1055  -5.1055  -5.1031  -5.1031  -5.1021  -5.1021  -5.1009
    -5.1005  -5.1005  -5.0996  -5.0975  -5.0975  -5.0967  -5.0954  -5.0951
    -5.0951  -5.0927  -5.0927  -5.0909  -5.0909  -5.0902  -5.0896  -5.0874
    -5.0874  -5.0861  -5.0861  -5.0846  -5.0843  -5.0841  -5.0834  -5.0834
    -5.0823  -5.0823  -5.0818  -5.0816  -5.0789  -5.0789  -5.0775  -5.0775
    -5.0739  -5.0739  -5.0724  -5.0716  -5.0716  -5.0694  -5.0694  -5.0693
    -5.0691  -5.0671  -5.0671  -5.0638  -5.0638  -5.0629  -5.0618  -5.0618
    -5.0615  -5.0603  -5.0603  -5.0583  -5.0570  -5.0546  -5.0541  -5.0541
    -5.0522  -5.0517  -5.0517  -5.0510  -5.0510  -5.0486  -5.0482  -5.0482
    -5.0476  -5.0475  -5.0459  -5.0455  -5.0455  -5.0447  -5.0425  -5.0425
    -5.0411  -5.0411  -5.0397  -5.0397  -5.0375  -5.0355  -5.0355  -5.0351
    -5.0341  -5.0341  -5.0306  -5.0302  -5.0302  -5.0294  -5.0294  -5.0260
    -5.0260  -5.0259  -5.0237  -5.0235  -5.0235  -5.0225  -5.0224  -5.0224
    -5.0206  -5.0199  -5.0186  -5.0186  -5.0168  -5.0168  -5.0131  -5.0127
    -5.0127  -5.0121  -5.0121  -5.0114  -5.0094  -5.0094  -5.0084  -5.0084
    -5.0080  -5.0048  -5.0048  -5.0046  -5.0039  -5.0003  -5.0003  -4.9990
    -4.9990  -4.9983  -4.9968  -4.9959  -4.9959  -4.9953  -4.9925  -4.9925
    -4.9918  -4.9918  -4.9911  -4.9893  -4.9889  -4.9879  -4.9879  -4.9847
    -4.9847  -4.9835  -4.9835  -4.9772  -4.9772  -4.9752  -4.9748  -4.9731
    -4.9723  -4.9723  -4.9712  -4.9712  -4.9671  -4.9662  -4.9636  -4.9636
    -4.9618  -4.9593  -4.9593  -4.9552  -4.9550  -4.9549  -4.9493  -4.9486
    -4.9486  -4.9463  -4.9463  -4.9446  -4.9414  -4.9408  -4.9408  -4.9381
    -4.9373  -4.9373  -4.9320  -4.9301  -4.9301  -4.9270  -4.9270  -4.9244
    -4.9238  -4.9178  -4.9178  -4.9166  -4.9094  -4.9094  -4.9091  -4.9091
    -4.9080  -4.9065  -4.9054  -4.9054  -4.8968  -4.8968  -4.8957  -4.8932
    -4.8932  -4.8917  -4.8906  -4.8906  -4.8800  -4.8800  -4.8788  -4.8758
    -4.8742  -4.8742  -4.8668  -4.8668  -4.8546  -4.8538  -4.8505  -4.8505
    -4.8442  -4.8442  -4.8368  -4.8366  -4.8366  -4.8200  -4.7968  -4.7871
    -4.7871  -4.7776  -4.7741  -4.7741  -4.7594  -4.7558  -4.7368  -4.7368
    -4.7275  -4.7221  -4.7221  -4.6186  -4.5254  -4.5254  -4.5190  -4.4931
    -4.4931  -4.4760  -4.4760  -4.4696  -4.4580  -4.4227  -4.4227  -4.3778
    -4.3217  -4.3216  -4.3060  -4.2899  -4.2899  -4.2611  -4.2570  -4.2570
    -4.2347  -4.2229  -4.2128  -4.2128  -4.1870  -4.1869  -4.1578  -4.1578
    -4.1034  -4.1034  -4.0737  -3.9309  -3.7390  -3.7390  -3.7379  -3.7305
    -3.7265  -3.7265  -3.7194  -3.6616  -3.6371  -3.6371  -3.6087  -3.6069
    -3.6069  -3.5866  -3.5866  -3.5833  -3.5764  -3.4714  -3.4714  -3.4150
    -3.3525  -3.3472  -3.3472  -3.3371  -3.3339  -3.3339  -3.3298  -3.3297
    -3.3296  -3.3247  -3.3247  -3.3197  -3.3197  -3.3194  -3.3024  -3.2966
    -3.2966  -3.2888  -3.2888  -3.2800  -3.2703  -3.2702  -3.2684  -3.2684
    -3.2427  -3.2427  -3.1808  -3.1808  -3.1471  -3.1091  -3.1091  -3.0557
    -3.0337  -3.0337  -3.0233  -3.0088  -3.0087  -2.9489  -2.9172  -2.9172
    -2.9025  -2.9025  -2.8947  -2.8851  -2.8471  -2.8122  -2.8122  -2.7716
    -2.7716  -2.7471  -2.7423  -2.7423   2.2090   2.3856   2.3857   2.3880
     2.4283   2.4283   2.4527   2.4905   2.5074   2.5074   2.5181   2.5800
     2.5916   2.5916   2.6145   2.9714   2.9714   2.9735   2.9790   2.9790
     2.9897   2.9937   2.9937   2.9961   3.0040   3.0103   3.0103   3.0346
     3.0347   3.0348   3.0386   3.0387   3.0468   3.0468   3.0545   3.0545
     3.0593   3.0593   3.0664   3.0837   3.0944   3.1073   3.1073   3.1484
     3.1487   3.1730   3.1730   3.2677   3.3121   3.3122   3.3457   3.3928
     3.3928   3.4593   3.5477   3.5478   3.6142   3.6836   3.6837   3.6982
     3.7128   3.7129   3.7557   3.7558   3.7892   3.8480   3.9485   3.9486
     4.0213   4.2793   4.2899   4.2978   4.2978   4.3145   4.3145   4.3418
     4.3419   4.3746   4.3746   4.4096   4.7643   4.9398   4.9501   4.9501
     4.9653   4.9679   4.9679   5.0247   5.0430   5.0490   5.0669   5.0669
     5.1072   5.1105   5.1105   5.1370   5.1370   5.1390   5.1399   5.1443
     5.1443   5.2175   5.2221   5.2222   5.2451   5.2452   5.2725   5.2989
     5.2990   5.3222   5.3256   5.3256   5.4293   5.4299   5.4299   5.4443
     5.4681   5.4681   5.4905   5.4905   5.5038   5.5644   5.5925   5.5925
     5.6225   5.6331   5.6331   5.6365   5.6433   5.6699   5.6819   5.6819
     5.7046   5.7047   5.7079   5.7172   5.7172   5.7192   5.7427   5.7428
     5.7759   5.7759   5.7841   5.8588   5.8589   5.9656   6.0180   6.0180
     6.2525   6.2599   6.2600   6.4066   6.4202   6.4203   6.5992   6.6109
     6.6109   6.6115   6.6402   6.6720   6.6720   6.6894   6.7036   6.7036
     6.7966   6.8068   6.8068   6.8287   6.8287   6.8340   6.8547   6.8547
     6.8610   6.8610   6.8664   6.9150   6.9150   6.9294   6.9427   6.9566
     6.9588   6.9588   6.9619   6.9633   6.9633   6.9754   6.9819   6.9819
     6.9855   6.9855   6.9937   6.9937   6.9969   7.0002   7.0064   7.0065
     7.0323   7.0488   7.0686   7.0686   7.0930   7.0972   7.0972   7.1171
     7.1172   7.1237   7.1573   7.1916   7.1916   7.2121   7.2121   7.2166
     7.2242   7.2243   7.2278   7.2448   7.2448   7.2511   7.2566   7.2621
     7.2621   7.2683   7.2683   7.3094   7.3094   7.3355   7.3379   7.3379
     7.3516   7.4690   7.5130   7.5130   7.5634   7.5872   7.5999   7.6000
     7.6096   7.6191   7.6191   7.6316   7.6316   7.6456   7.6801   7.6801
     7.7160   7.7404   7.7404   7.8332   7.8333   7.8484   7.8830   7.9109
     7.9110   7.9535   8.0062   8.0527   8.0528   8.0577   8.0659   8.0659
     8.0827   8.0996   8.0996   8.1083   8.1084   8.1647   8.1647   8.1815
     8.1837   8.1979   8.1979   8.2077   8.2290   8.2291   8.2651   8.3034
     8.3035   8.3433   8.3434   8.3577   8.3578   8.3758   8.7072   8.7073
     8.7557   8.7558  10.3347  10.7232  10.7233  11.1499  11.1683  12.6779
    12.6927  12.7527  12.7697  12.8067  12.8068  12.8240  12.8422  12.8422
    12.8422  12.8638  12.8638  12.8725  12.9030  12.9031  12.9928  13.1306
    13.1517  13.1517  13.1618  13.1619  13.2133  13.3596  13.3751  13.3752
    13.4237  13.4237  13.4951  13.7959  13.8006  13.8105  13.8105  13.8154
    13.8155  13.8287  13.8287  13.8446  13.8446  13.8483  13.8594  13.8641
    13.8641  13.9658  13.9659  13.9914  14.1868  14.3606  14.4044  14.4044
    14.4279  14.4279  14.4583  14.4635  14.4635  14.4738  14.4738  14.4829
    14.4829  14.4892  14.4922  14.5420  14.5420  14.5429  14.5757  14.5757
    14.5784  14.5907  14.6748  14.6763  14.6763  14.7368  14.7368  14.7573
    14.7573  14.7728  14.7735  14.7879  14.7879  14.7983  14.7983  14.8179
    14.8324  14.8856  14.8856  14.8977  14.8977  14.9082  14.9355  14.9355
    15.0004  15.1153  15.1192  15.1192  15.4726  15.6510  15.6814  15.6814
    15.7406  15.7406  15.8693  15.9650  16.0004  16.0004  16.0043  16.0130
    16.0130  16.0156  16.0573  16.0573  16.0746  16.0762  16.0762  16.1049
    16.1494  16.1494  16.1764  16.1764  16.1956  16.2332  16.2332  16.2488
    16.2587  16.2618  16.2618  16.2703  16.2768  16.2768  16.2814  16.2814
    16.2827  16.3181  16.3182  16.3546  16.3546  16.3765  16.3772  16.3980
    16.3980  16.4100  16.4232  16.4232  16.4378  16.4460  16.4939  16.4958
    16.4958  16.5037  16.5105  16.5105  16.5379  16.5379  16.5440  16.5440
    16.5526  16.5952  16.5952  16.6024  16.6144  16.6144  16.6359  16.6580
    16.6580  16.6992  16.6992  16.7092  16.7546  16.7585  16.7585  16.8077
    16.8874  16.9591  16.9604

     occupation numbers 
     1.0000   1.0000   1.0000   1.0000   1.0000   1.0000   1.0000   1.0000
     1.0000   1.0000   1.0000   1.0000   1.0000   1.0000   1.0000   1.0000
     1.0000   1.0000   1.0000   1.0000   1.0000   1.0000   1.0000   1.0000
     1.0000   1.0000   1.0000   1.0000   1.0000   1.0000   1.0000   1.0000
     1.0000   1.0000   1.0000   1.0000   1.0000   1.0000   1.0000   1.0000
     1.0000   1.0000   1.0000   1.0000   1.0000   1.0000   1.0000   1.0000
     1.0000   1.0000   1.0000   1.0000   1.0000   1.0000   1.0000   1.0000
     1.0000   1.0000   1.0000   1.0000   1.0000   1.0000   1.0000   1.0000
     1.0000   1.0000   1.0000   1.0000   1.0000   1.0000   1.0000   1.0000
     1.0000   1.0000   1.0000   1.0000   1.0000   1.0000   1.0000   1.0000
     1.0000   1.0000   1.0000   1.0000   1.0000   1.0000   1.0000   1.0000
     1.0000   1.0000   1.0000   1.0000   1.0000   1.0000   1.0000   1.0000
     1.0000   1.0000   1.0000   1.0000   1.0000   1.0000   1.0000   1.0000
     1.0000   1.0000   1.0000   1.0000   1.0000   1.0000   1.0000   1.0000
     1.0000   1.0000   1.0000   1.0000   1.0000   1.0000   1.0000   1.0000
     1.0000   1.0000   1.0000   1.0000   1.0000   1.0000   1.0000   1.0000
     1.0000   1.0000   1.0000   1.0000   1.0000   1.0000   1.0000   1.0000
     1.0000   1.0000   1.0000   1.0000   1.0000   1.0000   1.0000   1.0000
     1.0000   1.0000   1.0000   1.0000   1.0000   1.0000   1.0000   1.0000
     1.0000   1.0000   1.0000   1.0000   1.0000   1.0000   1.0000   1.0000
     1.0000   1.0000   1.0000   1.0000   1.0000   1.0000   1.0000   1.0000
     1.0000   1.0000   1.0000   1.0000   1.0000   1.0000   1.0000   1.0000
     1.0000   1.0000   1.0000   1.0000   1.0000   1.0000   1.0000   1.0000
     1.0000   1.0000   1.0000   1.0000   1.0000   1.0000   1.0000   1.0000
     1.0000   1.0000   1.0000   1.0000   1.0000   1.0000   1.0000   1.0000
     1.0000   1.0000   1.0000   1.0000   1.0000   1.0000   1.0000   1.0000
     1.0000   1.0000   1.0000   1.0000   1.0000   1.0000   1.0000   1.0000
     1.0000   1.0000   1.0000   1.0000   1.0000   1.0000   1.0000   1.0000
     1.0000   1.0000   1.0000   1.0000   1.0000   1.0000   1.0000   1.0000
     1.0000   1.0000   1.0000   1.0000   1.0000   1.0000   1.0000   1.0000
     1.0000   1.0000   1.0000   1.0000   1.0000   1.0000   1.0000   1.0000
     1.0000   1.0000   1.0000   1.0000   1.0000   1.0000   1.0000   1.0000
     1.0000   1.0000   1.0000   1.0000   1.0000   1.0000   1.0000   1.0000
     1.0000   1.0000   1.0000   1.0000   1.0000   1.0000   1.0000   1.0000
     1.0000   1.0000   1.0000   1.0000   1.0000   1.0000   1.0000   1.0000
     1.0000   1.0000   1.0000   1.0000   1.0000   1.0000   1.0000   1.0000
     1.0000   1.0000   1.0000   1.0000   1.0000   1.0000   1.0000   1.0000
     1.0000   1.0000   1.0000   1.0000   1.0000   1.0000   1.0000   1.0000
     1.0000   1.0000   1.0000   1.0000   1.0000   1.0000   1.0000   1.0000
     1.0000   1.0000   1.0000   1.0000   1.0000   1.0000   1.0000   1.0000
     1.0000   1.0000   1.0000   1.0000   1.0000   1.0000   1.0000   1.0000
     1.0000   1.0000   1.0000   1.0000   1.0000   1.0000   1.0000   1.0000
     1.0000   1.0000   1.0000   1.0000   1.0000   1.0000   1.0000   1.0000
     1.0000   1.0000   1.0000   1.0000   1.0000   1.0000   1.0000   1.0000
     1.0000   1.0000   1.0000   1.0000   1.0000   1.0000   1.0000   1.0000
     1.0000   1.0000   1.0000   1.0000   1.0000   1.0000   1.0000   1.0000
     1.0000   1.0000   1.0000   1.0000   1.0000   1.0000   1.0000   1.0000
     1.0000   1.0000   1.0000   1.0000   1.0000   1.0000   1.0000   1.0000
     1.0000   1.0000   1.0000   1.0000   1.0000   1.0000   1.0000   1.0000
     1.0000   1.0000   1.0000   1.0000   1.0000   1.0000   1.0000   1.0000
     1.0000   1.0000   1.0000   1.0000   1.0000   1.0000   1.0000   1.0000
     1.0000   1.0000   1.0000   1.0000   1.0000   1.0000   1.0000   1.0000
     1.0000   1.0000   1.0000   1.0000   1.0000   1.0000   1.0000   1.0000
     1.0000   1.0000   1.0000   1.0000   1.0000   1.0000   1.0000   1.0000
     1.0000   1.0000   1.0000   1.0000   1.0000   1.0000   1.0000   1.0000
     1.0000   1.0000   1.0000   1.0000   1.0000   1.0000   1.0000   1.0000
     1.0000   1.0000   1.0000   1.0000   1.0000   1.0000   1.0000   1.0000
     1.0000   1.0000   1.0000   1.0000   1.0000   1.0000   1.0000   1.0000
     1.0000   1.0000   1.0000   1.0000   1.0000   1.0000   1.0000   1.0000
     1.0000   1.0000   1.0000   1.0000   1.0000   1.0000   1.0000   1.0000
     1.0000   1.0000   1.0000   1.0000   1.0000   1.0000   1.0000   1.0000
     1.0000   1.0000   1.0000   1.0000   1.0000   1.0000   1.0000   1.0000
     1.0000   1.0000   1.0000   1.0000   1.0000   1.0000   1.0000   1.0000
     1.0000   1.0000   1.0000   1.0000   1.0000   1.0000   1.0000   1.0000
     1.0000   1.0000   1.0000   1.0000   1.0000   1.0000   1.0000   1.0000
     1.0000   1.0000   1.0000   1.0000   1.0000   1.0000   1.0000   1.0000
     1.0000   1.0000   1.0000   1.0000   1.0000   1.0000   1.0000   1.0000
     1.0000   1.0000   1.0000   1.0000   1.0000   1.0000   1.0000   1.0000
     1.0000   1.0000   1.0000   1.0000   1.0000   1.0000   1.0000   1.0000
     1.0000   1.0000   1.0000   1.0000   1.0000   1.0000   1.0000   1.0000
     1.0000   1.0000   1.0000   1.0000   1.0000   1.0000   1.0000   1.0000
     1.0000   1.0000   1.0000   1.0000   1.0000   1.0000   1.0000   1.0000
[...]
              0.166016515438603E+03
              0.471911946835519E+01
              0.517414135670311E+03
              0.719897751515273E+02
             -0.754795432787707E+02
              0.291663310138269E+02
             -0.691252585923696E+02
              0.406578898972430E+03
             -0.258255963727606E+01
              0.777209492641688E+02
              0.282309841932303E+03
              0.755708145958411E+02
             -0.214525439095864E+03
             -0.347595377424890E+03
              0.194319018799483E+02
             -0.395414405171244E+03
              0.132603511889432E+03
             -0.687768821404805E+02
             -0.152600139380370E+03
              0.154515431528738E+03
              0.535303511205061E+02
              0.148502901127772E+03
              0.646590145074822E+01
              0.220560489987190E+03
             -0.374439114647495E+03
             -0.267304087893162E+02
             -0.328579101067008E+03
              0.731298996220003E+02
              0.180312173028354E+03
             -0.183363045949211E+02
             -0.120097321578745E+03
              0.269394415554904E+03
             -0.124742102411486E+03
              0.922208783007520E+02
             -0.792937851760789E+02
              0.213165243068271E+03
              0.224564974118270E+03
             -0.972746834782647E+02
              0.192587622715341E+03
              0.722890863819530E+02
             -0.194323517229887E+03
             -0.126934091867293E+03
              0.312268286281147E+03
              0.153210161511260E+03
             -0.131871585739947E+02
             -0.332222335383717E+02
              0.480821854816384E+03
              0.283552328400800E+03
              0.100931417386199E+03
             -0.302648836872121E+03
              0.485104521226905E+03
             -0.226524448285445E+03
             -0.279657970975405E+03
             -0.421459004542068E+03
              0.187886601284227E+03
             -0.378906844147179E+03
              0.171420544699307E+03
              0.276837437004203E+03
              0.197232828863240E+03
              0.500966899317358E+02
              0.130675100204122E+03
             -0.312159326461330E+03
             -0.111783872744367E+03
             -0.849037974700384E+02
              0.160282800650546E+03
              0.317564658522324E+03
              0.328169927607307E+03
              0.253045454281904E+03
             -0.578854317564451E+02
              0.808361684324314E+02
              0.454532759817153E+01
             -0.103975889934550E+03
              0.133921193433361E+03
              0.145611013256551E+03
             -0.184636913571262E+03
             -0.219297104446501E+03
             -0.865123322320358E+02
              0.227738855669627E+03
              0.109172965903104E+03
             -0.156260346821014E+03
             -0.239679050084989E+03
             -0.348867345542913E+03
              0.724820178934635E+01
              0.936373429655014E+02
             -0.131792578142256E+03
              0.487808126102380E+03
              0.233922566948017E+02
             -0.552766573611545E+03
              0.122490320007068E+03
              0.242357627452418E+03
             -0.110887595289804E+03
              0.134876003482493E+02
             -0.153863763981637E+03
              0.225915983963771E+03
              0.104566049058675E+03
             -0.289307024492705E+03
              0.344432911798294E+03
              0.984177038293046E+01
             -0.147797481632396E+03
             -0.175342380724827E+03
              0.686062394009768E+03
              0.305593421473499E+03
             -0.852382250640048E+02
              0.168244187120037E+03
             -0.300366804980834E+03
             -0.536894430545117E+02
             -0.304142835795511E+03
              0.121870160763247E+03
              0.207283329582217E+03
              0.245923953239758E+03
             -0.980010142359570E+02
              0.287835236676674E+02
              0.280955788347466E+03
              0.103871646350918E+03
              0.175960662946758E+03
              0.748150030358629E+02
             -0.504984154766482E+02
              0.751821795285741E+01
             -0.464357672325866E+02
              0.713921783651517E+02
              0.157772475038353E+02
             -0.256094286269544E+03
              0.389478442087847E+03
              0.155757384999114E+03
             -0.279966603757703E+03
             -0.207599044529550E+03
             -0.300874125785020E+03
             -0.142321242162092E+03
             -0.104869600654590E+03
             -0.232727946169830E+03
             -0.227872264770112E+03
              0.287046848758523E+03
              0.226490528000912E+03
             -0.281792478170901E+02
              0.330442702053239E+03
              0.622639016454150E+02
             -0.533209549956334E+03
              0.300758201740217E+03
              0.693939524307718E+02
              0.231965648558021E+03
              0.517307950237304E+02
              0.387040163835545E+02
              0.458423249302566E+02
              0.120780356001431E+03
             -0.221168969620631E+03
             -0.110380157613805E+03
             -0.203208167780389E+03
             -0.168762108355131E+03
              0.767688123570729E+02
             -0.193078721029760E+03
              0.903890926673504E+02
              0.119604228339004E+03
             -0.126953926400242E+03
             -0.670441393300079E+02
             -0.590654482410719E+01
              0.330089673472212E+03
              0.524226950712216E+02
              0.327031394182231E+03
              0.116514994781691E+03
             -0.422871423592862E+03
             -0.143860122354096E+03
              0.144441814909108E+03
              0.325301884665484E+03
              0.624076915460918E+02
              0.127175956866051E+03
              0.306650310248898E+03
             -0.178387490468578E+03
             -0.289556438882596E+03
              0.376382449713240E+03
              0.644168639223062E+01
             -0.398952021325578E+03
              0.133789470912424E+03
              0.264094776627192E+03
             -0.612064612945378E+02
             -0.249826946205331E+03
              0.445657887079956E+02
              0.162755621271945E+02
             -0.136600988521256E+03
              0.495917950090125E+02
             -0.426753521441309E+02
              0.587944691272486E+03
              0.162312349875156E+03
             -0.269605785069168E+03
              0.814636395250830E+02
              0.377473637482484E+03
             -0.242037953805606E+03
             -0.643981039096775E+02
             -0.214324240249033E+03
              0.171131138332005E+03
              0.724796345476327E+02
              0.113633955582733E+03
              0.878502694902113E+01
              0.424032106936578E+03
             -0.237096357274811E+03
             -0.180012421255778E+03
             -0.198641902171139E+03
              0.170636303124710E+03
              0.407954841536128E+03
             -0.517642833956701E+02
              0.168485817158203E+03
             -0.228051125573745E+03
              0.232275591648115E+02
             -0.676164241174344E+02
             -0.224087786721511E+02
             -0.970338952440603E+02
             -0.893052385293097E+02
             -0.659483296834591E+02
              0.703063679217701E+02
              0.118690561764963E+03
             -0.273616248722751E+03
              0.198758255858853E+03
             -0.321445216271411E+03
              0.239957533408631E+03
             -0.278570532443842E+03
              0.421382849741884E+03
              0.224672907304811E+03
              0.250961359033393E+03
              0.575146337936601E+02
              0.645444567944269E+02
             -0.565773512467767E+03
              0.969272584527325E+02
              0.256470503338287E+02
              0.444685034001459E+02
             -0.844261896166882E+02
              0.440356015227363E+03
             -0.133614191668969E+03
             -0.174084303793596E+03
             -0.436420271461711E+03
             -0.145296315397157E+03
             -0.198373125984983E+03
             -0.175761560774544E+03
             -0.480213544445489E+02
             -0.921677640508919E+02
             -0.121890420090354E+03
             -0.183496085808710E+03
              0.136841463322744E+03
              0.451752763933609E+03
              0.385113432790172E+03
             -0.763865961891852E+02
             -0.472615567979344E+03
             -0.198781752966245E+03
              0.910843083980855E+02
              0.101002451333190E+03
              0.146171210403689E+03
              0.113689886820725E+03
              0.370131551047323E+02
              0.437470820105121E+03
             -0.108523422525073E+03
              0.221922997049997E+03
              0.102010006602733E+03
             -0.143312843230377E+03
             -0.899637033758229E+02
              0.202179448574118E+03
             -0.117054236192173E+03
             -0.830490489077068E+02
             -0.539222934293230E+02
              0.252729458490158E+03
             -0.338685906489087E+03
             -0.373565554198622E+02
             -0.277163252018175E+03
             -0.599219280448220E+03
              0.203983697765648E+01
             -0.742428101021853E+02
              0.205949536577758E+03
              0.244707850637693E+03
              0.335762184452389E+03
             -0.220924316211159E+03
              0.359202477081339E+03
              0.938928105756662E+02
             -0.107291808190361E+03
              0.647939506740724E+02
             -0.114029581137704E+03
             -0.795684307126730E+02
              0.183072750989108E+03
             -0.178307217169913E+03
              0.433912811250251E+03
             -0.110949258299933E+03
             -0.232062011116886E+03
              0.441641537779591E+03
             -0.247979632644327E+03
             -0.364849942507840E+02
              0.449138270497219E+02
              0.137015787963662E+03
             -0.202233909634172E+03
             -0.151464622801315E+03
              0.230416815123631E+03
             -0.373274381349174E+03
              0.274382204081195E+03
              0.358999508448690E+02
              0.214340820189966E+03
              0.297003754143217E+03
              0.748666782936145E+02
             -0.391131038894644E+03
             -0.172732538771337E+03
             -0.289139999374745E+03
             -0.181335660209178E+03
             -0.595566448580134E+02
              0.711118103600563E+02
             -0.135769292224249E+03
              0.943793937113833E+01
             -0.439467229076973E+03
              0.110437794270431E+02
             -0.277697602388487E+03
              0.272924943943108E+03
             -0.146832141682809E+03
             -0.289087014242007E+02
              0.196479113427786E+03
              0.213006395623761E+02
              0.195505306980079E+03
             -0.350335237616260E+03
              0.767201765981799E+02
              0.241548516493541E+02
              0.140886380622421E+03
              0.252843414009780E+03
             -0.443330667816831E+02
             -0.277218858992326E+03
             -0.158726602535944E+03
             -0.109751994039707E+03
             -0.533035679490586E+02
              0.261571355447128E+03
              0.160949293688050E+03
             -0.168291779424175E+03
             -0.153503119422796E+03
              0.126627744696490E+03
              0.124139280717261E+03
             -0.343881628489718E+03
              0.961905255897251E+02
              0.252348295619299E+03
             -0.123702934754187E+02
              0.295815563324398E+03
              0.150048441654458E+03
              0.236406138561150E+03
              0.359154041109296E+03
              0.589227583083361E+02
             -0.501852429424959E+03
              0.516937955486505E+02
              0.556678016068957E+03
              0.400555290290277E+03
             -0.268473195443198E+03
              0.267339688100052E+02
              0.348663456979599E+03
              0.316799757466797E+03
              0.150693127318296E+03
             -0.798909437632848E+02
              0.144431596189173E+03
              0.303014636587172E+03
             -0.135732738446592E+03
             -0.969252160912350E+02
              0.189354412590644E+03
             -0.136381445611851E+02
              0.177650550223735E+03
             -0.445689752118075E+02
              0.366594413403755E+03
             -0.139556413392913E+03
              0.836244871270760E+02
             -0.170599649233131E+03
              0.173174931508384E+03
             -0.229481243534526E+02
              0.273415877371651E+03
              0.192195009217046E+02
              0.108111121996729E+03
             -0.181469024061313E+03
             -0.111756859898117E+03
             -0.527405993893562E+02
             -0.454399990305915E+02
              0.287302576782928E+03
              0.119259062840451E+03
              0.368565646603483E+03
              0.306911117942995E+03
              0.688287009162759E+02
              0.273496195502275E+01
              0.360156988621952E+03
              0.189553415765679E+03
              0.502940229626392E+01
              0.320053244827166E+03
             -0.287066639476022E+03
              0.941329203961006E+02
             -0.180494059304554E+03
             -0.720848508551112E+02
              0.460922879099174E+03
             -0.705462760556775E+02
             -0.347692522241232E+01
             -0.605617655497531E+02
              0.383010285052954E+03
             -0.892690187316759E+02
             -0.106453800954025E+02
              0.773282031875707E+03
             -0.249625522375239E+03
             -0.267113715222336E+03
             -0.279986005191179E+03
             -0.164449270754978E+03
              0.163538615544461E+03
             -0.698393966144972E+02
              0.451488193740997E+02
             -0.141930086062275E+02
              0.978744510357753E+02
              0.159490708305745E+03
              0.183765217602152E+03
              0.270299611520368E+03
              0.149448037939472E+03
              0.189804127719874E+03
             -0.306816244033559E+03
             -0.293895905344875E+03
             -0.742287720539437E+02
             -0.287930148773400E+03
              0.460831577078947E+03
              0.394888101095046E+03
              0.188678574856245E+03
              0.511121498997387E+03
             -0.265886602268433E+03
             -0.108368953919693E+03
             -0.150896307895451E+03
              0.422795195860039E+03
 
 BEEF-vdW xc energy contributions
            1 :    -3875.157047340841     
            2 :     3491.341897040904     
            3 :    -2847.907425579282     
            4 :     2132.692011871186     
            5 :    -1511.424546839352     
            6 :     1064.796933504148     
            7 :    -779.0878601531276     
            8 :     586.4718127894430     
            9 :    -422.5599600420737     
           10 :     263.8236781063551     
           11 :    -126.8755855604868     
           12 :     39.49872383447837     
           13 :    -10.13188669442479     
           14 :     18.41693287201360     
           15 :    -30.22539980737747     
           16 :     21.98450586136823     
           17 :     5.609616583690695     
           18 :    -33.67858453655845     
           19 :     43.98243348403594     
           20 :    -34.48634654405942     
           21 :     20.00168912648041     
           22 :    -19.04272297892931     
           23 :     38.63796722441930     
           24 :    -69.28047713524938     
           25 :     93.13959844168176     
           26 :    -98.01371561472479     
           27 :     85.69940470318943     
           28 :    -68.83244913400722     
           29 :     59.79908310638439     
           30 :    -61.18285239366105     
           31 :    -331.7006125773669     
           32 :    -227.4603621344072     

     Writing all to output data dir ./GaN.save/
 
     init_run     :      7.80s CPU     17.61s WALL (       1 calls)
     electrons    :    743.95s CPU    759.52s WALL (       1 calls)
     forces       :     23.25s CPU     24.24s WALL (       1 calls)
     stress       :    345.66s CPU    350.98s WALL (       1 calls)

     Called by init_run:
     wfcinit      :      4.53s CPU     13.95s WALL (       1 calls)
     potinit      :      1.33s CPU      1.49s WALL (       1 calls)
     hinit0       :      1.03s CPU      1.15s WALL (       1 calls)

     Called by electrons:
     c_bands      :    719.37s CPU    733.77s WALL (       2 calls)
     sum_band     :     18.76s CPU     19.54s WALL (       2 calls)
     v_of_rho     :      1.67s CPU      1.77s WALL (       2 calls)
     v_h          :      0.01s CPU      0.01s WALL (       2 calls)
     v_xc         :     20.85s CPU     21.22s WALL (      38 calls)
     newd         :      0.68s CPU      0.72s WALL (       2 calls)
     PAW_pot      :      1.21s CPU      1.24s WALL (       2 calls)
     mix_rho      :      0.00s CPU      0.00s WALL (       2 calls)
     vdW_kernel   :      0.25s CPU      0.26s WALL (       1 calls)

     Called by c_bands:
     init_us_2    :      1.09s CPU      1.17s WALL (      12 calls)
     init_us_2:cp :      1.09s CPU      1.17s WALL (      12 calls)
     cegterg      :    648.72s CPU    661.45s WALL (       4 calls)

     Called by sum_band:
     sum_band:wei :      0.00s CPU      0.00s WALL (       2 calls)
     sum_band:loo :     18.16s CPU     18.52s WALL (       2 calls)
     sum_band:buf :      0.17s CPU      0.18s WALL (       4 calls)
     sum_band:ini :      0.40s CPU      0.41s WALL (       4 calls)
     sum_band:cal :     11.07s CPU     11.17s WALL (       4 calls)
     sum_band:bec :      0.10s CPU      0.10s WALL (       4 calls)
     addusdens    :      0.29s CPU      0.37s WALL (       2 calls)
     addusd:skk   :      0.06s CPU      0.07s WALL (       4 calls)
     addusd:dgemm :      0.15s CPU      0.22s WALL (       4 calls)
     addusd:qvan2 :      0.06s CPU      0.07s WALL (       4 calls)

     Called by *egterg:
     cdiaghg      :    513.19s CPU    521.19s WALL (      34 calls)
     cegterg:over :     24.38s CPU     25.44s WALL (      34 calls)
     cegterg:upda :     14.84s CPU     15.17s WALL (      34 calls)
     cegterg:last :      7.23s CPU      7.29s WALL (       4 calls)
     h_psi        :     61.40s CPU     62.55s WALL (      38 calls)
     s_psi        :     19.03s CPU     19.47s WALL (      38 calls)
     g_psi        :      0.12s CPU      0.13s WALL (      34 calls)

     Called by h_psi:
     h_psi:calbec :     20.12s CPU     20.28s WALL (      38 calls)
     vloc_psi     :     21.96s CPU     22.21s WALL (      38 calls)
     add_vuspsi   :     18.98s CPU     19.44s WALL (      38 calls)

     General routines
     calbec       :     63.41s CPU     64.42s WALL (      52 calls)
     fft          :      9.34s CPU      9.47s WALL (    2232 calls)
     ffts         :      0.05s CPU      0.05s WALL (       4 calls)
     fftw         :     26.49s CPU     26.95s WALL (   24760 calls)
     interpolate  :      0.01s CPU      0.01s WALL (       2 calls)
 
     Parallel routines

     PAW routines
     PAW_pot      :      1.21s CPU      1.24s WALL (       2 calls)
     PAW_symme    :      0.05s CPU      0.05s WALL (       3 calls)
 
     PWSCF        :  19m 3.24s CPU  19m43.30s WALL

 
   This run was terminated on:  10:40:18  15Apr2024            

=------------------------------------------------------------------------------=
   JOB DONE.
=------------------------------------------------------------------------------=
