
     Program PWSCF v.7.1 starts on 12Apr2024 at  6:55: 8 

     This program is part of the open-source Quantum ESPRESSO suite
     for quantum simulation of materials; please cite
         "P. Giannozzi et al., J. Phys.:Condens. Matter 21 395502 (2009);
         "P. Giannozzi et al., J. Phys.:Condens. Matter 29 465901 (2017);
         "P. Giannozzi et al., J. Chem. Phys. 152 154105 (2020);
          URL http://www.quantum-espresso.org", 
     in publications or presentations arising from this work. More details at
     http://www.quantum-espresso.org/quote

     Parallel version (MPI & OpenMP), running on     128 processor cores
     Number of MPI processes:               128
     Threads/MPI process:                     1

     MPI processes distributed on     1 nodes
     1920902 MiB available memory on the printing compute node when the environment starts
 
     Reading input from espresso.pwi
Warning: card &CELL ignored
Warning: card    CELL_DYNAMICS    = 'BFGS' ignored
Warning: card / ignored

     Current dimensions of program PWSCF are:
     Max number of different atomic species (ntypx) = 10
     Max number of k-points (npk) =  40000
     Max angular momentum in pseudopotentials (lmaxx) =  4
     file Ga.pbe-dn-kjpaw_psl.1.0.0.UPF: wavefunction(s)  4S renormalized
     file N.pbe-n-kjpaw_psl.1.0.0.UPF: wavefunction(s)  2S renormalized

     **************************************************************************
     Initializing libbeef V0.1.2 with the BEEF-vdW functional.
     Citation: Wellendorff et al., PRB 85, 235149 (2012).
     **************************************************************************


     IMPORTANT: XC functional enforced from input :
     Exchange-correlation= BEEF-VDW
                           (   1   4  43  14   2   0   0)
     Any further DFT definition will be discarded
     Please, verify this is what you really want

 
     K-points division:     npool     =       2
     R & G space division:  proc/nbgrp/npool/nimage =      64
     Subspace diagonalization in iterative solution of the eigenvalue problem:
     a serial algorithm will be used

 
     Parallelization info
     --------------------
     sticks:   dense  smooth     PW     G-vecs:    dense   smooth      PW
     Min         226     181     47                26979    19303    2571
     Max         228     182     48                26983    19308    2576
     Sum       14527   11629   3037              1726709  1235535  164709
 
     Using Slab Decomposition
 


     bravais-lattice index     =            4
     lattice parameter (alat)  =      24.5252  a.u.
     unit-cell volume          =   15616.6055 (a.u.)^3
     number of atoms/cell      =          192
     number of atomic types    =            2
     number of electrons       =      1737.00
     number of Kohn-Sham states=         1043
     kinetic-energy cutoff     =      70.0000  Ry
     charge density cutoff     =     350.0000  Ry
     scf convergence threshold =      1.0E-07
     mixing beta               =       0.7000
     number of iterations used =            8  plain     mixing
     Exchange-correlation= BEEF-VDW
                           (   1   4  43  14   2   0   0)

     celldm(1)=  24.525232  celldm(2)=   0.000000  celldm(3)=   1.222409
     celldm(4)=   0.000000  celldm(5)=   0.000000  celldm(6)=   0.000000

     crystal axes: (cart. coord. in units of alat)
               a(1) = (   1.000000   0.000000   0.000000 )  
               a(2) = (  -0.500000   0.866025   0.000000 )  
               a(3) = (   0.000000   0.000000   1.222409 )  

     reciprocal axes: (cart. coord. in units 2 pi/alat)
               b(1) = (  1.000000  0.577350 -0.000000 )  
               b(2) = (  0.000000  1.154701  0.000000 )  
               b(3) = (  0.000000 -0.000000  0.818057 )  


     PseudoPot. # 1 for Ga read from file:
     //group///packages/espresso/pseudo/psl_1.0.0/pslibrary.1.0.0/pbe/PSEUDOPOTENTIALS/Ga.pbe-dn-kjpaw_psl.1.0.0.UPF
     MD5 check sum: cd2a01e492f15b435d17032472d8505c
     Pseudo is Projector augmented-wave + core cor, Zval = 13.0
     Generated using 'atomic' code by A. Dal Corso  v.7.1
     Shape of augmentation charge: PSQ
     Using radial grid of 1205 points,  6 beta functions with: 
                l(1) =   0
                l(2) =   0
                l(3) =   1
                l(4) =   1
                l(5) =   2
                l(6) =   2
     Q(r) pseudized with 0 coefficients 


     PseudoPot. # 2 for N  read from file:
     //group///packages/espresso/pseudo/psl_1.0.0/pslibrary.1.0.0/pbe/PSEUDOPOTENTIALS/N.pbe-n-kjpaw_psl.1.0.0.UPF
     MD5 check sum: f77f775694dac7e2c3fe1c82443d1a16
     Pseudo is Projector augmented-wave + core cor, Zval =  5.0
     Generated using 'atomic' code by A. Dal Corso  v.7.1
     Shape of augmentation charge: PSQ
     Using radial grid of 1085 points,  4 beta functions with: 
                l(1) =   0
                l(2) =   0
                l(3) =   1
                l(4) =   1
     Q(r) pseudized with 0 coefficients 


     atomic species   valence    mass     pseudopotential
        Ga            13.00    69.72300     Ga( 1.00)
        N              5.00    14.00700     N ( 1.00)

      6 Sym. Ops. (no inversion) found ( 4 have fractional translation)


                                    s                        frac. trans.

      isym =  1     identity                                     

 cryst.   s( 1) = (     1          0          0      )
                  (     0          1          0      )
                  (     0          0          1      )

 cart.    s( 1) = (  1.0000000  0.0000000  0.0000000 )
                  (  0.0000000  1.0000000  0.0000000 )
                  (  0.0000000  0.0000000  1.0000000 )


      isym =  2     120 deg rotation - cryst. axis [0,0,1]       

 cryst.   s( 2) = (     0          1          0      )    f =( -0.2500000 )
                  (    -1         -1          0      )       (  0.0000002 )
                  (     0          0          1      )       (  0.0000000 )

 cart.    s( 2) = ( -0.5000000 -0.8660254  0.0000000 )    f =( -0.2500001 )
                  (  0.8660254 -0.5000000  0.0000000 )       (  0.0000002 )
                  (  0.0000000  0.0000000  1.0000000 )       (  0.0000000 )


      isym =  3     120 deg rotation - cryst. axis [0,0,-1]      

 cryst.   s( 3) = (    -1         -1          0      )    f =( -0.2500002 )
                  (     1          0          0      )       ( -0.2500000 )
                  (     0          0          1      )       (  0.0000000 )

 cart.    s( 3) = ( -0.5000000  0.8660254  0.0000000 )    f =( -0.1250002 )
                  ( -0.8660254 -0.5000000  0.0000000 )       ( -0.2165064 )
                  (  0.0000000  0.0000000  1.0000000 )       (  0.0000000 )


      isym =  4     inv. 180 deg rotation - cart. axis [1,0,0]   

 cryst.   s( 4) = (    -1          0          0      )    f =( -0.2500002 )
                  (     1          1          0      )       (  0.0000000 )
                  (     0          0          1      )       (  0.0000000 )

 cart.    s( 4) = ( -1.0000000  0.0000000  0.0000000 )    f =( -0.2500002 )
                  (  0.0000000  1.0000000  0.0000000 )       (  0.0000000 )
                  (  0.0000000  0.0000000  1.0000000 )       (  0.0000000 )


      isym =  5     inv. 180 deg rotation - cryst. axis [0,1,0]  

 cryst.   s( 5) = (     1          1          0      )
                  (     0         -1          0      )
                  (     0          0          1      )

 cart.    s( 5) = (  0.5000000  0.8660254  0.0000000 )
                  (  0.8660254 -0.5000000  0.0000000 )
                  (  0.0000000  0.0000000  1.0000000 )


      isym =  6     inv. 180 deg rotation - cryst. axis [1,1,0]  

 cryst.   s( 6) = (     0         -1          0      )    f =( -0.2500000 )
                  (    -1          0          0      )       ( -0.2500000 )
                  (     0          0          1      )       (  0.0000000 )

 cart.    s( 6) = (  0.5000000 -0.8660254  0.0000000 )    f =( -0.1250000 )
                  ( -0.8660254 -0.5000000  0.0000000 )       ( -0.2165064 )
                  (  0.0000000  0.0000000  1.0000000 )       (  0.0000000 )


     point group C_3v (3m)  
     there are  3 classes
     the character table:

       E     2C3   3s_v 
A_1    1.00  1.00  1.00
A_2    1.00  1.00 -1.00
E      2.00 -1.00  0.00

     the symmetry operations in each class and the name of the first element:

     E        1
          identity                                               
     2C3      2    3
          120 deg rotation - cryst. axis [0,0,1]                 
     3s_v     4    5    6
          inv. 180 deg rotation - cart. axis [1,0,0]             

   Cartesian axes

     site n.     atom                  positions (alat units)
         1           Ga  tau(   1) = (   0.1250001   0.0721687   0.2033935  )
         2           Ga  tau(   2) = (   0.1250001   0.0721687   0.6108633  )
         3           Ga  tau(   3) = (   0.1250001   0.0721687   1.0183331  )
         4           Ga  tau(   4) = (   0.0000001   0.2886751   0.2033935  )
         5           Ga  tau(   5) = (   0.0000001   0.2886751   0.6108633  )
         6           Ga  tau(   6) = (   0.0000001   0.2886751   1.0183331  )
         7           Ga  tau(   7) = (  -0.1249999   0.5051814   0.2033935  )
         8           Ga  tau(   8) = (  -0.1249999   0.5051814   0.6108633  )
         9           Ga  tau(   9) = (  -0.1249999   0.5051814   1.0183331  )
        10           Ga  tau(  10) = (  -0.2499999   0.7216878   0.2033935  )
        11           Ga  tau(  11) = (  -0.2499999   0.7216878   0.6108633  )
        12           Ga  tau(  12) = (  -0.2499999   0.7216878   1.0183331  )
        13           Ga  tau(  13) = (   0.3750001   0.0721687   0.2033935  )
        14           Ga  tau(  14) = (   0.3750001   0.0721687   0.6108633  )
        15           Ga  tau(  15) = (   0.3750001   0.0721687   1.0183331  )
        16           Ga  tau(  16) = (   0.2500001   0.2886751   0.2033935  )
        17           Ga  tau(  17) = (   0.2500001   0.2886751   0.6108633  )
        18           Ga  tau(  18) = (   0.2500001   0.2886751   1.0183331  )
        19           Ga  tau(  19) = (   0.1250001   0.5051814   0.2033935  )
        20           Ga  tau(  20) = (   0.1250001   0.5051814   0.6108633  )
        21           Ga  tau(  21) = (   0.1250001   0.5051814   1.0183331  )
        22           Ga  tau(  22) = (   0.0000001   0.7216878   0.2033935  )
        23           Ga  tau(  23) = (   0.0000001   0.7216878   0.6108633  )
        24           Ga  tau(  24) = (   0.0000001   0.7216878   1.0183331  )
        25           Ga  tau(  25) = (   0.6250001   0.0721687   0.2033935  )
        26           Ga  tau(  26) = (   0.6250001   0.0721687   0.6108633  )
        27           Ga  tau(  27) = (   0.6250001   0.0721687   1.0183331  )
        28           Ga  tau(  28) = (   0.5000001   0.2886751   0.2033935  )
        29           Ga  tau(  29) = (   0.5000001   0.2886751   0.6108633  )
        30           Ga  tau(  30) = (   0.5000001   0.2886751   1.0183331  )
        31           Ga  tau(  31) = (   0.3750001   0.5051814   0.2033935  )
        32           Ga  tau(  32) = (   0.3750001   0.5051814   0.6108633  )
        33           Ga  tau(  33) = (   0.3750001   0.5051814   1.0183331  )
        34           Ga  tau(  34) = (   0.2500001   0.7216878   0.2033935  )
        35           Ga  tau(  35) = (   0.2500001   0.7216878   0.6108633  )
        36           Ga  tau(  36) = (   0.2500001   0.7216878   1.0183331  )
        37           Ga  tau(  37) = (   0.8750001   0.0721687   0.2033935  )
        38           Ga  tau(  38) = (   0.8750001   0.0721687   0.6108633  )
        39           Ga  tau(  39) = (   0.8750001   0.0721687   1.0183331  )
        40           Ga  tau(  40) = (   0.7500001   0.2886751   0.2033935  )
        41           Ga  tau(  41) = (   0.7500001   0.2886751   0.6108633  )
        42           Ga  tau(  42) = (   0.7500001   0.2886751   1.0183331  )
        43           Ga  tau(  43) = (   0.6250001   0.5051814   0.2033935  )
        44           Ga  tau(  44) = (   0.6250001   0.5051814   0.6108633  )
        45           Ga  tau(  45) = (   0.6250001   0.5051814   1.0183331  )
        46           Ga  tau(  46) = (   0.5000001   0.7216878   0.2033935  )
        47           Ga  tau(  47) = (   0.5000001   0.7216878   0.6108633  )
        48           Ga  tau(  48) = (   0.5000001   0.7216878   1.0183331  )
        49           Ga  tau(  49) = (  -0.0000002   0.1443377   0.4071284  )
        50           Ga  tau(  50) = (  -0.0000002   0.1443377   0.8145982  )
        51           Ga  tau(  51) = (  -0.0000002   0.1443377   1.2220680  )
        52           Ga  tau(  52) = (  -0.1250002   0.3608440   0.4071284  )
        53           Ga  tau(  53) = (  -0.1250002   0.3608440   0.8145982  )
        54           Ga  tau(  54) = (  -0.1250002   0.3608440   1.2220680  )
        55           Ga  tau(  55) = (  -0.2500002   0.5773504   0.4071284  )
        56           Ga  tau(  56) = (  -0.2500002   0.5773504   0.8145982  )
        57           Ga  tau(  57) = (  -0.2500002   0.5773504   1.2220680  )
        58           Ga  tau(  58) = (  -0.3750001   0.7938567   0.4071284  )
        59           Ga  tau(  59) = (  -0.3750001   0.7938567   0.8145982  )
        60           Ga  tau(  60) = (  -0.3750001   0.7938567   1.2220680  )
        61           Ga  tau(  61) = (   0.2499998   0.1443377   0.4071284  )
        62           Ga  tau(  62) = (   0.2499998   0.1443377   0.8145982  )
        63           Ga  tau(  63) = (   0.2499998   0.1443377   1.2220680  )
        64           Ga  tau(  64) = (   0.1249998   0.3608440   0.4071284  )
        65           Ga  tau(  65) = (   0.1249998   0.3608440   0.8145982  )
        66           Ga  tau(  66) = (   0.1249998   0.3608440   1.2220680  )
        67           Ga  tau(  67) = (  -0.0000002   0.5773504   0.4071284  )
        68           Ga  tau(  68) = (  -0.0000002   0.5773504   0.8145982  )
        69           Ga  tau(  69) = (  -0.0000002   0.5773504   1.2220680  )
        70           Ga  tau(  70) = (  -0.1250002   0.7938567   0.4071284  )
        71           Ga  tau(  71) = (  -0.1250002   0.7938567   0.8145982  )
        72           Ga  tau(  72) = (  -0.1250002   0.7938567   1.2220680  )
        73           Ga  tau(  73) = (   0.4999998   0.1443377   0.4071284  )
        74           Ga  tau(  74) = (   0.4999998   0.1443377   0.8145982  )
        75           Ga  tau(  75) = (   0.4999998   0.1443377   1.2220680  )
        76           Ga  tau(  76) = (   0.3749998   0.3608440   0.4071284  )
        77           Ga  tau(  77) = (   0.3749998   0.3608440   0.8145982  )
        78           Ga  tau(  78) = (   0.3749998   0.3608440   1.2220680  )
        79           Ga  tau(  79) = (   0.2499998   0.5773504   0.4071284  )
        80           Ga  tau(  80) = (   0.2499998   0.5773504   0.8145982  )
        81           Ga  tau(  81) = (   0.2499998   0.5773504   1.2220680  )
        82           Ga  tau(  82) = (   0.1249998   0.7938567   0.4071284  )
        83           Ga  tau(  83) = (   0.1249998   0.7938567   0.8145982  )
        84           Ga  tau(  84) = (   0.1249998   0.7938567   1.2220680  )
        85           Ga  tau(  85) = (   0.7499998   0.1443377   0.4071284  )
        86           Ga  tau(  86) = (   0.7499998   0.1443377   0.8145982  )
        87           Ga  tau(  87) = (   0.7499998   0.1443377   1.2220680  )
        88           Ga  tau(  88) = (   0.6249998   0.3608440   0.4071284  )
        89           Ga  tau(  89) = (   0.6249998   0.3608440   0.8145982  )
        90           Ga  tau(  90) = (   0.6249998   0.3608440   1.2220680  )
        91           Ga  tau(  91) = (   0.4999998   0.5773504   0.4071284  )
        92           Ga  tau(  92) = (   0.4999998   0.5773504   0.8145982  )
        93           Ga  tau(  93) = (   0.4999998   0.5773504   1.2220680  )
        94           Ga  tau(  94) = (   0.3749998   0.7938567   0.4071284  )
        95           Ga  tau(  95) = (   0.3749998   0.7938567   0.8145982  )
        96           Ga  tau(  96) = (   0.3749998   0.7938567   1.2220680  )
        97           N   tau(  97) = (   0.1250001   0.0721687   0.7643472  )
        98           N   tau(  98) = (   0.1250001   0.0721687   1.1718169  )
        99           N   tau(  99) = (   0.0000001   0.2886751   0.3568774  )
       100           N   tau( 100) = (   0.0000001   0.2886751   0.7643472  )
       101           N   tau( 101) = (   0.0000001   0.2886751   1.1718169  )
       102           N   tau( 102) = (  -0.1249999   0.5051814   0.3568774  )
       103           N   tau( 103) = (  -0.1249999   0.5051814   0.7643472  )
       104           N   tau( 104) = (  -0.1249999   0.5051814   1.1718169  )
       105           N   tau( 105) = (  -0.2499999   0.7216878   0.3568774  )
       106           N   tau( 106) = (  -0.2499999   0.7216878   0.7643472  )
       107           N   tau( 107) = (  -0.2499999   0.7216878   1.1718169  )
       108           N   tau( 108) = (   0.3750001   0.0721687   0.3568774  )
       109           N   tau( 109) = (   0.3750001   0.0721687   0.7643472  )
       110           N   tau( 110) = (   0.3750001   0.0721687   1.1718169  )
       111           N   tau( 111) = (   0.2500001   0.2886751   0.3568774  )
       112           N   tau( 112) = (   0.2500001   0.2886751   0.7643472  )
       113           N   tau( 113) = (   0.2500001   0.2886751   1.1718169  )
       114           N   tau( 114) = (   0.1250001   0.5051814   0.3568774  )
       115           N   tau( 115) = (   0.1250001   0.5051814   0.7643472  )
       116           N   tau( 116) = (   0.1250001   0.5051814   1.1718169  )
       117           N   tau( 117) = (   0.0000001   0.7216878   0.3568774  )
       118           N   tau( 118) = (   0.0000001   0.7216878   0.7643472  )
       119           N   tau( 119) = (   0.0000001   0.7216878   1.1718169  )
       120           N   tau( 120) = (   0.6250001   0.0721687   0.3568774  )
       121           N   tau( 121) = (   0.6250001   0.0721687   0.7643472  )
       122           N   tau( 122) = (   0.6250001   0.0721687   1.1718169  )
       123           N   tau( 123) = (   0.5000001   0.2886751   0.3568774  )
       124           N   tau( 124) = (   0.5000001   0.2886751   0.7643472  )
       125           N   tau( 125) = (   0.5000001   0.2886751   1.1718169  )
       126           N   tau( 126) = (   0.3750001   0.5051814   0.3568774  )
       127           N   tau( 127) = (   0.3750001   0.5051814   0.7643472  )
       128           N   tau( 128) = (   0.3750001   0.5051814   1.1718169  )
       129           N   tau( 129) = (   0.2500001   0.7216878   0.3568774  )
       130           N   tau( 130) = (   0.2500001   0.7216878   0.7643472  )
       131           N   tau( 131) = (   0.2500001   0.7216878   1.1718169  )
       132           N   tau( 132) = (   0.8750001   0.0721687   0.3568774  )
       133           N   tau( 133) = (   0.8750001   0.0721687   0.7643472  )
       134           N   tau( 134) = (   0.8750001   0.0721687   1.1718169  )
       135           N   tau( 135) = (   0.7500001   0.2886751   0.3568774  )
       136           N   tau( 136) = (   0.7500001   0.2886751   0.7643472  )
       137           N   tau( 137) = (   0.7500001   0.2886751   1.1718169  )
       138           N   tau( 138) = (   0.6250001   0.5051814   0.3568774  )
       139           N   tau( 139) = (   0.6250001   0.5051814   0.7643472  )
       140           N   tau( 140) = (   0.6250001   0.5051814   1.1718169  )
       141           N   tau( 141) = (   0.5000001   0.7216878   0.3568774  )
       142           N   tau( 142) = (   0.5000001   0.7216878   0.7643472  )
       143           N   tau( 143) = (   0.5000001   0.7216878   1.1718169  )
       144           N   tau( 144) = (  -0.0000002   0.1443377   0.1531425  )
       145           N   tau( 145) = (  -0.0000002   0.1443377   0.5606123  )
       146           N   tau( 146) = (  -0.0000002   0.1443377   0.9680820  )
       147           N   tau( 147) = (  -0.1250002   0.3608440   0.1531425  )
       148           N   tau( 148) = (  -0.1250002   0.3608440   0.5606123  )
       149           N   tau( 149) = (  -0.1250002   0.3608440   0.9680820  )
       150           N   tau( 150) = (  -0.2500002   0.5773504   0.1531425  )
       151           N   tau( 151) = (  -0.2500002   0.5773504   0.5606123  )
       152           N   tau( 152) = (  -0.2500002   0.5773504   0.9680820  )
       153           N   tau( 153) = (  -0.3750001   0.7938567   0.1531425  )
       154           N   tau( 154) = (  -0.3750001   0.7938567   0.5606123  )
       155           N   tau( 155) = (  -0.3750001   0.7938567   0.9680820  )
       156           N   tau( 156) = (   0.2499998   0.1443377   0.1531425  )
       157           N   tau( 157) = (   0.2499998   0.1443377   0.5606123  )
       158           N   tau( 158) = (   0.2499998   0.1443377   0.9680820  )
       159           N   tau( 159) = (   0.1249998   0.3608440   0.1531425  )
       160           N   tau( 160) = (   0.1249998   0.3608440   0.5606123  )
       161           N   tau( 161) = (   0.1249998   0.3608440   0.9680820  )
       162           N   tau( 162) = (  -0.0000002   0.5773504   0.1531425  )
       163           N   tau( 163) = (  -0.0000002   0.5773504   0.5606123  )
       164           N   tau( 164) = (  -0.0000002   0.5773504   0.9680820  )
       165           N   tau( 165) = (  -0.1250002   0.7938567   0.1531425  )
       166           N   tau( 166) = (  -0.1250002   0.7938567   0.5606123  )
       167           N   tau( 167) = (  -0.1250002   0.7938567   0.9680820  )
       168           N   tau( 168) = (   0.4999998   0.1443377   0.1531425  )
       169           N   tau( 169) = (   0.4999998   0.1443377   0.5606123  )
       170           N   tau( 170) = (   0.4999998   0.1443377   0.9680820  )
       171           N   tau( 171) = (   0.3749998   0.3608440   0.1531425  )
       172           N   tau( 172) = (   0.3749998   0.3608440   0.5606123  )
       173           N   tau( 173) = (   0.3749998   0.3608440   0.9680820  )
       174           N   tau( 174) = (   0.2499998   0.5773504   0.1531425  )
       175           N   tau( 175) = (   0.2499998   0.5773504   0.5606123  )
       176           N   tau( 176) = (   0.2499998   0.5773504   0.9680820  )
       177           N   tau( 177) = (   0.1249998   0.7938567   0.1531425  )
       178           N   tau( 178) = (   0.1249998   0.7938567   0.5606123  )
       179           N   tau( 179) = (   0.1249998   0.7938567   0.9680820  )
       180           N   tau( 180) = (   0.7499998   0.1443377   0.1531425  )
       181           N   tau( 181) = (   0.7499998   0.1443377   0.5606123  )
       182           N   tau( 182) = (   0.7499998   0.1443377   0.9680820  )
       183           N   tau( 183) = (   0.6249998   0.3608440   0.1531425  )
       184           N   tau( 184) = (   0.6249998   0.3608440   0.5606123  )
       185           N   tau( 185) = (   0.6249998   0.3608440   0.9680820  )
       186           N   tau( 186) = (   0.4999998   0.5773504   0.1531425  )
       187           N   tau( 187) = (   0.4999998   0.5773504   0.5606123  )
       188           N   tau( 188) = (   0.4999998   0.5773504   0.9680820  )
       189           N   tau( 189) = (   0.3749998   0.7938567   0.1531425  )
       190           N   tau( 190) = (   0.3749998   0.7938567   0.5606123  )
       191           N   tau( 191) = (   0.3749998   0.7938567   0.9680820  )
       192           Ga  tau( 192) = (   0.1250001   0.0721687   0.3568774  )

   Crystallographic axes

     site n.     atom                  positions (cryst. coord.)
         1           Ga  tau(   1) = (  0.1666667  0.0833333  0.1663874  )
         2           Ga  tau(   2) = (  0.1666667  0.0833333  0.4997208  )
         3           Ga  tau(   3) = (  0.1666667  0.0833333  0.8330541  )
         4           Ga  tau(   4) = (  0.1666667  0.3333333  0.1663874  )
         5           Ga  tau(   5) = (  0.1666667  0.3333333  0.4997208  )
         6           Ga  tau(   6) = (  0.1666667  0.3333333  0.8330541  )
         7           Ga  tau(   7) = (  0.1666667  0.5833333  0.1663874  )
         8           Ga  tau(   8) = (  0.1666667  0.5833333  0.4997208  )
         9           Ga  tau(   9) = (  0.1666667  0.5833333  0.8330541  )
        10           Ga  tau(  10) = (  0.1666667  0.8333333  0.1663874  )
        11           Ga  tau(  11) = (  0.1666667  0.8333333  0.4997208  )
        12           Ga  tau(  12) = (  0.1666667  0.8333333  0.8330541  )
        13           Ga  tau(  13) = (  0.4166667  0.0833333  0.1663874  )
        14           Ga  tau(  14) = (  0.4166667  0.0833333  0.4997208  )
        15           Ga  tau(  15) = (  0.4166667  0.0833333  0.8330541  )
        16           Ga  tau(  16) = (  0.4166667  0.3333333  0.1663874  )
        17           Ga  tau(  17) = (  0.4166667  0.3333333  0.4997208  )
        18           Ga  tau(  18) = (  0.4166667  0.3333333  0.8330541  )
        19           Ga  tau(  19) = (  0.4166667  0.5833333  0.1663874  )
        20           Ga  tau(  20) = (  0.4166667  0.5833333  0.4997208  )
        21           Ga  tau(  21) = (  0.4166667  0.5833333  0.8330541  )
        22           Ga  tau(  22) = (  0.4166667  0.8333333  0.1663874  )
        23           Ga  tau(  23) = (  0.4166667  0.8333333  0.4997208  )
        24           Ga  tau(  24) = (  0.4166667  0.8333333  0.8330541  )
        25           Ga  tau(  25) = (  0.6666667  0.0833333  0.1663874  )
        26           Ga  tau(  26) = (  0.6666667  0.0833333  0.4997208  )
        27           Ga  tau(  27) = (  0.6666667  0.0833333  0.8330541  )
        28           Ga  tau(  28) = (  0.6666667  0.3333333  0.1663874  )
        29           Ga  tau(  29) = (  0.6666667  0.3333333  0.4997208  )
        30           Ga  tau(  30) = (  0.6666667  0.3333333  0.8330541  )
        31           Ga  tau(  31) = (  0.6666667  0.5833333  0.1663874  )
        32           Ga  tau(  32) = (  0.6666667  0.5833333  0.4997208  )
        33           Ga  tau(  33) = (  0.6666667  0.5833333  0.8330541  )
        34           Ga  tau(  34) = (  0.6666667  0.8333333  0.1663874  )
        35           Ga  tau(  35) = (  0.6666667  0.8333333  0.4997208  )
        36           Ga  tau(  36) = (  0.6666667  0.8333333  0.8330541  )
        37           Ga  tau(  37) = (  0.9166667  0.0833333  0.1663874  )
        38           Ga  tau(  38) = (  0.9166667  0.0833333  0.4997208  )
        39           Ga  tau(  39) = (  0.9166667  0.0833333  0.8330541  )
        40           Ga  tau(  40) = (  0.9166667  0.3333333  0.1663874  )
        41           Ga  tau(  41) = (  0.9166667  0.3333333  0.4997208  )
        42           Ga  tau(  42) = (  0.9166667  0.3333333  0.8330541  )
        43           Ga  tau(  43) = (  0.9166667  0.5833333  0.1663874  )
        44           Ga  tau(  44) = (  0.9166667  0.5833333  0.4997208  )
        45           Ga  tau(  45) = (  0.9166667  0.5833333  0.8330541  )
        46           Ga  tau(  46) = (  0.9166667  0.8333333  0.1663874  )
        47           Ga  tau(  47) = (  0.9166667  0.8333333  0.4997208  )
        48           Ga  tau(  48) = (  0.9166667  0.8333333  0.8330541  )
        49           Ga  tau(  49) = (  0.0833333  0.1666668  0.3330541  )
        50           Ga  tau(  50) = (  0.0833333  0.1666668  0.6663874  )
        51           Ga  tau(  51) = (  0.0833333  0.1666668  0.9997208  )
        52           Ga  tau(  52) = (  0.0833333  0.4166668  0.3330541  )
        53           Ga  tau(  53) = (  0.0833333  0.4166668  0.6663874  )
        54           Ga  tau(  54) = (  0.0833333  0.4166668  0.9997208  )
        55           Ga  tau(  55) = (  0.0833333  0.6666668  0.3330541  )
        56           Ga  tau(  56) = (  0.0833333  0.6666668  0.6663874  )
        57           Ga  tau(  57) = (  0.0833333  0.6666668  0.9997208  )
        58           Ga  tau(  58) = (  0.0833333  0.9166668  0.3330541  )
        59           Ga  tau(  59) = (  0.0833333  0.9166668  0.6663874  )
        60           Ga  tau(  60) = (  0.0833333  0.9166668  0.9997208  )
        61           Ga  tau(  61) = (  0.3333332  0.1666668  0.3330541  )
        62           Ga  tau(  62) = (  0.3333332  0.1666668  0.6663874  )
        63           Ga  tau(  63) = (  0.3333332  0.1666668  0.9997208  )
        64           Ga  tau(  64) = (  0.3333332  0.4166668  0.3330541  )
        65           Ga  tau(  65) = (  0.3333332  0.4166668  0.6663874  )
        66           Ga  tau(  66) = (  0.3333332  0.4166668  0.9997208  )
        67           Ga  tau(  67) = (  0.3333332  0.6666668  0.3330541  )
        68           Ga  tau(  68) = (  0.3333332  0.6666668  0.6663874  )
        69           Ga  tau(  69) = (  0.3333332  0.6666668  0.9997208  )
        70           Ga  tau(  70) = (  0.3333332  0.9166668  0.3330541  )
        71           Ga  tau(  71) = (  0.3333332  0.9166668  0.6663874  )
        72           Ga  tau(  72) = (  0.3333332  0.9166668  0.9997208  )
        73           Ga  tau(  73) = (  0.5833332  0.1666668  0.3330541  )
        74           Ga  tau(  74) = (  0.5833332  0.1666668  0.6663874  )
        75           Ga  tau(  75) = (  0.5833332  0.1666668  0.9997208  )
        76           Ga  tau(  76) = (  0.5833332  0.4166668  0.3330541  )
        77           Ga  tau(  77) = (  0.5833332  0.4166668  0.6663874  )
        78           Ga  tau(  78) = (  0.5833332  0.4166668  0.9997208  )
        79           Ga  tau(  79) = (  0.5833332  0.6666668  0.3330541  )
        80           Ga  tau(  80) = (  0.5833332  0.6666668  0.6663874  )
        81           Ga  tau(  81) = (  0.5833332  0.6666668  0.9997208  )
        82           Ga  tau(  82) = (  0.5833332  0.9166668  0.3330541  )
        83           Ga  tau(  83) = (  0.5833332  0.9166668  0.6663874  )
        84           Ga  tau(  84) = (  0.5833332  0.9166668  0.9997208  )
        85           Ga  tau(  85) = (  0.8333332  0.1666668  0.3330541  )
        86           Ga  tau(  86) = (  0.8333332  0.1666668  0.6663874  )
        87           Ga  tau(  87) = (  0.8333332  0.1666668  0.9997208  )
        88           Ga  tau(  88) = (  0.8333332  0.4166668  0.3330541  )
        89           Ga  tau(  89) = (  0.8333332  0.4166668  0.6663874  )
        90           Ga  tau(  90) = (  0.8333332  0.4166668  0.9997208  )
        91           Ga  tau(  91) = (  0.8333332  0.6666668  0.3330541  )
        92           Ga  tau(  92) = (  0.8333332  0.6666668  0.6663874  )
        93           Ga  tau(  93) = (  0.8333332  0.6666668  0.9997208  )
        94           Ga  tau(  94) = (  0.8333332  0.9166668  0.3330541  )
        95           Ga  tau(  95) = (  0.8333332  0.9166668  0.6663874  )
        96           Ga  tau(  96) = (  0.8333332  0.9166668  0.9997208  )
        97           N   tau(  97) = (  0.1666667  0.0833333  0.6252792  )
        98           N   tau(  98) = (  0.1666667  0.0833333  0.9586126  )
        99           N   tau(  99) = (  0.1666667  0.3333333  0.2919459  )
       100           N   tau( 100) = (  0.1666667  0.3333333  0.6252792  )
       101           N   tau( 101) = (  0.1666667  0.3333333  0.9586126  )
       102           N   tau( 102) = (  0.1666667  0.5833333  0.2919459  )
       103           N   tau( 103) = (  0.1666667  0.5833333  0.6252792  )
       104           N   tau( 104) = (  0.1666667  0.5833333  0.9586126  )
       105           N   tau( 105) = (  0.1666667  0.8333333  0.2919459  )
       106           N   tau( 106) = (  0.1666667  0.8333333  0.6252792  )
       107           N   tau( 107) = (  0.1666667  0.8333333  0.9586126  )
       108           N   tau( 108) = (  0.4166667  0.0833333  0.2919459  )
       109           N   tau( 109) = (  0.4166667  0.0833333  0.6252792  )
       110           N   tau( 110) = (  0.4166667  0.0833333  0.9586126  )
       111           N   tau( 111) = (  0.4166667  0.3333333  0.2919459  )
       112           N   tau( 112) = (  0.4166667  0.3333333  0.6252792  )
       113           N   tau( 113) = (  0.4166667  0.3333333  0.9586126  )
       114           N   tau( 114) = (  0.4166667  0.5833333  0.2919459  )
       115           N   tau( 115) = (  0.4166667  0.5833333  0.6252792  )
       116           N   tau( 116) = (  0.4166667  0.5833333  0.9586126  )
       117           N   tau( 117) = (  0.4166667  0.8333333  0.2919459  )
       118           N   tau( 118) = (  0.4166667  0.8333333  0.6252792  )
       119           N   tau( 119) = (  0.4166667  0.8333333  0.9586126  )
       120           N   tau( 120) = (  0.6666667  0.0833333  0.2919459  )
       121           N   tau( 121) = (  0.6666667  0.0833333  0.6252792  )
       122           N   tau( 122) = (  0.6666667  0.0833333  0.9586126  )
       123           N   tau( 123) = (  0.6666667  0.3333333  0.2919459  )
       124           N   tau( 124) = (  0.6666667  0.3333333  0.6252792  )
       125           N   tau( 125) = (  0.6666667  0.3333333  0.9586126  )
       126           N   tau( 126) = (  0.6666667  0.5833333  0.2919459  )
       127           N   tau( 127) = (  0.6666667  0.5833333  0.6252792  )
       128           N   tau( 128) = (  0.6666667  0.5833333  0.9586126  )
       129           N   tau( 129) = (  0.6666667  0.8333333  0.2919459  )
       130           N   tau( 130) = (  0.6666667  0.8333333  0.6252792  )
       131           N   tau( 131) = (  0.6666667  0.8333333  0.9586126  )
       132           N   tau( 132) = (  0.9166667  0.0833333  0.2919459  )
       133           N   tau( 133) = (  0.9166667  0.0833333  0.6252792  )
       134           N   tau( 134) = (  0.9166667  0.0833333  0.9586126  )
       135           N   tau( 135) = (  0.9166667  0.3333333  0.2919459  )
       136           N   tau( 136) = (  0.9166667  0.3333333  0.6252792  )
       137           N   tau( 137) = (  0.9166667  0.3333333  0.9586126  )
       138           N   tau( 138) = (  0.9166667  0.5833333  0.2919459  )
       139           N   tau( 139) = (  0.9166667  0.5833333  0.6252792  )
       140           N   tau( 140) = (  0.9166667  0.5833333  0.9586126  )
       141           N   tau( 141) = (  0.9166667  0.8333333  0.2919459  )
       142           N   tau( 142) = (  0.9166667  0.8333333  0.6252792  )
       143           N   tau( 143) = (  0.9166667  0.8333333  0.9586126  )
       144           N   tau( 144) = (  0.0833333  0.1666668  0.1252792  )
       145           N   tau( 145) = (  0.0833333  0.1666668  0.4586126  )
       146           N   tau( 146) = (  0.0833333  0.1666668  0.7919459  )
       147           N   tau( 147) = (  0.0833333  0.4166668  0.1252792  )
       148           N   tau( 148) = (  0.0833333  0.4166668  0.4586126  )
       149           N   tau( 149) = (  0.0833333  0.4166668  0.7919459  )
       150           N   tau( 150) = (  0.0833333  0.6666668  0.1252792  )
       151           N   tau( 151) = (  0.0833333  0.6666668  0.4586126  )
       152           N   tau( 152) = (  0.0833333  0.6666668  0.7919459  )
       153           N   tau( 153) = (  0.0833333  0.9166668  0.1252792  )
       154           N   tau( 154) = (  0.0833333  0.9166668  0.4586126  )
       155           N   tau( 155) = (  0.0833333  0.9166668  0.7919459  )
       156           N   tau( 156) = (  0.3333332  0.1666668  0.1252792  )
       157           N   tau( 157) = (  0.3333332  0.1666668  0.4586126  )
       158           N   tau( 158) = (  0.3333332  0.1666668  0.7919459  )
       159           N   tau( 159) = (  0.3333332  0.4166668  0.1252792  )
       160           N   tau( 160) = (  0.3333332  0.4166668  0.4586126  )
       161           N   tau( 161) = (  0.3333332  0.4166668  0.7919459  )
       162           N   tau( 162) = (  0.3333332  0.6666668  0.1252792  )
       163           N   tau( 163) = (  0.3333332  0.6666668  0.4586126  )
       164           N   tau( 164) = (  0.3333332  0.6666668  0.7919459  )
       165           N   tau( 165) = (  0.3333332  0.9166668  0.1252792  )
       166           N   tau( 166) = (  0.3333332  0.9166668  0.4586126  )
       167           N   tau( 167) = (  0.3333332  0.9166668  0.7919459  )
       168           N   tau( 168) = (  0.5833332  0.1666668  0.1252792  )
       169           N   tau( 169) = (  0.5833332  0.1666668  0.4586126  )
       170           N   tau( 170) = (  0.5833332  0.1666668  0.7919459  )
       171           N   tau( 171) = (  0.5833332  0.4166668  0.1252792  )
       172           N   tau( 172) = (  0.5833332  0.4166668  0.4586126  )
       173           N   tau( 173) = (  0.5833332  0.4166668  0.7919459  )
       174           N   tau( 174) = (  0.5833332  0.6666668  0.1252792  )
       175           N   tau( 175) = (  0.5833332  0.6666668  0.4586126  )
       176           N   tau( 176) = (  0.5833332  0.6666668  0.7919459  )
       177           N   tau( 177) = (  0.5833332  0.9166668  0.1252792  )
       178           N   tau( 178) = (  0.5833332  0.9166668  0.4586126  )
       179           N   tau( 179) = (  0.5833332  0.9166668  0.7919459  )
       180           N   tau( 180) = (  0.8333332  0.1666668  0.1252792  )
       181           N   tau( 181) = (  0.8333332  0.1666668  0.4586126  )
       182           N   tau( 182) = (  0.8333332  0.1666668  0.7919459  )
       183           N   tau( 183) = (  0.8333332  0.4166668  0.1252792  )
       184           N   tau( 184) = (  0.8333332  0.4166668  0.4586126  )
       185           N   tau( 185) = (  0.8333332  0.4166668  0.7919459  )
       186           N   tau( 186) = (  0.8333332  0.6666668  0.1252792  )
       187           N   tau( 187) = (  0.8333332  0.6666668  0.4586126  )
       188           N   tau( 188) = (  0.8333332  0.6666668  0.7919459  )
       189           N   tau( 189) = (  0.8333332  0.9166668  0.1252792  )
       190           N   tau( 190) = (  0.8333332  0.9166668  0.4586126  )
       191           N   tau( 191) = (  0.8333332  0.9166668  0.7919459  )
       192           Ga  tau( 192) = (  0.1666667  0.0833333  0.2919459  )

     number of k points=     4  Gaussian smearing, width (Ry)=  0.0100
                       cart. coord. in units 2pi/alat
        k(    1) = (   0.0000000   0.0000000   0.0000000), wk =   0.2500000
        k(    2) = (   0.0000000   0.0000000  -0.4090283), wk =   0.2500000
        k(    3) = (   0.0000000  -0.5773503   0.0000000), wk =   0.7500000
        k(    4) = (   0.0000000  -0.5773503  -0.4090283), wk =   0.7500000

                       cryst. coord.
        k(    1) = (   0.0000000   0.0000000   0.0000000), wk =   0.2500000
        k(    2) = (   0.0000000   0.0000000  -0.5000000), wk =   0.2500000
        k(    3) = (   0.0000000  -0.5000000   0.0000000), wk =   0.7500000
        k(    4) = (   0.0000000  -0.5000000  -0.5000000), wk =   0.7500000

     Dense  grid:  1726709 G-vectors     FFT dimensions: ( 160, 160, 180)

     Smooth grid:  1235535 G-vectors     FFT dimensions: ( 144, 144, 160)

     Dynamical RAM for                 wfc:      38.40 MB

     Dynamical RAM for     wfc (w. buffer):     115.21 MB

     Dynamical RAM for           str. fact:       0.82 MB

     Dynamical RAM for           local pot:       0.00 MB

     Dynamical RAM for          nlocal pot:      92.27 MB

     Dynamical RAM for                qrad:       3.00 MB

     Dynamical RAM for          rho,v,vnew:       2.99 MB

     Dynamical RAM for               rhoin:       1.00 MB

     Dynamical RAM for            rho*nmix:       6.59 MB

     Dynamical RAM for           G-vectors:       1.69 MB

     Dynamical RAM for          h,s,v(r/c):     796.76 MB

     Dynamical RAM for          <psi|beta>:      39.88 MB

     Dynamical RAM for                 psi:     153.61 MB

     Dynamical RAM for                hpsi:     153.61 MB

     Dynamical RAM for                spsi:     153.61 MB

     Dynamical RAM for      wfcinit/wfcrot:     101.71 MB

     Dynamical RAM for           addusdens:      58.46 MB

     Dynamical RAM for          addusforce:      98.36 MB

     Dynamical RAM for         addusstress:      41.48 MB

     Estimated static dynamical RAM per process >     221.15 MB

     Estimated max dynamical RAM per process >       1.49 GB

     Estimated total dynamical RAM >     190.24 GB

     Atomic positions and unit cell read from directory:
     ./GaN.save/
     Atomic positions from file used, from input discarded
 

     Check: negative core charge=   -0.000003

     The initial density is read from file :
     ./GaN.save/charge-density



     %%%%%%%%%%%%%%%%%%%%%%%%%%%%%%%%%%%%%%%%%%%%%%%%%%%%%%%%%%%%%%%%%%%%%%%%
     %                                                                      %
     % You are using vdW-DF, which was implemented by the Thonhauser group. %
     % Please cite the following two papers that made this development      %
     % possible and the two reviews that describe the various versions:     %
     %                                                                      %
     %   T. Thonhauser et al., PRL 115, 136402 (2015).                      %
     %   T. Thonhauser et al., PRB 76, 125112 (2007).                       %
     %   K. Berland et al., Rep. Prog. Phys. 78, 066501 (2015).             %
     %   D.C. Langreth et al., J. Phys.: Condens. Matter 21, 084203 (2009). %
     %                                                                      %
     % If you are calculating stress with vdW-DF, please also cite:         %
     %                                                                      %
     %   R. Sabatini et al., J. Phys.: Condens. Matter 24, 424209 (2012).   %
     %                                                                      %
     %%%%%%%%%%%%%%%%%%%%%%%%%%%%%%%%%%%%%%%%%%%%%%%%%%%%%%%%%%%%%%%%%%%%%%%%

     %%%%%%%%%%%%%%%%%%%%%%%%%%%%%%%%%%%%%%%%%%%%%%%%%%%%%%%%%%%%%%%%%%%%%%%%
     %                                                                      %
     %  vdW-DF NEWS:                                                        %
     %                                                                      %
     %  * vdW-DF3 is now available. DOI: 10.1021/acs.jctc.0c00471           %
     %    use with input_dft = 'vdW-DF3-opt1' or 'vdW-DF3-opt2'             %
     %                                                                      %
     %  * Unscreened and range-separated vdW-DF hybrid functionals          %
     %    DOI: 10.1063/1.4986522 and 10.1088/1361-648X/ac2ad2               %
     %    use with input_dft = 'vdW-DF-cx0' (etc) and 'vdW-DF-ahcx'         %
     %                                                                      %
     %%%%%%%%%%%%%%%%%%%%%%%%%%%%%%%%%%%%%%%%%%%%%%%%%%%%%%%%%%%%%%%%%%%%%%%%


     Carrying out vdW-DF run using the following parameters:
     Nqs    =  20  Npoints =  1024  r_max =  100.000
     q_mesh =  0.00001000  0.04494208  0.09755937  0.15916263
               0.23128650  0.31572767  0.41458969  0.53033537
               0.66584808  0.82450364  1.01025438  1.22772762
               1.48234092  1.78043706  2.12944203  2.53805004
               3.01644009  3.57652955  4.23227104  5.00000000


     -----------------------------------------------
     Non-local corr. energy    =      52.68619656 Ry
     -----------------------------------------------

     Starting wfcs from file
     Checking if some PAW data can be deallocated... 
       PAW data deallocated on   79 nodes for type:  1
       PAW data deallocated on   49 nodes for type:  2

     total cpu time spent up to now is       22.9 secs

     Self-consistent Calculation

     iteration #  1     ecut=    70.00 Ry     beta= 0.70
     Davidson diagonalization with overlap

---- Real-time Memory Report at c_bands before calling an iterative solver
           365 MiB given to the printing process from OS
             0 MiB allocation reported by mallinfo(arena+hblkhd)
       1882328 MiB available memory on the node where the printing process lives
------------------
     ethr =  1.00E-05,  avg # of iterations =  1.0

     Threshold (ethr) on eigenvalues was too large:
     Diagonalizing with lowered threshold

     Davidson diagonalization with overlap

---- Real-time Memory Report at c_bands before calling an iterative solver
          1115 MiB given to the printing process from OS
             0 MiB allocation reported by mallinfo(arena+hblkhd)
       1873705 MiB available memory on the node where the printing process lives
------------------
     c_bands:  2 eigenvalues not converged
     ethr =  7.93E-14,  avg # of iterations = 15.8


     -----------------------------------------------
     Non-local corr. energy    =      52.68619655 Ry
     -----------------------------------------------


     total cpu time spent up to now is      778.2 secs

     End of self-consistent calculation

          k = 0.0000 0.0000 0.0000 (154543 PWs)   bands (ev):

    -6.8329  -6.6247  -6.6045  -6.5281  -6.5281  -6.5197  -6.5197  -6.5196
    -6.4821  -6.4234  -6.4234  -6.4109  -6.4097  -6.4063  -6.4063  -6.4038
    -6.4038  -6.3978  -6.3883  -6.3864  -6.3792  -6.3791  -6.3738  -6.3721
    -6.3720  -6.3578  -6.3550  -6.3550  -6.3506  -6.3483  -6.3483  -6.3411
    -6.3410  -6.3409  -6.3389  -6.3366  -6.3366  -6.3332  -6.3286  -6.3281
    -6.3281  -6.3252  -6.3226  -6.3225  -6.3225  -6.3177  -6.3177  -6.3125
    -6.3082  -6.3082  -6.3054  -6.3036  -6.3036  -6.3030  -6.3030  -6.3027
    -6.2951  -6.2951  -6.2929  -6.2913  -6.2913  -6.2871  -6.2858  -6.2858
    -6.2849  -6.2840  -6.2840  -6.2815  -6.2811  -6.2810  -6.2727  -6.2693
    -6.2669  -6.2669  -6.2583  -6.2583  -6.2528  -6.2528  -6.2522  -6.2501
    -6.2501  -6.2466  -6.2367  -6.2271  -6.2271  -6.2236  -6.2124  -6.2124
    -6.2028  -6.1929  -6.1929  -6.1720  -6.1649  -6.1182  -6.1182  -5.2375
    -5.2375  -5.2283  -5.2205  -5.2205  -5.2168  -5.2142  -5.2142  -5.2139
    -5.2114  -5.2089  -5.2089  -5.2024  -5.2024  -5.2004  -5.1989  -5.1989
    -5.1960  -5.1960  -5.1953  -5.1935  -5.1935  -5.1928  -5.1928  -5.1895
    -5.1894  -5.1884  -5.1882  -5.1882  -5.1859  -5.1859  -5.1805  -5.1805
    -5.1777  -5.1777  -5.1763  -5.1763  -5.1755  -5.1730  -5.1714  -5.1674
    -5.1665  -5.1665  -5.1652  -5.1652  -5.1635  -5.1614  -5.1612  -5.1612
    -5.1604  -5.1597  -5.1597  -5.1590  -5.1589  -5.1589  -5.1551  -5.1551
    -5.1527  -5.1527  -5.1519  -5.1504  -5.1502  -5.1502  -5.1467  -5.1464
    -5.1464  -5.1450  -5.1450  -5.1443  -5.1437  -5.1432  -5.1432  -5.1427
    -5.1417  -5.1409  -5.1409  -5.1395  -5.1395  -5.1392  -5.1392  -5.1389
    -5.1362  -5.1362  -5.1355  -5.1351  -5.1351  -5.1340  -5.1340  -5.1316
    -5.1316  -5.1309  -5.1302  -5.1302  -5.1275  -5.1270  -5.1268  -5.1268
    -5.1247  -5.1247  -5.1217  -5.1210  -5.1204  -5.1204  -5.1198  -5.1190
    -5.1175  -5.1175  -5.1147  -5.1147  -5.1129  -5.1124  -5.1124  -5.1101
    -5.1089  -5.1089  -5.1071  -5.1054  -5.1054  -5.1042  -5.1042  -5.1006
    -5.1006  -5.1005  -5.0983  -5.0976  -5.0962  -5.0962  -5.0944  -5.0924
    -5.0924  -5.0923  -5.0898  -5.0898  -5.0893  -5.0893  -5.0872  -5.0865
    -5.0865  -5.0853  -5.0852  -5.0827  -5.0827  -5.0807  -5.0790  -5.0790
    -5.0790  -5.0760  -5.0756  -5.0755  -5.0755  -5.0731  -5.0731  -5.0704
    -5.0695  -5.0695  -5.0691  -5.0691  -5.0682  -5.0661  -5.0660  -5.0660
    -5.0646  -5.0643  -5.0643  -5.0641  -5.0630  -5.0630  -5.0624  -5.0601
    -5.0601  -5.0580  -5.0554  -5.0554  -5.0541  -5.0541  -5.0524  -5.0524
    -5.0511  -5.0502  -5.0498  -5.0488  -5.0481  -5.0481  -5.0474  -5.0474
    -5.0460  -5.0460  -5.0446  -5.0441  -5.0441  -5.0432  -5.0421  -5.0421
    -5.0420  -5.0411  -5.0410  -5.0410  -5.0386  -5.0385  -5.0385  -5.0375
    -5.0375  -5.0373  -5.0368  -5.0368  -5.0347  -5.0345  -5.0338  -5.0338
    -5.0330  -5.0330  -5.0313  -5.0296  -5.0284  -5.0284  -5.0277  -5.0277
    -5.0262  -5.0262  -5.0261  -5.0258  -5.0240  -5.0236  -5.0236  -5.0235
    -5.0214  -5.0214  -5.0195  -5.0195  -5.0194  -5.0181  -5.0181  -5.0168
    -5.0161  -5.0147  -5.0147  -5.0134  -5.0127  -5.0127  -5.0122  -5.0108
    -5.0104  -5.0104  -5.0098  -5.0098  -5.0092  -5.0076  -5.0076  -5.0068
    -5.0060  -5.0060  -5.0039  -5.0038  -5.0038  -5.0024  -5.0005  -4.9993
    -4.9993  -4.9979  -4.9965  -4.9965  -4.9946  -4.9946  -4.9927  -4.9925
    -4.9925  -4.9922  -4.9922  -4.9908  -4.9908  -4.9898  -4.9898  -4.9891
    -4.9866  -4.9860  -4.9860  -4.9860  -4.9833  -4.9832  -4.9832  -4.9828
    -4.9828  -4.9821  -4.9808  -4.9795  -4.9784  -4.9784  -4.9776  -4.9754
    -4.9754  -4.9749  -4.9749  -4.9747  -4.9738  -4.9738  -4.9724  -4.9724
    -4.9688  -4.9688  -4.9685  -4.9662  -4.9661  -4.9648  -4.9634  -4.9633
    -4.9633  -4.9623  -4.9623  -4.9622  -4.9612  -4.9605  -4.9604  -4.9598
    -4.9598  -4.9591  -4.9591  -4.9550  -4.9550  -4.9510  -4.9507  -4.9507
    -4.9507  -4.9496  -4.9482  -4.9472  -4.9472  -4.9449  -4.9443  -4.9443
    -4.9430  -4.9403  -4.9403  -4.9393  -4.9387  -4.9384  -4.9384  -4.9383
    -4.9367  -4.9367  -4.9322  -4.9322  -4.9282  -4.9269  -4.9269  -4.9252
    -4.9235  -4.9235  -4.9222  -4.9210  -4.9210  -4.9183  -4.9183  -4.9175
    -4.9113  -4.9113  -4.9092  -4.9053  -4.9052  -4.9040  -4.9001  -4.9001
    -4.8958  -4.8930  -4.8930  -4.8906  -4.8795  -4.8775  -4.8775  -4.8686
    -4.8686  -4.8443  -4.8443  -4.8420  -4.8382  -4.8113  -4.8113  -4.8001
    -4.7878  -4.7878  -4.7715  -4.7622  -4.7622  -4.7603  -4.7200  -4.7200
    -4.7163  -4.6819  -4.6776  -4.6775  -4.6521  -4.6179  -4.6179  -4.5495
    -4.5461  -4.5460  -4.5381  -4.5328  -4.5328  -4.5088  -4.5088  -4.4791
    -4.4493  -4.4492  -4.4240  -4.4240  -4.3223  -4.2212  -4.1757  -3.8851
    -3.8851  -3.8160  -3.8160  -3.8047  -3.7366  -3.7339  -3.7305  -3.7305
    -3.7230  -3.7230  -3.7194  -3.7180  -3.7180  -3.7063  -3.7063  -3.6904
    -3.6887  -3.6887  -3.6728  -3.6728  -3.6105  -3.5761  -3.5541  -3.5541
    -3.5534  -3.5326  -3.5326  -3.5318  -3.5127  -3.5127  -3.5123  -3.5033
    -3.5032  -3.4943  -3.4753  -3.4753  -3.4639  -3.4243  -3.4163  -3.4162
    -3.4082  -3.3454  -3.3453  -3.2256  -3.1319  -3.1207  -3.1207  -3.1205
    -3.1205  -3.1110  -3.0872  -3.0794  -3.0794  -3.0585  -3.0585  -3.0568
    -3.0530  -3.0530  -3.0496  -3.0496  -3.0354  -3.0354  -3.0325  -3.0250
    -2.9761  -2.9760  -2.9730  -2.9637  -2.9219  -2.9219  -2.7968  -2.7619
    -2.7619  -2.7484  -2.7308  -2.7308   2.0317   2.1353   2.3303   2.3445
     2.3446   2.3512   2.3668   2.3668   2.6230   2.6238   2.6238   2.8012
     2.8012   2.8097   2.8269   2.8269   2.8621   2.8826   2.8826   2.8981
     2.9057   2.9093   2.9094   2.9118   2.9186   2.9186   2.9273   2.9273
     2.9500   2.9500   2.9547   2.9771   3.0461   3.0462   3.0767   3.2082
     3.2239   3.2240   3.2852   3.2852   3.3159   3.3615   3.3615   3.3784
     3.3785   3.3863   3.4212   3.4235   3.4235   3.4590   3.4890   3.4891
     3.4897   3.6135   3.6364   3.6364   3.6398   3.6411   3.6497   3.6497
     3.6506   3.6553   3.6798   3.6798   3.6955   3.6955   3.7351   3.7351
     3.8303   3.8772   3.8773   3.9130   3.9139   3.9654   3.9655   4.3758
     4.8446   4.8447   4.8745   4.9425   4.9436   4.9437   4.9602   4.9603
     4.9616   4.9747   4.9748   4.9779   4.9779   4.9834   4.9915   4.9995
     5.0119   5.0119   5.0248   5.0248   5.0251   5.0347   5.0347   5.0424
     5.0440   5.0486   5.0486   5.0643   5.0643   5.1268   5.1268   5.1911
     5.1957   5.2095   5.2095   5.2300   5.2320   5.2492   5.2492   5.3000
     5.3000   5.3157   5.4542   5.4542   5.6045   5.9398   5.9433   5.9433
     5.9655   5.9656   5.9832   5.9832   5.9841   5.9962   6.0005   6.0005
     6.0303   6.0304   6.0394   6.0435   6.0435   6.0734   6.1308   6.1438
     6.1438   6.1506   6.1571   6.1576   6.1576   6.1580   6.1811   6.1837
     6.1837   6.1856   6.1856   6.2004   6.2004   6.2359   6.2359   6.2398
     6.2774   6.3382   6.3382   6.3948   6.4077   6.4559   6.4559   6.4677
     6.4677   6.4729   6.5149   6.5155   6.5156   6.5250   6.5368   6.5368
     6.5919   6.5970   6.5970   6.6450   6.6690   6.6784   6.6785   6.8121
     6.8121   6.8310   6.8467   6.8524   6.8683   6.8683   6.9053   6.9289
     6.9289   6.9558   6.9558   6.9688   7.0176   7.0176   7.0283   7.0395
     7.0395   7.0640   7.0640   7.1740   7.2019   7.2158   7.2513   7.2535
     7.2535   7.2780   7.2815   7.2815   7.3041   7.3041   7.3138   7.3382
     7.3390   7.3391   7.3510   7.3510   7.3586   7.3586   7.3793   7.4221
     7.4222   7.4298   7.4421   7.5155   7.5156   7.5246   7.5246   7.5275
     7.5443   7.5450   7.5450   7.5686   7.5686   7.5688   7.5960   7.5960
     7.6263   7.6710   7.6710   7.6734   7.6762   7.6762   7.6875   7.6897
     7.6897   7.7861   7.7861   7.7866   7.8404   7.8405   7.8885   7.8935
     7.8935   7.9259   7.9500   7.9658   7.9658   7.9783   7.9783   7.9854
     7.9855   7.9866   8.0104   8.0594   8.0595   8.0822   8.0823   8.0851
     8.1440   8.1543   8.1543   8.1819   8.1819   8.2954   8.2954   8.3322
     8.3695   8.3695   8.3885   8.5245   8.5245   8.5907   8.5907   8.7522
     8.8028   8.8029  10.2330  10.4105  10.5313  10.5314  12.1150  12.1243
    12.7116  12.7680  12.7791  12.7899  12.7899  12.8223  12.8224  12.8255
    12.8436  12.8915  12.8915  12.9059  12.9196  12.9196  13.0176  13.1448
    13.1448  13.1459  13.1724  13.1724  13.1819  13.1946  13.1946  13.2143
    13.2143  13.2767  13.4281  13.7374  13.7375  13.7577  13.7577  13.7604
    13.7985  13.8919  13.8920  13.8931  14.0708  14.0709  14.0868  14.3038
    14.3038  14.3044  14.3667  14.3667  14.3889  14.3921  14.3933  14.3933
    14.4055  14.4055  14.4189  14.4190  14.4288  14.4372  14.4373  14.4434
    14.4456  14.4456  14.4491  14.4527  14.4727  14.4727  14.5070  14.5070
    14.5266  14.5374  14.6305  14.6305  14.7398  14.7435  14.7435  14.8021
    14.8021  14.8083  14.8175  14.8431  14.8431  14.8569  14.8892  14.8893
    14.8956  14.9239  14.9239  14.9479  14.9479  14.9634  14.9820  14.9820
    15.0154  15.0209  15.0210  15.0640  15.1856  15.1856  15.2391  15.5906
    15.8325  15.8957  15.8957  15.9305  15.9305  15.9487  15.9802  15.9994
    15.9995  16.0211  16.0211  16.0327  16.0537  16.0537  16.0747  16.1069
    16.1069  16.1636  16.1636  16.1696  16.1827  16.1996  16.2167  16.2167
    16.2345  16.2345  16.2583  16.2941  16.3080  16.3080  16.4034  16.4050
    16.4050  16.4355  16.4355  16.4526  16.4677  16.4848  16.4848  16.4921
    16.4961  16.4980  16.4980  16.5118  16.5118  16.5369  16.5434  16.5453
    16.5453  16.5484  16.5484  16.5576  16.5576  16.5834  16.5900  16.5980
    16.5980  16.6043  16.6043  16.6121  16.6194  16.6209  16.6209  16.6347
    16.6347  16.6646  16.6673  16.6674  16.6837  16.6867  16.6867  16.7081
    16.7419  16.7419  16.7855

     occupation numbers 
     1.0000   1.0000   1.0000   1.0000   1.0000   1.0000   1.0000   1.0000
     1.0000   1.0000   1.0000   1.0000   1.0000   1.0000   1.0000   1.0000
     1.0000   1.0000   1.0000   1.0000   1.0000   1.0000   1.0000   1.0000
     1.0000   1.0000   1.0000   1.0000   1.0000   1.0000   1.0000   1.0000
     1.0000   1.0000   1.0000   1.0000   1.0000   1.0000   1.0000   1.0000
     1.0000   1.0000   1.0000   1.0000   1.0000   1.0000   1.0000   1.0000
     1.0000   1.0000   1.0000   1.0000   1.0000   1.0000   1.0000   1.0000
     1.0000   1.0000   1.0000   1.0000   1.0000   1.0000   1.0000   1.0000
     1.0000   1.0000   1.0000   1.0000   1.0000   1.0000   1.0000   1.0000
     1.0000   1.0000   1.0000   1.0000   1.0000   1.0000   1.0000   1.0000
     1.0000   1.0000   1.0000   1.0000   1.0000   1.0000   1.0000   1.0000
     1.0000   1.0000   1.0000   1.0000   1.0000   1.0000   1.0000   1.0000
     1.0000   1.0000   1.0000   1.0000   1.0000   1.0000   1.0000   1.0000
     1.0000   1.0000   1.0000   1.0000   1.0000   1.0000   1.0000   1.0000
     1.0000   1.0000   1.0000   1.0000   1.0000   1.0000   1.0000   1.0000
     1.0000   1.0000   1.0000   1.0000   1.0000   1.0000   1.0000   1.0000
     1.0000   1.0000   1.0000   1.0000   1.0000   1.0000   1.0000   1.0000
     1.0000   1.0000   1.0000   1.0000   1.0000   1.0000   1.0000   1.0000
     1.0000   1.0000   1.0000   1.0000   1.0000   1.0000   1.0000   1.0000
     1.0000   1.0000   1.0000   1.0000   1.0000   1.0000   1.0000   1.0000
     1.0000   1.0000   1.0000   1.0000   1.0000   1.0000   1.0000   1.0000
     1.0000   1.0000   1.0000   1.0000   1.0000   1.0000   1.0000   1.0000
     1.0000   1.0000   1.0000   1.0000   1.0000   1.0000   1.0000   1.0000
     1.0000   1.0000   1.0000   1.0000   1.0000   1.0000   1.0000   1.0000
     1.0000   1.0000   1.0000   1.0000   1.0000   1.0000   1.0000   1.0000
     1.0000   1.0000   1.0000   1.0000   1.0000   1.0000   1.0000   1.0000
     1.0000   1.0000   1.0000   1.0000   1.0000   1.0000   1.0000   1.0000
     1.0000   1.0000   1.0000   1.0000   1.0000   1.0000   1.0000   1.0000
     1.0000   1.0000   1.0000   1.0000   1.0000   1.0000   1.0000   1.0000
     1.0000   1.0000   1.0000   1.0000   1.0000   1.0000   1.0000   1.0000
     1.0000   1.0000   1.0000   1.0000   1.0000   1.0000   1.0000   1.0000
     1.0000   1.0000   1.0000   1.0000   1.0000   1.0000   1.0000   1.0000
     1.0000   1.0000   1.0000   1.0000   1.0000   1.0000   1.0000   1.0000
     1.0000   1.0000   1.0000   1.0000   1.0000   1.0000   1.0000   1.0000
     1.0000   1.0000   1.0000   1.0000   1.0000   1.0000   1.0000   1.0000
     1.0000   1.0000   1.0000   1.0000   1.0000   1.0000   1.0000   1.0000
     1.0000   1.0000   1.0000   1.0000   1.0000   1.0000   1.0000   1.0000
     1.0000   1.0000   1.0000   1.0000   1.0000   1.0000   1.0000   1.0000
     1.0000   1.0000   1.0000   1.0000   1.0000   1.0000   1.0000   1.0000
     1.0000   1.0000   1.0000   1.0000   1.0000   1.0000   1.0000   1.0000
     1.0000   1.0000   1.0000   1.0000   1.0000   1.0000   1.0000   1.0000
     1.0000   1.0000   1.0000   1.0000   1.0000   1.0000   1.0000   1.0000
     1.0000   1.0000   1.0000   1.0000   1.0000   1.0000   1.0000   1.0000
     1.0000   1.0000   1.0000   1.0000   1.0000   1.0000   1.0000   1.0000
     1.0000   1.0000   1.0000   1.0000   1.0000   1.0000   1.0000   1.0000
     1.0000   1.0000   1.0000   1.0000   1.0000   1.0000   1.0000   1.0000
     1.0000   1.0000   1.0000   1.0000   1.0000   1.0000   1.0000   1.0000
     1.0000   1.0000   1.0000   1.0000   1.0000   1.0000   1.0000   1.0000
     1.0000   1.0000   1.0000   1.0000   1.0000   1.0000   1.0000   1.0000
     1.0000   1.0000   1.0000   1.0000   1.0000   1.0000   1.0000   1.0000
     1.0000   1.0000   1.0000   1.0000   1.0000   1.0000   1.0000   1.0000
     1.0000   1.0000   1.0000   1.0000   1.0000   1.0000   1.0000   1.0000
     1.0000   1.0000   1.0000   1.0000   1.0000   1.0000   1.0000   1.0000
     1.0000   1.0000   1.0000   1.0000   1.0000   1.0000   1.0000   1.0000
     1.0000   1.0000   1.0000   1.0000   1.0000   1.0000   1.0000   1.0000
     1.0000   1.0000   1.0000   1.0000   1.0000   1.0000   1.0000   1.0000
     1.0000   1.0000   1.0000   1.0000   1.0000   1.0000   1.0000   1.0000
     1.0000   1.0000   1.0000   1.0000   1.0000   1.0000   1.0000   1.0000
     1.0000   1.0000   1.0000   1.0000   1.0000   1.0000   1.0000   1.0000
     1.0000   1.0000   1.0000   1.0000   1.0000   1.0000   1.0000   1.0000
     1.0000   1.0000   1.0000   1.0000   1.0000   1.0000   1.0000   1.0000
     1.0000   1.0000   1.0000   1.0000   1.0000   1.0000   1.0000   1.0000
     1.0000   1.0000   1.0000   1.0000   1.0000   1.0000   1.0000   1.0000
     1.0000   1.0000   1.0000   1.0000   1.0000   1.0000   1.0000   1.0000
     1.0000   1.0000   1.0000   1.0000   1.0000   1.0000   1.0000   1.0000
     1.0000   1.0000   1.0000   1.0000   1.0000   1.0000   1.0000   1.0000
     1.0000   1.0000   1.0000   1.0000   1.0000   1.0000   1.0000   1.0000
     1.0000   1.0000   1.0000   1.0000   1.0000   1.0000   1.0000   1.0000
     1.0000   1.0000   1.0000   1.0000   1.0000   1.0000   1.0000   1.0000
     1.0000   1.0000   1.0000   1.0000   1.0000   1.0000   1.0000   1.0000
     1.0000   1.0000   1.0000   1.0000   1.0000   1.0000   1.0000   1.0000
     1.0000   1.0000   1.0000   1.0000   1.0000   1.0000   1.0000   1.0000
     1.0000   1.0000   1.0000   1.0000   1.0000   1.0000   1.0000   1.0000
     1.0000   1.0000   1.0000   1.0000   1.0000   1.0000   1.0000   1.0000
     1.0000   1.0000   1.0000   1.0000   1.0000   1.0000   1.0000   1.0000
     1.0000   1.0000   1.0000   1.0000   1.0000   1.0000   1.0000   1.0000
     1.0000   1.0000   1.0000   1.0000   1.0000   1.0000   1.0000   1.0000
     1.0000   1.0000   1.0000   1.0000   1.0000   1.0000   1.0000   1.0000
     1.0000   1.0000   1.0000   1.0000   1.0000   1.0000   1.0000   1.0000
     1.0000   1.0000   1.0000   1.0000   1.0000   1.0000   1.0000   1.0000
     1.0000   1.0000   1.0000   1.0000   1.0000   1.0000   1.0000   1.0000
     1.0000   1.0000   1.0000   1.0000   1.0000   1.0000   1.0000   1.0000
     1.0000   1.0000   1.0000   1.0000   1.0000   1.0000   1.0000   1.0000
     1.0000   1.0000   1.0000   1.0000   1.0000   1.0000   1.0000   1.0000
     1.0000   1.0000   1.0000   1.0000   1.0000   1.0000   1.0000   1.0000
     1.0000   1.0000   1.0000   1.0000   1.0000   1.0000   1.0000   1.0000
     1.0000   1.0000   1.0000   1.0000   1.0000   1.0000   1.0000   1.0000
     1.0000   1.0000   1.0000   1.0000   1.0000   1.0000   1.0000   1.0000
     1.0000   1.0000   1.0000   1.0000   1.0000   1.0000   1.0000   1.0000
     1.0000   1.0000   1.0000   1.0000   1.0000   1.0000   1.0000   1.0000
     1.0000   1.0000   1.0000   1.0000   1.0000   1.0000   1.0000   1.0000
     1.0000   1.0000   1.0000   1.0000   1.0000   1.0000   1.0000   1.0000
     1.0000   1.0000   1.0000   1.0000   1.0000   1.0000   1.0000   1.0000
     1.0000   1.0000   1.0000   1.0000   1.0000   1.0000   1.0000   1.0000
     1.0000   1.0000   1.0000   1.0000   1.0000   1.0000   1.0000   1.0000
     1.0000   1.0000   1.0000   1.0000   1.0000   1.0000   1.0000   1.0000
     1.0000   1.0000   1.0000   1.0000   1.0000   1.0000   1.0000   1.0000
     1.0000   1.0000   1.0000   1.0000   1.0000   1.0000   1.0000   1.0000
     1.0000   1.0000   1.0000   1.0000   1.0000   1.0000   1.0000   1.0000
     1.0000   1.0000   1.0000   1.0000   1.0000   1.0000   1.0000   1.0000
     1.0000   1.0000   1.0000   1.0000   1.0000   1.0000   1.0000   1.0000
     1.0000   1.0000   1.0000   1.0000   1.0000   1.0000   1.0000   1.0000
     1.0000   1.0000   1.0000   1.0000   1.0000   1.0000   1.0000   1.0000
     1.0000   1.0000   1.0000   1.0000   1.0000   1.0000   1.0000   1.0000
     1.0000   1.0000   1.0000   1.0000   1.0000   1.0000   1.0000   1.0000
     1.0000   1.0000   1.0000   1.0000   1.0000   1.0000   1.0000   1.0000
     1.0000   1.0000   1.0000   1.0000   1.0000   1.0000   1.0000   1.0000
     1.0000   1.0000   1.0000   1.0000   1.0000   1.0000   1.0000   1.0000
     1.0000   1.0000   0.9972   0.8241   0.3730   0.3725   0.0000   0.0000
     0.0000   0.0000   0.0000   0.0000   0.0000   0.0000   0.0000   0.0000
     0.0000   0.0000   0.0000   0.0000   0.0000   0.0000   0.0000   0.0000
     0.0000   0.0000   0.0000   0.0000   0.0000   0.0000   0.0000   0.0000
     0.0000   0.0000   0.0000   0.0000   0.0000   0.0000   0.0000   0.0000
     0.0000   0.0000   0.0000   0.0000   0.0000   0.0000   0.0000   0.0000
     0.0000   0.0000   0.0000   0.0000   0.0000   0.0000   0.0000   0.0000
     0.0000   0.0000   0.0000   0.0000   0.0000   0.0000   0.0000   0.0000
     0.0000   0.0000   0.0000   0.0000   0.0000   0.0000   0.0000   0.0000
     0.0000   0.0000   0.0000   0.0000   0.0000   0.0000   0.0000   0.0000
     0.0000   0.0000   0.0000   0.0000   0.0000   0.0000   0.0000   0.0000
     0.0000   0.0000   0.0000   0.0000   0.0000   0.0000   0.0000   0.0000
     0.0000   0.0000   0.0000   0.0000   0.0000   0.0000   0.0000   0.0000
     0.0000   0.0000   0.0000   0.0000   0.0000   0.0000   0.0000   0.0000
     0.0000   0.0000   0.0000   0.0000   0.0000   0.0000   0.0000   0.0000
     0.0000   0.0000   0.0000   0.0000   0.0000   0.0000   0.0000   0.0000
     0.0000   0.0000   0.0000   0.0000   0.0000   0.0000   0.0000   0.0000
     0.0000   0.0000   0.0000   0.0000   0.0000   0.0000   0.0000   0.0000
     0.0000   0.0000   0.0000   0.0000   0.0000   0.0000   0.0000   0.0000
     0.0000   0.0000   0.0000   0.0000   0.0000   0.0000   0.0000   0.0000
     0.0000   0.0000   0.0000   0.0000   0.0000   0.0000   0.0000   0.0000
     0.0000   0.0000   0.0000   0.0000   0.0000   0.0000   0.0000   0.0000
     0.0000   0.0000   0.0000

          k = 0.0000 0.0000-0.4090 (154532 PWs)   bands (ev):

    -6.7991  -6.7325  -6.5112  -6.5112  -6.5088  -6.5088  -6.5041  -6.4824
    -6.4731  -6.4706  -6.4706  -6.4682  -6.4573  -6.4390  -6.4390  -6.4095
    -6.3780  -6.3709  -6.3702  -6.3702  -6.3638  -6.3638  -6.3580  -6.3580
    -6.3565  -6.3531  -6.3530  -6.3530  -6.3484  -6.3484  -6.3483  -6.3469
    -6.3406  -6.3406  -6.3387  -6.3386  -6.3367  -6.3336  -6.3302  -6.3302
    -6.3274  -6.3243  -6.3243  -6.3231  -6.3211  -6.3210  -6.3210  -6.3152
    -6.3124  -6.3124  -6.3110  -6.3070  -6.3070  -6.3017  -6.3017  -6.2978
    -6.2963  -6.2960  -6.2960  -6.2898  -6.2898  -6.2873  -6.2873  -6.2863
    -6.2838  -6.2838  -6.2835  -6.2825  -6.2795  -6.2795  -6.2733  -6.2701
    -6.2666  -6.2666  -6.2584  -6.2584  -6.2525  -6.2525  -6.2520  -6.2500
    -6.2500  -6.2464  -6.2362  -6.2269  -6.2269  -6.2236  -6.2120  -6.2120
    -6.2036  -6.1928  -6.1928  -6.1719  -6.1648  -6.1184  -6.1184  -5.2375
    -5.2375  -5.2203  -5.2203  -5.2143  -5.2142  -5.2118  -5.2118  -5.2111
    -5.2103  -5.2089  -5.2089  -5.2023  -5.2023  -5.1995  -5.1989  -5.1989
    -5.1955  -5.1955  -5.1925  -5.1925  -5.1916  -5.1916  -5.1915  -5.1891
    -5.1886  -5.1882  -5.1882  -5.1875  -5.1856  -5.1856  -5.1803  -5.1801
    -5.1801  -5.1799  -5.1774  -5.1773  -5.1773  -5.1766  -5.1766  -5.1751
    -5.1751  -5.1748  -5.1698  -5.1662  -5.1662  -5.1652  -5.1626  -5.1620
    -5.1620  -5.1609  -5.1609  -5.1609  -5.1596  -5.1596  -5.1588  -5.1575
    -5.1575  -5.1554  -5.1554  -5.1553  -5.1530  -5.1518  -5.1518  -5.1493
    -5.1493  -5.1490  -5.1490  -5.1468  -5.1462  -5.1448  -5.1448  -5.1440
    -5.1424  -5.1422  -5.1422  -5.1406  -5.1406  -5.1395  -5.1395  -5.1351
    -5.1351  -5.1326  -5.1326  -5.1326  -5.1320  -5.1310  -5.1310  -5.1289
    -5.1289  -5.1287  -5.1273  -5.1259  -5.1259  -5.1256  -5.1231  -5.1227
    -5.1227  -5.1207  -5.1207  -5.1186  -5.1186  -5.1181  -5.1181  -5.1176
    -5.1176  -5.1140  -5.1140  -5.1117  -5.1114  -5.1084  -5.1078  -5.1065
    -5.1065  -5.1059  -5.1055  -5.1055  -5.1029  -5.1029  -5.1018  -5.1018
    -5.1006  -5.1000  -5.0985  -5.0973  -5.0973  -5.0954  -5.0948  -5.0948
    -5.0938  -5.0938  -5.0919  -5.0906  -5.0896  -5.0896  -5.0896  -5.0879
    -5.0879  -5.0837  -5.0837  -5.0823  -5.0823  -5.0823  -5.0813  -5.0798
    -5.0798  -5.0791  -5.0781  -5.0775  -5.0775  -5.0762  -5.0726  -5.0726
    -5.0717  -5.0717  -5.0701  -5.0693  -5.0693  -5.0680  -5.0680  -5.0677
    -5.0659  -5.0659  -5.0645  -5.0642  -5.0642  -5.0642  -5.0621  -5.0621
    -5.0602  -5.0599  -5.0588  -5.0583  -5.0583  -5.0582  -5.0569  -5.0569
    -5.0541  -5.0541  -5.0531  -5.0531  -5.0529  -5.0508  -5.0502  -5.0502
    -5.0494  -5.0483  -5.0483  -5.0479  -5.0461  -5.0461  -5.0452  -5.0448
    -5.0434  -5.0434  -5.0412  -5.0412  -5.0405  -5.0386  -5.0386  -5.0374
    -5.0374  -5.0366  -5.0365  -5.0365  -5.0353  -5.0332  -5.0332  -5.0319
    -5.0319  -5.0308  -5.0308  -5.0296  -5.0284  -5.0284  -5.0284  -5.0262
    -5.0261  -5.0261  -5.0259  -5.0252  -5.0252  -5.0239  -5.0231  -5.0219
    -5.0219  -5.0219  -5.0209  -5.0209  -5.0176  -5.0174  -5.0174  -5.0149
    -5.0139  -5.0139  -5.0132  -5.0126  -5.0126  -5.0109  -5.0097  -5.0097
    -5.0091  -5.0073  -5.0067  -5.0067  -5.0061  -5.0061  -5.0058  -5.0058
    -5.0054  -5.0027  -5.0027  -5.0015  -5.0005  -4.9995  -4.9995  -4.9993
    -4.9978  -4.9956  -4.9956  -4.9919  -4.9919  -4.9914  -4.9914  -4.9905
    -4.9905  -4.9895  -4.9893  -4.9890  -4.9890  -4.9869  -4.9869  -4.9868
    -4.9856  -4.9853  -4.9853  -4.9843  -4.9843  -4.9840  -4.9829  -4.9829
    -4.9826  -4.9819  -4.9819  -4.9797  -4.9780  -4.9756  -4.9756  -4.9750
    -4.9733  -4.9731  -4.9731  -4.9728  -4.9728  -4.9721  -4.9721  -4.9683
    -4.9683  -4.9678  -4.9669  -4.9669  -4.9665  -4.9649  -4.9649  -4.9649
    -4.9643  -4.9636  -4.9636  -4.9613  -4.9613  -4.9601  -4.9590  -4.9590
    -4.9567  -4.9567  -4.9550  -4.9533  -4.9532  -4.9524  -4.9512  -4.9512
    -4.9492  -4.9483  -4.9468  -4.9468  -4.9465  -4.9443  -4.9443  -4.9434
    -4.9425  -4.9425  -4.9389  -4.9376  -4.9376  -4.9374  -4.9368  -4.9367
    -4.9367  -4.9321  -4.9321  -4.9297  -4.9279  -4.9264  -4.9264  -4.9238
    -4.9238  -4.9221  -4.9221  -4.9208  -4.9187  -4.9182  -4.9182  -4.9114
    -4.9114  -4.9092  -4.9051  -4.9051  -4.9042  -4.9003  -4.9003  -4.8959
    -4.8942  -4.8930  -4.8930  -4.8796  -4.8773  -4.8773  -4.8685  -4.8685
    -4.8588  -4.8420  -4.8401  -4.8401  -4.8098  -4.8098  -4.7780  -4.7715
    -4.7529  -4.7486  -4.7486  -4.7455  -4.7362  -4.7362  -4.7340  -4.7340
    -4.7294  -4.7202  -4.7195  -4.7195  -4.6819  -4.6782  -4.6782  -4.6737
    -4.6685  -4.6685  -4.6440  -4.5365  -4.5365  -4.5012  -4.4367  -4.4367
    -4.2048  -4.2043  -4.2043  -4.1978  -4.1914  -4.1914  -4.1779  -4.1779
    -4.1505  -4.1504  -4.1183  -3.9855  -3.8634  -3.8634  -3.7949  -3.7948
    -3.7910  -3.7006  -3.6939  -3.6931  -3.6931  -3.6790  -3.6751  -3.6751
    -3.6401  -3.6351  -3.6351  -3.6271  -3.5998  -3.5998  -3.5766  -3.5417
    -3.5417  -3.5391  -3.4576  -3.4576  -3.4176  -3.3148  -3.3148  -3.3125
    -3.3125  -3.3106  -3.3077  -3.3048  -3.3048  -3.3031  -3.3001  -3.3000
    -3.2929  -3.2929  -3.2876  -3.2876  -3.2875  -3.2688  -3.2682  -3.2682
    -3.2644  -3.2644  -3.2384  -3.2384  -3.2332  -3.2331  -3.1973  -3.1973
    -3.1894  -3.1194  -3.0459  -3.0099  -3.0093  -3.0093  -2.9519  -2.9519
    -2.9018  -2.8643  -2.8643  -2.8530  -2.8394  -2.8394  -2.8306  -2.8211
    -2.8210  -2.8109  -2.7817  -2.7817   2.0155   2.4313   2.4314   2.4356
     2.4525   2.4569   2.4570   2.4796   2.5130   2.5131   2.5219   2.5723
     2.5724   2.5870   2.5928   2.9984   3.0114   3.0115   3.0192   3.0192
     3.0282   3.0282   3.0326   3.0336   3.0336   3.0375   3.0403   3.0488
     3.0488   3.0564   3.0595   3.0595   3.0693   3.0693   3.0700   3.0701
     3.0751   3.0779   3.0779   3.0787   3.0852   3.1057   3.1057   3.1266
     3.1271   3.1488   3.1488   3.2514   3.2853   3.2853   3.3661   3.4092
     3.4093   3.4528   3.5050   3.5051   3.5785   3.7097   3.7098   3.7271
     3.7372   3.7372   3.7518   3.7519   3.7819   3.8084   3.8769   3.8770
     3.9853   4.3041   4.3145   4.3146   4.3172   4.3238   4.3239   4.3432
     4.3432   4.3640   4.3641   4.3935   4.7608   4.9667   4.9895   4.9895
     4.9974   4.9974   5.0030   5.0323   5.0457   5.0486   5.0632   5.0633
     5.1108   5.1108   5.1182   5.1521   5.1536   5.1537   5.1646   5.1690
     5.1690   5.2206   5.2206   5.2256   5.2513   5.2513   5.2772   5.2864
     5.2864   5.3180   5.3180   5.3359   5.4402   5.4565   5.4615   5.4615
     5.4837   5.4837   5.4845   5.4935   5.4935   5.5699   5.5699   5.5701
     5.6371   5.6484   5.6484   5.6510   5.6567   5.6720   5.6817   5.6817
     5.7103   5.7103   5.7147   5.7183   5.7183   5.7474   5.7615   5.7615
     5.7681   5.7681   5.7777   5.8213   5.8214   5.9273   5.9850   5.9850
     6.2876   6.2955   6.2955   6.3973   6.4120   6.4120   6.5773   6.6318
     6.6460   6.6460   6.6581   6.6873   6.6919   6.6919   6.6988   6.6988
     6.7798   6.7820   6.7820   6.8460   6.8460   6.8547   6.8547   6.8558
     6.8577   6.8577   6.8711   6.9059   6.9059   6.9316   6.9488   6.9551
     6.9755   6.9822   6.9822   6.9885   6.9885   6.9949   6.9950   6.9960
     7.0047   7.0047   7.0158   7.0161   7.0161   7.0255   7.0255   7.0282
     7.0341   7.0417   7.0534   7.0534   7.0825   7.0826   7.0907   7.1078
     7.1079   7.1245   7.1299   7.2268   7.2277   7.2277   7.2365   7.2365
     7.2402   7.2402   7.2427   7.2577   7.2577   7.2597   7.2597   7.2635
     7.2638   7.2689   7.2690   7.2844   7.2844   7.2940   7.3219   7.3510
     7.3510   7.4267   7.4267   7.4290   7.5602   7.5914   7.6081   7.6081
     7.6232   7.6255   7.6255   7.6261   7.6262   7.6417   7.6897   7.6897
     7.7331   7.7483   7.7484   7.8114   7.8315   7.8618   7.8619   7.8884
     7.8884   7.9662   8.0174   8.0583   8.0583   8.0850   8.0863   8.0863
     8.0960   8.0960   8.0977   8.1113   8.1113   8.1326   8.1326   8.1464
     8.2014   8.2293   8.2293   8.2386   8.2420   8.2491   8.2491   8.2876
     8.2876   8.3167   8.3212   8.3213   8.3482   8.3483   8.7024   8.7025
     8.7661   8.7661  10.1648  10.5277  10.5278  11.1455  11.1647  12.7090
    12.7189  12.7573  12.8082  12.8240  12.8240  12.8352  12.8420  12.8527
    12.8527  12.8569  12.8755  12.8755  12.8784  12.8784  12.9429  13.1347
    13.1637  13.1637  13.1784  13.1784  13.2465  13.3843  13.3844  13.3915
    13.4210  13.4210  13.4965  13.7979  13.7980  13.8093  13.8189  13.8189
    13.8201  13.8463  13.8463  13.8615  13.8622  13.8623  13.8871  13.8872
    13.8891  13.9572  13.9573  13.9951  14.1856  14.3771  14.3771  14.3839
    14.4509  14.4509  14.4714  14.4852  14.4852  14.4946  14.4973  14.4973
    14.5108  14.5108  14.5221  14.5234  14.5558  14.5559  14.5686  14.5686
    14.5738  14.5890  14.6716  14.6716  14.6806  14.7483  14.7484  14.7586
    14.7626  14.7627  14.7961  14.7961  14.8031  14.8068  14.8068  14.8480
    14.8754  14.8953  14.8953  14.9203  14.9203  14.9366  14.9497  14.9497
    14.9797  15.0966  15.0966  15.1126  15.4565  15.6682  15.6817  15.6818
    15.7633  15.7634  15.8790  15.9691  15.9691  15.9740  16.0083  16.0428
    16.0445  16.0445  16.0701  16.0701  16.0971  16.0971  16.1000  16.1407
    16.1703  16.1704  16.1967  16.1967  16.2186  16.2504  16.2504  16.2598
    16.2771  16.2771  16.2851  16.2851  16.2870  16.2977  16.2977  16.2977
    16.3012  16.3164  16.3165  16.3644  16.3644  16.3752  16.3836  16.3983
    16.3983  16.4074  16.4350  16.4350  16.4424  16.4453  16.5016  16.5016
    16.5349  16.5510  16.5510  16.5559  16.5611  16.5611  16.5754  16.5857
    16.5857  16.5995  16.5996  16.6170  16.6230  16.6235  16.6235  16.6298
    16.6298  16.6649  16.6896  16.6896  16.7007  16.7270  16.7270  16.7841
    16.9076  16.9754  16.9754

     occupation numbers 
     1.0000   1.0000   1.0000   1.0000   1.0000   1.0000   1.0000   1.0000
     1.0000   1.0000   1.0000   1.0000   1.0000   1.0000   1.0000   1.0000
     1.0000   1.0000   1.0000   1.0000   1.0000   1.0000   1.0000   1.0000
     1.0000   1.0000   1.0000   1.0000   1.0000   1.0000   1.0000   1.0000
     1.0000   1.0000   1.0000   1.0000   1.0000   1.0000   1.0000   1.0000
     1.0000   1.0000   1.0000   1.0000   1.0000   1.0000   1.0000   1.0000
     1.0000   1.0000   1.0000   1.0000   1.0000   1.0000   1.0000   1.0000
     1.0000   1.0000   1.0000   1.0000   1.0000   1.0000   1.0000   1.0000
     1.0000   1.0000   1.0000   1.0000   1.0000   1.0000   1.0000   1.0000
     1.0000   1.0000   1.0000   1.0000   1.0000   1.0000   1.0000   1.0000
     1.0000   1.0000   1.0000   1.0000   1.0000   1.0000   1.0000   1.0000
     1.0000   1.0000   1.0000   1.0000   1.0000   1.0000   1.0000   1.0000
     1.0000   1.0000   1.0000   1.0000   1.0000   1.0000   1.0000   1.0000
     1.0000   1.0000   1.0000   1.0000   1.0000   1.0000   1.0000   1.0000
     1.0000   1.0000   1.0000   1.0000   1.0000   1.0000   1.0000   1.0000
     1.0000   1.0000   1.0000   1.0000   1.0000   1.0000   1.0000   1.0000
     1.0000   1.0000   1.0000   1.0000   1.0000   1.0000   1.0000   1.0000
     1.0000   1.0000   1.0000   1.0000   1.0000   1.0000   1.0000   1.0000
     1.0000   1.0000   1.0000   1.0000   1.0000   1.0000   1.0000   1.0000
     1.0000   1.0000   1.0000   1.0000   1.0000   1.0000   1.0000   1.0000
     1.0000   1.0000   1.0000   1.0000   1.0000   1.0000   1.0000   1.0000
     1.0000   1.0000   1.0000   1.0000   1.0000   1.0000   1.0000   1.0000
     1.0000   1.0000   1.0000   1.0000   1.0000   1.0000   1.0000   1.0000
     1.0000   1.0000   1.0000   1.0000   1.0000   1.0000   1.0000   1.0000
     1.0000   1.0000   1.0000   1.0000   1.0000   1.0000   1.0000   1.0000
     1.0000   1.0000   1.0000   1.0000   1.0000   1.0000   1.0000   1.0000
     1.0000   1.0000   1.0000   1.0000   1.0000   1.0000   1.0000   1.0000
     1.0000   1.0000   1.0000   1.0000   1.0000   1.0000   1.0000   1.0000
     1.0000   1.0000   1.0000   1.0000   1.0000   1.0000   1.0000   1.0000
     1.0000   1.0000   1.0000   1.0000   1.0000   1.0000   1.0000   1.0000
     1.0000   1.0000   1.0000   1.0000   1.0000   1.0000   1.0000   1.0000
     1.0000   1.0000   1.0000   1.0000   1.0000   1.0000   1.0000   1.0000
     1.0000   1.0000   1.0000   1.0000   1.0000   1.0000   1.0000   1.0000
     1.0000   1.0000   1.0000   1.0000   1.0000   1.0000   1.0000   1.0000
     1.0000   1.0000   1.0000   1.0000   1.0000   1.0000   1.0000   1.0000
     1.0000   1.0000   1.0000   1.0000   1.0000   1.0000   1.0000   1.0000
     1.0000   1.0000   1.0000   1.0000   1.0000   1.0000   1.0000   1.0000
     1.0000   1.0000   1.0000   1.0000   1.0000   1.0000   1.0000   1.0000
     1.0000   1.0000   1.0000   1.0000   1.0000   1.0000   1.0000   1.0000
     1.0000   1.0000   1.0000   1.0000   1.0000   1.0000   1.0000   1.0000
     1.0000   1.0000   1.0000   1.0000   1.0000   1.0000   1.0000   1.0000
     1.0000   1.0000   1.0000   1.0000   1.0000   1.0000   1.0000   1.0000
     1.0000   1.0000   1.0000   1.0000   1.0000   1.0000   1.0000   1.0000
     1.0000   1.0000   1.0000   1.0000   1.0000   1.0000   1.0000   1.0000
     1.0000   1.0000   1.0000   1.0000   1.0000   1.0000   1.0000   1.0000
     1.0000   1.0000   1.0000   1.0000   1.0000   1.0000   1.0000   1.0000
     1.0000   1.0000   1.0000   1.0000   1.0000   1.0000   1.0000   1.0000
     1.0000   1.0000   1.0000   1.0000   1.0000   1.0000   1.0000   1.0000
     1.0000   1.0000   1.0000   1.0000   1.0000   1.0000   1.0000   1.0000
     1.0000   1.0000   1.0000   1.0000   1.0000   1.0000   1.0000   1.0000
     1.0000   1.0000   1.0000   1.0000   1.0000   1.0000   1.0000   1.0000
     1.0000   1.0000   1.0000   1.0000   1.0000   1.0000   1.0000   1.0000
     1.0000   1.0000   1.0000   1.0000   1.0000   1.0000   1.0000   1.0000
     1.0000   1.0000   1.0000   1.0000   1.0000   1.0000   1.0000   1.0000
     1.0000   1.0000   1.0000   1.0000   1.0000   1.0000   1.0000   1.0000
     1.0000   1.0000   1.0000   1.0000   1.0000   1.0000   1.0000   1.0000
     1.0000   1.0000   1.0000   1.0000   1.0000   1.0000   1.0000   1.0000
     1.0000   1.0000   1.0000   1.0000   1.0000   1.0000   1.0000   1.0000
     1.0000   1.0000   1.0000   1.0000   1.0000   1.0000   1.0000   1.0000
     1.0000   1.0000   1.0000   1.0000   1.0000   1.0000   1.0000   1.0000
     1.0000   1.0000   1.0000   1.0000   1.0000   1.0000   1.0000   1.0000
     1.0000   1.0000   1.0000   1.0000   1.0000   1.0000   1.0000   1.0000
     1.0000   1.0000   1.0000   1.0000   1.0000   1.0000   1.0000   1.0000
     1.0000   1.0000   1.0000   1.0000   1.0000   1.0000   1.0000   1.0000
     1.0000   1.0000   1.0000   1.0000   1.0000   1.0000   1.0000   1.0000
     1.0000   1.0000   1.0000   1.0000   1.0000   1.0000   1.0000   1.0000
     1.0000   1.0000   1.0000   1.0000   1.0000   1.0000   1.0000   1.0000
     1.0000   1.0000   1.0000   1.0000   1.0000   1.0000   1.0000   1.0000
     1.0000   1.0000   1.0000   1.0000   1.0000   1.0000   1.0000   1.0000
     1.0000   1.0000   1.0000   1.0000   1.0000   1.0000   1.0000   1.0000
     1.0000   1.0000   1.0000   1.0000   1.0000   1.0000   1.0000   1.0000
[...]
              0.165990719049390E+03
              0.474522129933027E+01
              0.517331152269037E+03
              0.719527653625887E+02
             -0.754432604933211E+02
              0.291391766858383E+02
             -0.691402612334143E+02
              0.406488408482510E+03
             -0.260997153004155E+01
              0.777333138007414E+02
              0.282239894987802E+03
              0.755493187068982E+02
             -0.214479345034646E+03
             -0.347549304135327E+03
              0.194493871873906E+02
             -0.395343525296497E+03
              0.132583255956655E+03
             -0.687530710855474E+02
             -0.152564611518761E+03
              0.154489565359831E+03
              0.534957153620944E+02
              0.148485413276807E+03
              0.648137489056296E+01
              0.220513365616275E+03
             -0.374335060197775E+03
             -0.267204457889063E+02
             -0.328514297326962E+03
              0.731032414201050E+02
              0.180267237183454E+03
             -0.183292571277850E+02
             -0.120090370610804E+03
              0.269356392663793E+03
             -0.124702837045974E+03
              0.922076171378753E+02
             -0.792774917659758E+02
              0.213150879581717E+03
              0.224566337755294E+03
             -0.972465602833972E+02
              0.192510299893837E+03
              0.722693303399055E+02
             -0.194264938299677E+03
             -0.126917596996723E+03
              0.312192367945696E+03
              0.153166111330687E+03
             -0.132185445952863E+02
             -0.331968515808644E+02
              0.480690247141239E+03
              0.283495059398753E+03
              0.100896544571323E+03
             -0.302590308940961E+03
              0.485015718324670E+03
             -0.226450644749221E+03
             -0.279598423563318E+03
             -0.421407962700513E+03
              0.187851111209025E+03
             -0.378839460825684E+03
              0.171364614109636E+03
              0.276765610587229E+03
              0.197187265845619E+03
              0.500727974618511E+02
              0.130646853417933E+03
             -0.312104956589938E+03
             -0.111776118283187E+03
             -0.848933036428173E+02
              0.160210004082891E+03
              0.317541281654300E+03
              0.328100219678965E+03
              0.252979575193666E+03
             -0.578985131565601E+02
              0.808079705828218E+02
              0.456141156925014E+01
             -0.103978828329927E+03
              0.133909273960894E+03
              0.145618745537429E+03
             -0.184595129162325E+03
             -0.219264170938136E+03
             -0.865164347815319E+02
              0.227677145008409E+03
              0.109131500550880E+03
             -0.156211176331255E+03
             -0.239618236974410E+03
             -0.348809585981346E+03
              0.724800122155278E+01
              0.936501541704533E+02
             -0.131763148563569E+03
              0.487748132464621E+03
              0.234239387463545E+02
             -0.552664616950018E+03
              0.122435534596333E+03
              0.242282771390036E+03
             -0.110877783815945E+03
              0.134523690671757E+02
             -0.153816549895522E+03
              0.225906878505579E+03
              0.104560199359770E+03
             -0.289247795777417E+03
              0.344384178326083E+03
              0.986518928623946E+01
             -0.147741512783933E+03
             -0.175316775965174E+03
              0.685936324944775E+03
              0.305527645100130E+03
             -0.852312220173199E+02
              0.168202543855629E+03
             -0.300261601538736E+03
             -0.537029398991035E+02
             -0.304094950165710E+03
              0.121833097992221E+03
              0.207249198293398E+03
              0.245886233401452E+03
             -0.979768159045175E+02
              0.288046973837927E+02
              0.280908382403519E+03
              0.103845229332589E+03
              0.175961508216907E+03
              0.748189445097707E+02
             -0.504816127529082E+02
              0.754578971399781E+01
             -0.464147525249198E+02
              0.714008750266451E+02
              0.157797567539105E+02
             -0.256027463465250E+03
              0.389410100270380E+03
              0.155740313234115E+03
             -0.279927288626688E+03
             -0.207616166916549E+03
             -0.300837341271222E+03
             -0.142294238868357E+03
             -0.104855789167688E+03
             -0.232677923103904E+03
             -0.227831222599684E+03
              0.286979576464998E+03
              0.226450748734352E+03
             -0.281693588973117E+02
              0.330371903044277E+03
              0.622764336990831E+02
             -0.533097467837520E+03
              0.300730307526169E+03
              0.693842244264627E+02
              0.231901528644418E+03
              0.517080107582940E+02
              0.386943519516266E+02
              0.458476083280730E+02
              0.120741217722335E+03
             -0.221129624360320E+03
             -0.110360199934635E+03
             -0.203173184777655E+03
             -0.168736898893341E+03
              0.767571408135800E+02
             -0.193028968168611E+03
              0.903770585063019E+02
              0.119557122602466E+03
             -0.126974706454684E+03
             -0.670450809817074E+02
             -0.588705173571418E+01
              0.330010083358473E+03
              0.524418568762428E+02
              0.326967216105751E+03
              0.116513885609740E+03
             -0.422755248846989E+03
             -0.143817332244149E+03
              0.144434799044890E+03
              0.325262969150765E+03
              0.623814270883946E+02
              0.127153361580109E+03
              0.306582016510794E+03
             -0.178336858347436E+03
             -0.289499557822407E+03
              0.376282978351642E+03
              0.643937669201841E+01
             -0.398864303857894E+03
              0.133747077968677E+03
              0.264016016751638E+03
             -0.611820690782338E+02
             -0.249792004256094E+03
              0.445684155685124E+02
              0.162604057965664E+02
             -0.136594511146369E+03
              0.495647741529165E+02
             -0.426300606552039E+02
              0.587844487121131E+03
              0.162268078601797E+03
             -0.269562110359626E+03
              0.814639587889618E+02
              0.377409854010302E+03
             -0.241998285171196E+03
             -0.643792434832724E+02
             -0.214252104982753E+03
              0.171104407262950E+03
              0.724740066740393E+02
              0.113622294613494E+03
              0.878579424893906E+01
              0.423962300441392E+03
             -0.237034138036744E+03
             -0.179961996456113E+03
             -0.198602291695912E+03
              0.170612996212605E+03
              0.407881348834578E+03
             -0.517458532107987E+02
              0.168448543178937E+03
             -0.228031117390014E+03
              0.232068307407455E+02
             -0.676016542688327E+02
             -0.224077416255882E+02
             -0.970109862146027E+02
             -0.892775219567081E+02
             -0.659189716474044E+02
              0.702804390539659E+02
              0.118709723012920E+03
             -0.273568275478135E+03
              0.198742810964055E+03
             -0.321389414741053E+03
              0.239919310238804E+03
             -0.278488173999884E+03
              0.421311904232422E+03
              0.224633108491844E+03
              0.250911742365127E+03
              0.575068719541762E+02
              0.645460708048172E+02
             -0.565663274347596E+03
              0.968981482050128E+02
              0.256545207685149E+02
              0.444760648111005E+02
             -0.844156604698280E+02
              0.440296966852986E+03
             -0.133583584722684E+03
             -0.174050053411592E+03
             -0.436327514808826E+03
             -0.145246285565835E+03
             -0.198320742362480E+03
             -0.175717751782538E+03
             -0.480432026335368E+02
             -0.921416939045616E+02
             -0.121880576992875E+03
             -0.183427805170346E+03
              0.136765811928638E+03
              0.451665703804833E+03
              0.385064450131085E+03
             -0.763580186561908E+02
             -0.472516326911397E+03
             -0.198746238622401E+03
              0.910488687979214E+02
              0.100998390043382E+03
              0.146168922265670E+03
              0.113659857177443E+03
              0.369862004179377E+02
              0.437404770543990E+03
             -0.108495894965268E+03
              0.221873785735267E+03
              0.102000240632114E+03
             -0.143264423023040E+03
             -0.899562960811265E+02
              0.202148085890388E+03
             -0.117060206444166E+03
             -0.830347741318560E+02
             -0.539141801234985E+02
              0.252661690032897E+03
             -0.338626351343220E+03
             -0.373049983838341E+02
             -0.277124755058857E+03
             -0.599137207875605E+03
              0.203967212927773E+01
             -0.742386172750865E+02
              0.205889859332441E+03
              0.244673102114145E+03
              0.335694404586460E+03
             -0.220866086604358E+03
              0.359146359815151E+03
              0.939061540188145E+02
             -0.107296749289259E+03
              0.647840666675468E+02
             -0.113973940849215E+03
             -0.795973287991437E+02
              0.183033132383146E+03
             -0.178257801380600E+03
              0.433817041343033E+03
             -0.110933823844465E+03
             -0.232027604465942E+03
              0.441553043824488E+03
             -0.247953349539850E+03
             -0.365032071233081E+02
              0.449189589703944E+02
              0.136985841817596E+03
             -0.202201677409333E+03
             -0.151447348894638E+03
              0.230368197953379E+03
             -0.373233026193623E+03
              0.274327727693792E+03
              0.358725897177364E+02
              0.214292259480845E+03
              0.296972179011930E+03
              0.748924027429903E+02
             -0.391094521678002E+03
             -0.172686182329793E+03
             -0.289078983278271E+03
             -0.181274480998392E+03
             -0.595244176251908E+02
              0.711245896410064E+02
             -0.135742062576626E+03
              0.943785136357747E+01
             -0.439343715947014E+03
              0.110158402678557E+02
             -0.277657418855485E+03
              0.272866529044974E+03
             -0.146810611031426E+03
             -0.288900934818254E+02
              0.196436814808563E+03
              0.212693353451630E+02
              0.195445751644494E+03
             -0.350306664764583E+03
              0.767325247525628E+02
              0.241251016300933E+02
              0.140889584585327E+03
              0.252808178120339E+03
             -0.443287858473100E+02
             -0.277175084851939E+03
             -0.158702688308602E+03
             -0.109690782844279E+03
             -0.532747988340152E+02
              0.261525161572238E+03
              0.160941068751189E+03
             -0.168281467405410E+03
             -0.153448047591756E+03
              0.126605010319124E+03
              0.124120311779329E+03
             -0.343853618928248E+03
              0.961724782462206E+02
              0.252298695092683E+03
             -0.123801815706089E+02
              0.295767977610148E+03
              0.150000657924510E+03
              0.236362341471702E+03
              0.359099569746439E+03
              0.589437094103977E+02
             -0.501755294510839E+03
              0.516692162458393E+02
              0.556578341346538E+03
              0.400499531703495E+03
             -0.268438471396731E+03
              0.267416034664244E+02
              0.348622941870025E+03
              0.316765421302462E+03
              0.150690060760148E+03
             -0.798729587983072E+02
              0.144412371377715E+03
              0.302981140289571E+03
             -0.135703491632754E+03
             -0.969426849078965E+02
              0.189326624236266E+03
             -0.136119774249310E+02
              0.177662849265334E+03
             -0.445513411596206E+02
              0.366512103715289E+03
             -0.139560500406851E+03
              0.836460379220089E+02
             -0.170564553926934E+03
              0.173119738663163E+03
             -0.229419142210857E+02
              0.273383921423512E+03
              0.192194751744310E+02
              0.108121963571317E+03
             -0.181445616892102E+03
             -0.111716092505940E+03
             -0.527247347554899E+02
             -0.454394504740659E+02
              0.287218156102636E+03
              0.119224414747537E+03
              0.368474442664996E+03
              0.306884124929970E+03
              0.688063641377948E+02
              0.271731455042311E+01
              0.360101140393592E+03
              0.189512535291819E+03
              0.505004846640054E+01
              0.319980843457550E+03
             -0.287013466241461E+03
              0.941112824300124E+02
             -0.180489956212099E+03
             -0.720501669932266E+02
              0.460851683834815E+03
             -0.705282900656434E+02
             -0.347867420398370E+01
             -0.605556989026115E+02
              0.382966230674058E+03
             -0.892548015360953E+02
             -0.106308051623803E+02
              0.773129705863074E+03
             -0.249592469921389E+03
             -0.267068633752361E+03
             -0.279930882107546E+03
             -0.164392480226918E+03
              0.163493911865432E+03
             -0.698145447473498E+02
              0.451361211334354E+02
             -0.141949997161214E+02
              0.978760212829834E+02
              0.159464712120719E+03
              0.183769638327917E+03
              0.270249615184029E+03
              0.149427314846083E+03
              0.189736942528547E+03
             -0.306743557942058E+03
             -0.293849812965266E+03
             -0.742033421415006E+02
             -0.287873491058733E+03
              0.460730855477513E+03
              0.394820377905470E+03
              0.188660120531192E+03
              0.511041900809218E+03
             -0.265859203761363E+03
             -0.108339314551581E+03
             -0.150865271830532E+03
              0.422753571724011E+03
 
 BEEF-vdW xc energy contributions
            1 :    -3874.286041394012     
            2 :     3490.406613107856     
            3 :    -2846.966645323033     
            4 :     2131.937033984021     
            5 :    -1511.057698313914     
            6 :     1064.874271150848     
            7 :    -779.4561548068395     
            8 :     586.8575149424996     
            9 :    -422.7468312766314     
           10 :     263.7848593967487     
           11 :    -126.7624800025824     
           12 :     39.50256707772860     
           13 :    -10.33161233437204     
           14 :     18.73084085426126     
           15 :    -30.49420490170087     
           16 :     22.10598204506459     
           17 :     5.610587429206134     
           18 :    -33.69885043190607     
           19 :     43.95727304188040     
           20 :    -34.46421271731560     
           21 :     20.10439248512557     
           22 :    -19.33988730729652     
           23 :     39.04426807339496     
           24 :    -69.57373044300039     
           25 :     93.10321691894660     
           26 :    -97.60401502848435     
           27 :     85.11027071926628     
           28 :    -68.40086353079823     
           29 :     59.81049872152926     
           30 :    -61.70680692911264     
           31 :    -331.5868294636020     
           32 :    -227.3452864464330     

     Writing all to output data dir ./GaN.save/
 
     init_run     :      9.37s CPU     18.87s WALL (       1 calls)
     electrons    :    742.35s CPU    756.31s WALL (       1 calls)
     forces       :     18.98s CPU     19.40s WALL (       1 calls)
     stress       :    349.56s CPU    352.02s WALL (       1 calls)

     Called by init_run:
     wfcinit      :      4.56s CPU     13.66s WALL (       1 calls)
     potinit      :      2.36s CPU      2.54s WALL (       1 calls)
     hinit0       :      1.27s CPU      1.38s WALL (       1 calls)

     Called by electrons:
     c_bands      :    726.71s CPU    739.82s WALL (       2 calls)
     sum_band     :     13.41s CPU     13.95s WALL (       2 calls)
     v_of_rho     :      1.92s CPU      2.02s WALL (       2 calls)
     v_h          :      0.01s CPU      0.01s WALL (       2 calls)
     v_xc         :     21.09s CPU     21.44s WALL (      38 calls)
     newd         :      0.30s CPU      0.34s WALL (       2 calls)
     PAW_pot      :      1.39s CPU      1.40s WALL (       2 calls)
     mix_rho      :      0.00s CPU      0.00s WALL (       2 calls)
     vdW_kernel   :      0.39s CPU      0.39s WALL (       1 calls)

     Called by c_bands:
     init_us_2    :      1.09s CPU      1.14s WALL (      12 calls)
     init_us_2:cp :      1.09s CPU      1.14s WALL (      12 calls)
     cegterg      :    666.70s CPU    678.24s WALL (       4 calls)

     Called by sum_band:
     sum_band:wei :      0.00s CPU      0.00s WALL (       2 calls)
     sum_band:loo :     13.06s CPU     13.19s WALL (       2 calls)
     sum_band:buf :      0.20s CPU      0.21s WALL (       4 calls)
     sum_band:ini :      0.43s CPU      0.44s WALL (       4 calls)
     sum_band:cal :      7.74s CPU      7.80s WALL (       4 calls)
     sum_band:bec :      0.10s CPU      0.10s WALL (       4 calls)
     addusdens    :      0.29s CPU      0.36s WALL (       2 calls)
     addusd:skk   :      0.06s CPU      0.07s WALL (       4 calls)
     addusd:dgemm :      0.15s CPU      0.21s WALL (       4 calls)
     addusd:qvan2 :      0.06s CPU      0.06s WALL (       4 calls)

     Called by *egterg:
     cdiaghg      :    529.71s CPU    536.67s WALL (      34 calls)
     cegterg:over :     24.96s CPU     25.93s WALL (      34 calls)
     cegterg:upda :     15.08s CPU     15.39s WALL (      34 calls)
     cegterg:last :      7.39s CPU      7.45s WALL (       4 calls)
     h_psi        :     61.79s CPU     62.84s WALL (      38 calls)
     s_psi        :     19.12s CPU     19.54s WALL (      38 calls)
     g_psi        :      0.13s CPU      0.14s WALL (      34 calls)

     Called by h_psi:
     h_psi:calbec :     20.37s CPU     20.52s WALL (      38 calls)
     vloc_psi     :     21.98s CPU     22.18s WALL (      38 calls)
     add_vuspsi   :     19.09s CPU     19.53s WALL (      38 calls)

     General routines
     calbec       :     56.15s CPU     56.53s WALL (      52 calls)
     fft          :      9.56s CPU      9.68s WALL (    2232 calls)
     ffts         :      0.01s CPU      0.01s WALL (       4 calls)
     fftw         :     24.68s CPU     24.91s WALL (   24846 calls)
     interpolate  :      0.01s CPU      0.02s WALL (       2 calls)
 
     Parallel routines

     PAW routines
     PAW_pot      :      1.39s CPU      1.40s WALL (       2 calls)
     PAW_symme    :      0.00s CPU      0.00s WALL (       3 calls)
 
     PWSCF        :  19m 5.31s CPU  19m40.08s WALL

 
   This run was terminated on:   7:14:48  12Apr2024            

=------------------------------------------------------------------------------=
   JOB DONE.
=------------------------------------------------------------------------------=
