
     Program PWSCF v.7.1 starts on 11Mar2024 at  8:46:16 

     This program is part of the open-source Quantum ESPRESSO suite
     for quantum simulation of materials; please cite
         "P. Giannozzi et al., J. Phys.:Condens. Matter 21 395502 (2009);
         "P. Giannozzi et al., J. Phys.:Condens. Matter 29 465901 (2017);
         "P. Giannozzi et al., J. Chem. Phys. 152 154105 (2020);
          URL http://www.quantum-espresso.org", 
     in publications or presentations arising from this work. More details at
     http://www.quantum-espresso.org/quote

     Parallel version (MPI & OpenMP), running on     256 processor cores
     Number of MPI processes:               256
     Threads/MPI process:                     1

     MPI processes distributed on     2 nodes
     1773263 MiB available memory on the printing compute node when the environment starts
 
     Reading input from espresso.pwi
Warning: card &CELL ignored
Warning: card    CELL_DYNAMICS    = 'BFGS' ignored
Warning: card / ignored

     Current dimensions of program PWSCF are:
     Max number of different atomic species (ntypx) = 10
     Max number of k-points (npk) =  40000
     Max angular momentum in pseudopotentials (lmaxx) =  4
     file Pb.pbe-dn-kjpaw_psl.1.0.0.UPF: wavefunction(s)  6S 6P 5D renormalized
     file I.pbe-dn-kjpaw_psl.1.0.0.UPF: wavefunction(s)  5S 5P renormalized

     **************************************************************************
     Initializing libbeef V0.1.2 with the BEEF-vdW functional.
     Citation: Wellendorff et al., PRB 85, 235149 (2012).
     **************************************************************************


     IMPORTANT: XC functional enforced from input :
     Exchange-correlation= BEEF-VDW
                           (   1   4  43  14   2   0   0)
     Any further DFT definition will be discarded
     Please, verify this is what you really want

 
     R & G space division:  proc/nbgrp/npool/nimage =     256
     WARNING: too many processors for an effective parallelization!
     wavefunctions fft division:  task group distribution
                                  #TG    x Z-proc =       8     32
     Subspace diagonalization in iterative solution of the eigenvalue problem:
     a serial algorithm will be used

 
     Parallelization info
     --------------------
     sticks:   dense  smooth     PW     G-vecs:    dense   smooth      PW
     Min         119      95     23                19837    14191    1763
     Max         120      96     24                19846    14206    1780
     Sum       30589   24439   6121              5079105  3634441  454335
 
     Using Pencil Decomposition
 


     bravais-lattice index     =            4
     lattice parameter (alat)  =      35.6120  a.u.
     unit-cell volume          =   45937.3577 (a.u.)^3
     number of atoms/cell      =          143
     number of atomic types    =            2
     number of electrons       =      2287.00
     number of Kohn-Sham states=         1373
     kinetic-energy cutoff     =      70.0000  Ry
     charge density cutoff     =     350.0000  Ry
     scf convergence threshold =      1.0E-07
     mixing beta               =       0.7000
     number of iterations used =            8  plain     mixing
     Exchange-correlation= BEEF-VDW
                           (   1   4  43  14   2   0   0)

     celldm(1)=  35.612033  celldm(2)=   0.000000  celldm(3)=   1.174479
     celldm(4)=   0.000000  celldm(5)=   0.000000  celldm(6)=   0.000000

     crystal axes: (cart. coord. in units of alat)
               a(1) = (   1.000000   0.000000   0.000000 )  
               a(2) = (  -0.500000   0.866025   0.000000 )  
               a(3) = (   0.000000   0.000000   1.174479 )  

     reciprocal axes: (cart. coord. in units 2 pi/alat)
               b(1) = (  1.000000  0.577350 -0.000000 )  
               b(2) = (  0.000000  1.154701  0.000000 )  
               b(3) = (  0.000000 -0.000000  0.851442 )  


     PseudoPot. # 1 for Pb read from file:
     /trace/group/acmegroup/atimmins/packages/espresso/pseudo/psl_1.0.0/pslibrary.1.0.0/pbe/PSEUDOPOTENTIALS/Pb.pbe-dn-kjpaw_psl.1.0.0.UPF
     MD5 check sum: 39ab5b8a6bbd56b7735ad9f188aac93a
     Pseudo is Projector augmented-wave + core cor, Zval = 14.0
     Generated using 'atomic' code by A. Dal Corso  v.7.1
     Shape of augmentation charge: PSQ
     Using radial grid of 1281 points,  6 beta functions with: 
                l(1) =   0
                l(2) =   0
                l(3) =   1
                l(4) =   1
                l(5) =   2
                l(6) =   2
     Q(r) pseudized with 0 coefficients 


     PseudoPot. # 2 for I  read from file:
     /trace/group/acmegroup/atimmins/packages/espresso/pseudo/psl_1.0.0/pslibrary.1.0.0/pbe/PSEUDOPOTENTIALS/I.pbe-dn-kjpaw_psl.1.0.0.UPF
     MD5 check sum: bfa8781bc1224d19af3f3980e3fab11e
     Pseudo is Projector augmented-wave + core cor, Zval = 17.0
     Generated using 'atomic' code by A. Dal Corso  v.7.1
     Shape of augmentation charge: PSQ
     Using radial grid of 1247 points,  6 beta functions with: 
                l(1) =   0
                l(2) =   0
                l(3) =   1
                l(4) =   1
                l(5) =   2
                l(6) =   2
     Q(r) pseudized with 0 coefficients 


     atomic species   valence    mass     pseudopotential
        Pb            14.00   207.20000     Pb( 1.00)
        I             17.00   126.90447     I ( 1.00)

     No symmetry found


                                    s                        frac. trans.

      isym =  1     identity                                     

 cryst.   s( 1) = (     1          0          0      )
                  (     0          1          0      )
                  (     0          0          1      )

 cart.    s( 1) = (  1.0000000  0.0000000  0.0000000 )
                  (  0.0000000  1.0000000  0.0000000 )
                  (  0.0000000  0.0000000  1.0000000 )


     point group C_1 (1)    
     there are  1 classes
     the character table:

       E    
A      1.00

     the symmetry operations in each class and the name of the first element:

     E        1
          identity                                               

   Cartesian axes

     site n.     atom                  positions (alat units)
         1           Pb  tau(   1) = (   0.1250136   0.2164827   1.1744753  )
         2           Pb  tau(   2) = (   0.1250034   0.2164918   0.3914896  )
         3           Pb  tau(   3) = (   0.1250085   0.2164873   0.7829825  )
         4           Pb  tau(   4) = (   0.0000128   0.4329881   1.1744712  )
         5           Pb  tau(   5) = (   0.0000026   0.4329971   0.3914855  )
         6           Pb  tau(   6) = (   0.0000077   0.4329926   0.7829784  )
         7           Pb  tau(   7) = (  -0.1249881   0.6494934   1.1744671  )
         8           Pb  tau(   8) = (  -0.1249983   0.6495025   0.3914814  )
         9           Pb  tau(   9) = (  -0.1249932   0.6494980   0.7829742  )
        10           Pb  tau(  10) = (  -0.2499889   0.8659988   1.1744630  )
        11           Pb  tau(  11) = (  -0.2499991   0.8660078   0.3914773  )
        12           Pb  tau(  12) = (  -0.2499940   0.8660033   0.7829701  )
        13           Pb  tau(  13) = (   0.3750136   0.2164818   1.1744786  )
        14           Pb  tau(  14) = (   0.3750034   0.2164908   0.3914929  )
        15           Pb  tau(  15) = (   0.3750085   0.2164863   0.7829857  )
        16           Pb  tau(  16) = (   0.2500128   0.4329871   1.1744745  )
        17           Pb  tau(  17) = (   0.2500026   0.4329962   0.3914888  )
        18           Pb  tau(  18) = (   0.2500077   0.4329916   0.7829816  )
        19           Pb  tau(  19) = (   0.1250119   0.6494925   1.1744703  )
        20           Pb  tau(  20) = (   0.1250017   0.6495015   0.3914847  )
        21           Pb  tau(  21) = (   0.1250068   0.6494970   0.7829775  )
        22           Pb  tau(  22) = (   0.0000111   0.8659978   1.1744662  )
        23           Pb  tau(  23) = (   0.0000009   0.8660069   0.3914805  )
        24           Pb  tau(  24) = (   0.0000060   0.8660024   0.7829734  )
        25           Pb  tau(  25) = (   0.6250136   0.2164808   1.1744818  )
        26           Pb  tau(  26) = (   0.6250034   0.2164898   0.3914962  )
        27           Pb  tau(  27) = (   0.6250085   0.2164853   0.7829890  )
        28           Pb  tau(  28) = (   0.5000128   0.4329862   1.1744777  )
        29           Pb  tau(  29) = (   0.5000026   0.4329952   0.3914920  )
        30           Pb  tau(  30) = (   0.5000077   0.4329907   0.7829849  )
        31           Pb  tau(  31) = (   0.3750119   0.6494915   1.1744736  )
        32           Pb  tau(  32) = (   0.3750017   0.6495006   0.3914879  )
        33           Pb  tau(  33) = (   0.3750068   0.6494960   0.7829808  )
        34           Pb  tau(  34) = (   0.2500111   0.8659969   1.1744695  )
        35           Pb  tau(  35) = (   0.2500009   0.8660059   0.3914838  )
        36           Pb  tau(  36) = (   0.2500060   0.8660014   0.7829766  )
        37           Pb  tau(  37) = (   0.8750136   0.2164798   1.1744851  )
        38           Pb  tau(  38) = (   0.8750034   0.2164889   0.3914994  )
        39           Pb  tau(  39) = (   0.8750085   0.2164844   0.7829923  )
        40           Pb  tau(  40) = (   0.7500128   0.4329852   1.1744810  )
        41           Pb  tau(  41) = (   0.7500026   0.4329942   0.3914953  )
        42           Pb  tau(  42) = (   0.7500077   0.4329897   0.7829881  )
        43           Pb  tau(  43) = (   0.6250119   0.6494906   1.1744769  )
        44           Pb  tau(  44) = (   0.6250017   0.6494996   0.3914912  )
        45           Pb  tau(  45) = (   0.6250068   0.6494951   0.7829840  )
        46           Pb  tau(  46) = (   0.5000111   0.8659959   1.1744727  )
        47           Pb  tau(  47) = (   0.5000009   0.8660050   0.3914870  )
        48           Pb  tau(  48) = (   0.5000060   0.8660004   0.7829799  )
        49           I   tau(  49) = (   0.1250105   0.0721505   0.6824253  )
        50           I   tau(  50) = (   0.1250156   0.0721459   1.0739182  )
        51           I   tau(  51) = (   0.0000045   0.2886603   0.2909283  )
        52           I   tau(  52) = (   0.0000096   0.2886558   0.6824212  )
        53           I   tau(  53) = (   0.0000147   0.2886513   1.0739140  )
        54           I   tau(  54) = (  -0.1249963   0.5051657   0.2909242  )
        55           I   tau(  55) = (  -0.1249912   0.5051612   0.6824171  )
        56           I   tau(  56) = (  -0.1249861   0.5051566   1.0739099  )
        57           I   tau(  57) = (  -0.2499971   0.7216710   0.2909201  )
        58           I   tau(  58) = (  -0.2499920   0.7216665   0.6824129  )
        59           I   tau(  59) = (  -0.2499869   0.7216620   1.0739058  )
        60           I   tau(  60) = (   0.3750054   0.0721540   0.2909357  )
        61           I   tau(  61) = (   0.3750105   0.0721495   0.6824286  )
        62           I   tau(  62) = (   0.3750156   0.0721450   1.0739214  )
        63           I   tau(  63) = (   0.2500045   0.2886594   0.2909316  )
        64           I   tau(  64) = (   0.2500096   0.2886548   0.6824244  )
        65           I   tau(  65) = (   0.2500147   0.2886503   1.0739173  )
        66           I   tau(  66) = (   0.1250037   0.5051647   0.2909275  )
        67           I   tau(  67) = (   0.1250088   0.5051602   0.6824203  )
        68           I   tau(  68) = (   0.1250139   0.5051557   1.0739132  )
        69           I   tau(  69) = (   0.0000029   0.7216701   0.2909233  )
        70           I   tau(  70) = (   0.0000080   0.7216656   0.6824162  )
        71           I   tau(  71) = (   0.0000131   0.7216610   1.0739090  )
        72           I   tau(  72) = (   0.6250054   0.0721530   0.2909390  )
        73           I   tau(  73) = (   0.6250105   0.0721485   0.6824318  )
        74           I   tau(  74) = (   0.6250156   0.0721440   1.0739247  )
        75           I   tau(  75) = (   0.5000045   0.2886584   0.2909348  )
        76           I   tau(  76) = (   0.5000096   0.2886539   0.6824277  )
        77           I   tau(  77) = (   0.5000147   0.2886494   1.0739205  )
        78           I   tau(  78) = (   0.3750037   0.5051638   0.2909307  )
        79           I   tau(  79) = (   0.3750088   0.5051592   0.6824236  )
        80           I   tau(  80) = (   0.3750139   0.5051547   1.0739164  )
        81           I   tau(  81) = (   0.2500029   0.7216691   0.2909266  )
        82           I   tau(  82) = (   0.2500080   0.7216646   0.6824194  )
        83           I   tau(  83) = (   0.2500131   0.7216601   1.0739123  )
        84           I   tau(  84) = (   0.8750054   0.0721521   0.2909422  )
        85           I   tau(  85) = (   0.8750105   0.0721476   0.6824351  )
        86           I   tau(  86) = (   0.8750156   0.0721430   1.0739279  )
        87           I   tau(  87) = (   0.7500045   0.2886574   0.2909381  )
        88           I   tau(  88) = (   0.7500096   0.2886529   0.6824310  )
        89           I   tau(  89) = (   0.7500147   0.2886484   1.0739238  )
        90           I   tau(  90) = (   0.6250037   0.5051628   0.2909340  )
        91           I   tau(  91) = (   0.6250088   0.5051583   0.6824268  )
        92           I   tau(  92) = (   0.6250139   0.5051538   1.0739197  )
        93           I   tau(  93) = (   0.5000029   0.7216681   0.2909299  )
        94           I   tau(  94) = (   0.5000080   0.7216636   0.6824227  )
        95           I   tau(  95) = (   0.5000131   0.7216591   1.0739156  )
        96           I   tau(  96) = (  -0.0000017   0.1443297   0.1005555  )
        97           I   tau(  97) = (   0.0000034   0.1443252   0.4920483  )
        98           I   tau(  98) = (   0.0000085   0.1443207   0.8835412  )
        99           I   tau(  99) = (  -0.1250025   0.3608351   0.1005514  )
       100           I   tau( 100) = (  -0.1249974   0.3608306   0.4920442  )
       101           I   tau( 101) = (  -0.1249923   0.3608260   0.8835371  )
       102           I   tau( 102) = (  -0.2500034   0.5773404   0.1005472  )
       103           I   tau( 103) = (  -0.2499983   0.5773359   0.4920401  )
       104           I   tau( 104) = (  -0.2499932   0.5773314   0.8835329  )
       105           I   tau( 105) = (  -0.3750042   0.7938458   0.1005431  )
       106           I   tau( 106) = (  -0.3749991   0.7938413   0.4920360  )
       107           I   tau( 107) = (  -0.3749940   0.7938368   0.8835288  )
       108           I   tau( 108) = (   0.2499983   0.1443288   0.1005587  )
       109           I   tau( 109) = (   0.2500034   0.1443242   0.4920516  )
       110           I   tau( 110) = (   0.2500085   0.1443197   0.8835444  )
       111           I   tau( 111) = (   0.1249975   0.3608341   0.1005546  )
       112           I   tau( 112) = (   0.1250026   0.3608296   0.4920475  )
       113           I   tau( 113) = (   0.1250077   0.3608251   0.8835403  )
       114           I   tau( 114) = (  -0.0000034   0.5773395   0.1005505  )
       115           I   tau( 115) = (   0.0000017   0.5773350   0.4920433  )
       116           I   tau( 116) = (   0.0000068   0.5773304   0.8835362  )
       117           I   tau( 117) = (  -0.1250042   0.7938448   0.1005464  )
       118           I   tau( 118) = (  -0.1249991   0.7938403   0.4920392  )
       119           I   tau( 119) = (  -0.1249940   0.7938358   0.8835321  )
       120           I   tau( 120) = (   0.4999983   0.1443278   0.1005620  )
       121           I   tau( 121) = (   0.5000034   0.1443233   0.4920548  )
       122           I   tau( 122) = (   0.5000085   0.1443188   0.8835477  )
       123           I   tau( 123) = (   0.3749975   0.3608332   0.1005579  )
       124           I   tau( 124) = (   0.3750026   0.3608286   0.4920507  )
       125           I   tau( 125) = (   0.3750077   0.3608241   0.8835436  )
       126           I   tau( 126) = (   0.2499966   0.5773385   0.1005537  )
       127           I   tau( 127) = (   0.2500017   0.5773340   0.4920466  )
       128           I   tau( 128) = (   0.2500068   0.5773295   0.8835394  )
       129           I   tau( 129) = (   0.1249958   0.7938439   0.1005496  )
       130           I   tau( 130) = (   0.1250009   0.7938394   0.4920425  )
       131           I   tau( 131) = (   0.1250060   0.7938348   0.8835353  )
       132           I   tau( 132) = (   0.7499983   0.1443268   0.1005653  )
       133           I   tau( 133) = (   0.7500034   0.1443223   0.4920581  )
       134           I   tau( 134) = (   0.7500085   0.1443178   0.8835509  )
       135           I   tau( 135) = (   0.6249975   0.3608322   0.1005611  )
       136           I   tau( 136) = (   0.6250026   0.3608277   0.4920540  )
       137           I   tau( 137) = (   0.6250077   0.3608232   0.8835468  )
       138           I   tau( 138) = (   0.4999966   0.5773376   0.1005570  )
       139           I   tau( 139) = (   0.5000017   0.5773330   0.4920499  )
       140           I   tau( 140) = (   0.5000068   0.5773285   0.8835427  )
       141           I   tau( 141) = (   0.3749958   0.7938429   0.1005529  )
       142           I   tau( 142) = (   0.3750009   0.7938384   0.4920457  )
       143           I   tau( 143) = (   0.3750060   0.7938339   0.8835386  )

   Crystallographic axes

     site n.     atom                  positions (cryst. coord.)
         1           Pb  tau(   1) = (  0.2500000  0.2499727  0.9999973  )
         2           Pb  tau(   2) = (  0.2499950  0.2499832  0.3333306  )
         3           Pb  tau(   3) = (  0.2499975  0.2499780  0.6666639  )
         4           Pb  tau(   4) = (  0.2499986  0.4999716  0.9999938  )
         5           Pb  tau(   5) = (  0.2499936  0.4999820  0.3333271  )
         6           Pb  tau(   6) = (  0.2499961  0.4999768  0.6666604  )
         7           Pb  tau(   7) = (  0.2499972  0.7499704  0.9999902  )
         8           Pb  tau(   8) = (  0.2499922  0.7499809  0.3333236  )
         9           Pb  tau(   9) = (  0.2499947  0.7499757  0.6666569  )
        10           Pb  tau(  10) = (  0.2499957  0.9999693  0.9999867  )
        11           Pb  tau(  11) = (  0.2499908  0.9999797  0.3333201  )
        12           Pb  tau(  12) = (  0.2499932  0.9999745  0.6666534  )
        13           Pb  tau(  13) = (  0.4999994  0.2499716  1.0000000  )
        14           Pb  tau(  14) = (  0.4999944  0.2499821  0.3333334  )
        15           Pb  tau(  15) = (  0.4999969  0.2499768  0.6666667  )
        16           Pb  tau(  16) = (  0.4999980  0.4999705  0.9999965  )
        17           Pb  tau(  17) = (  0.4999930  0.4999809  0.3333299  )
        18           Pb  tau(  18) = (  0.4999955  0.4999757  0.6666632  )
        19           Pb  tau(  19) = (  0.4999966  0.7499693  0.9999930  )
        20           Pb  tau(  20) = (  0.4999916  0.7499798  0.3333264  )
        21           Pb  tau(  21) = (  0.4999941  0.7499745  0.6666597  )
        22           Pb  tau(  22) = (  0.4999952  0.9999682  0.9999895  )
        23           Pb  tau(  23) = (  0.4999902  0.9999786  0.3333228  )
        24           Pb  tau(  24) = (  0.4999927  0.9999734  0.6666562  )
        25           Pb  tau(  25) = (  0.7499989  0.2499705  1.0000028  )
        26           Pb  tau(  26) = (  0.7499939  0.2499809  0.3333362  )
        27           Pb  tau(  27) = (  0.7499964  0.2499757  0.6666695  )
        28           Pb  tau(  28) = (  0.7499975  0.4999694  0.9999993  )
        29           Pb  tau(  29) = (  0.7499925  0.4999798  0.3333326  )
        30           Pb  tau(  30) = (  0.7499950  0.4999746  0.6666660  )
        31           Pb  tau(  31) = (  0.7499960  0.7499682  0.9999958  )
        32           Pb  tau(  32) = (  0.7499910  0.7499786  0.3333291  )
        33           Pb  tau(  33) = (  0.7499935  0.7499734  0.6666625  )
        34           Pb  tau(  34) = (  0.7499946  0.9999671  0.9999923  )
        35           Pb  tau(  35) = (  0.7499896  0.9999775  0.3333256  )
        36           Pb  tau(  36) = (  0.7499921  0.9999723  0.6666590  )
        37           Pb  tau(  37) = (  0.9999983  0.2499694  1.0000056  )
        38           Pb  tau(  38) = (  0.9999933  0.2499798  0.3333389  )
        39           Pb  tau(  39) = (  0.9999958  0.2499746  0.6666723  )
        40           Pb  tau(  40) = (  0.9999969  0.4999682  1.0000021  )
        41           Pb  tau(  41) = (  0.9999919  0.4999787  0.3333354  )
        42           Pb  tau(  42) = (  0.9999944  0.4999735  0.6666687  )
        43           Pb  tau(  43) = (  0.9999955  0.7499671  0.9999986  )
        44           Pb  tau(  44) = (  0.9999905  0.7499775  0.3333319  )
        45           Pb  tau(  45) = (  0.9999930  0.7499723  0.6666652  )
        46           Pb  tau(  46) = (  0.9999941  0.9999659  0.9999951  )
        47           Pb  tau(  47) = (  0.9999891  0.9999764  0.3333284  )
        48           Pb  tau(  48) = (  0.9999916  0.9999712  0.6666617  )
        49           I   tau(  49) = (  0.1666666  0.0833122  0.5810454  )
        50           I   tau(  50) = (  0.1666691  0.0833070  0.9143787  )
        51           I   tau(  51) = (  0.1666626  0.3333162  0.2477085  )
        52           I   tau(  52) = (  0.1666651  0.3333110  0.5810418  )
        53           I   tau(  53) = (  0.1666676  0.3333058  0.9143752  )
        54           I   tau(  54) = (  0.1666612  0.5833151  0.2477050  )
        55           I   tau(  55) = (  0.1666637  0.5833099  0.5810383  )
        56           I   tau(  56) = (  0.1666662  0.5833047  0.9143717  )
        57           I   tau(  57) = (  0.1666598  0.8333139  0.2477015  )
        58           I   tau(  58) = (  0.1666623  0.8333087  0.5810348  )
        59           I   tau(  59) = (  0.1666648  0.8333035  0.9143682  )
        60           I   tau(  60) = (  0.4166635  0.0833163  0.2477148  )
        61           I   tau(  61) = (  0.4166660  0.0833111  0.5810481  )
        62           I   tau(  62) = (  0.4166685  0.0833058  0.9143815  )
        63           I   tau(  63) = (  0.4166621  0.3333151  0.2477113  )
        64           I   tau(  64) = (  0.4166646  0.3333099  0.5810446  )
        65           I   tau(  65) = (  0.4166671  0.3333047  0.9143780  )
        66           I   tau(  66) = (  0.4166607  0.5833140  0.2477078  )
        67           I   tau(  67) = (  0.4166632  0.5833088  0.5810411  )
        68           I   tau(  68) = (  0.4166657  0.5833035  0.9143744  )
        69           I   tau(  69) = (  0.4166593  0.8333128  0.2477043  )
        70           I   tau(  70) = (  0.4166618  0.8333076  0.5810376  )
        71           I   tau(  71) = (  0.4166643  0.8333024  0.9143709  )
        72           I   tau(  72) = (  0.6666629  0.0833152  0.2477176  )
        73           I   tau(  73) = (  0.6666654  0.0833099  0.5810509  )
        74           I   tau(  74) = (  0.6666679  0.0833047  0.9143842  )
        75           I   tau(  75) = (  0.6666615  0.3333140  0.2477141  )
        76           I   tau(  76) = (  0.6666640  0.3333088  0.5810474  )
        77           I   tau(  77) = (  0.6666665  0.3333036  0.9143807  )
        78           I   tau(  78) = (  0.6666601  0.5833129  0.2477106  )
        79           I   tau(  79) = (  0.6666626  0.5833076  0.5810439  )
        80           I   tau(  80) = (  0.6666651  0.5833024  0.9143772  )
        81           I   tau(  81) = (  0.6666587  0.8333117  0.2477070  )
        82           I   tau(  82) = (  0.6666612  0.8333065  0.5810404  )
        83           I   tau(  83) = (  0.6666637  0.8333013  0.9143737  )
        84           I   tau(  84) = (  0.9166624  0.0833141  0.2477203  )
        85           I   tau(  85) = (  0.9166649  0.0833088  0.5810537  )
        86           I   tau(  86) = (  0.9166674  0.0833036  0.9143870  )
        87           I   tau(  87) = (  0.9166610  0.3333129  0.2477168  )
        88           I   tau(  88) = (  0.9166635  0.3333077  0.5810502  )
        89           I   tau(  89) = (  0.9166660  0.3333025  0.9143835  )
        90           I   tau(  90) = (  0.9166596  0.5833118  0.2477133  )
        91           I   tau(  91) = (  0.9166621  0.5833065  0.5810467  )
        92           I   tau(  92) = (  0.9166646  0.5833013  0.9143800  )
        93           I   tau(  93) = (  0.9166582  0.8333106  0.2477098  )
        94           I   tau(  94) = (  0.9166607  0.8333054  0.5810431  )
        95           I   tau(  95) = (  0.9166632  0.8333002  0.9143765  )
        96           I   tau(  96) = (  0.0833271  0.1666576  0.0856171  )
        97           I   tau(  97) = (  0.0833296  0.1666524  0.4189505  )
        98           I   tau(  98) = (  0.0833321  0.1666472  0.7522838  )
        99           I   tau(  99) = (  0.0833257  0.4166565  0.0856136  )
       100           I   tau( 100) = (  0.0833282  0.4166513  0.4189470  )
       101           I   tau( 101) = (  0.0833307  0.4166460  0.7522803  )
       102           I   tau( 102) = (  0.0833243  0.6666553  0.0856101  )
       103           I   tau( 103) = (  0.0833268  0.6666501  0.4189434  )
       104           I   tau( 104) = (  0.0833293  0.6666449  0.7522768  )
       105           I   tau( 105) = (  0.0833229  0.9166542  0.0856066  )
       106           I   tau( 106) = (  0.0833254  0.9166489  0.4189399  )
       107           I   tau( 107) = (  0.0833279  0.9166437  0.7522733  )
       108           I   tau( 108) = (  0.3333265  0.1666565  0.0856199  )
       109           I   tau( 109) = (  0.3333290  0.1666513  0.4189532  )
       110           I   tau( 110) = (  0.3333315  0.1666461  0.7522866  )
       111           I   tau( 111) = (  0.3333251  0.4166554  0.0856164  )
       112           I   tau( 112) = (  0.3333276  0.4166501  0.4189497  )
       113           I   tau( 113) = (  0.3333301  0.4166449  0.7522831  )
       114           I   tau( 114) = (  0.3333237  0.6666542  0.0856129  )
       115           I   tau( 115) = (  0.3333262  0.6666490  0.4189462  )
       116           I   tau( 116) = (  0.3333287  0.6666438  0.7522795  )
       117           I   tau( 117) = (  0.3333223  0.9166531  0.0856094  )
       118           I   tau( 118) = (  0.3333248  0.9166478  0.4189427  )
       119           I   tau( 119) = (  0.3333273  0.9166426  0.7522760  )
       120           I   tau( 120) = (  0.5833260  0.1666554  0.0856227  )
       121           I   tau( 121) = (  0.5833285  0.1666502  0.4189560  )
       122           I   tau( 122) = (  0.5833310  0.1666450  0.7522893  )
       123           I   tau( 123) = (  0.5833246  0.4166542  0.0856192  )
       124           I   tau( 124) = (  0.5833271  0.4166490  0.4189525  )
       125           I   tau( 125) = (  0.5833296  0.4166438  0.7522858  )
       126           I   tau( 126) = (  0.5833232  0.6666531  0.0856157  )
       127           I   tau( 127) = (  0.5833257  0.6666479  0.4189490  )
       128           I   tau( 128) = (  0.5833282  0.6666427  0.7522823  )
       129           I   tau( 129) = (  0.5833218  0.9166519  0.0856121  )
       130           I   tau( 130) = (  0.5833243  0.9166467  0.4189455  )
       131           I   tau( 131) = (  0.5833268  0.9166415  0.7522788  )
       132           I   tau( 132) = (  0.8333254  0.1666543  0.0856254  )
       133           I   tau( 133) = (  0.8333279  0.1666491  0.4189588  )
       134           I   tau( 134) = (  0.8333304  0.1666438  0.7522921  )
       135           I   tau( 135) = (  0.8333240  0.4166531  0.0856219  )
       136           I   tau( 136) = (  0.8333265  0.4166479  0.4189553  )
       137           I   tau( 137) = (  0.8333290  0.4166427  0.7522886  )
       138           I   tau( 138) = (  0.8333226  0.6666520  0.0856184  )
       139           I   tau( 139) = (  0.8333251  0.6666468  0.4189518  )
       140           I   tau( 140) = (  0.8333276  0.6666415  0.7522851  )
       141           I   tau( 141) = (  0.8333212  0.9166508  0.0856149  )
       142           I   tau( 142) = (  0.8333237  0.9166456  0.4189482  )
       143           I   tau( 143) = (  0.8333262  0.9166404  0.7522816  )

     number of k points=     1  Gaussian smearing, width (Ry)=  0.0100
                       cart. coord. in units 2pi/alat
        k(    1) = (   0.0000000   0.0000000   0.0000000), wk =   2.0000000

                       cryst. coord.
        k(    1) = (   0.0000000   0.0000000   0.0000000), wk =   2.0000000

     Dense  grid:  5079105 G-vectors     FFT dimensions: ( 216, 216, 250)

     Smooth grid:  3634441 G-vectors     FFT dimensions: ( 192, 192, 225)

     Dynamical RAM for                 wfc:      37.17 MB

     Dynamical RAM for     wfc (w. buffer):      37.17 MB

     Dynamical RAM for           str. fact:       0.61 MB

     Dynamical RAM for           local pot:       0.00 MB

     Dynamical RAM for          nlocal pot:      69.68 MB

     Dynamical RAM for                qrad:       3.00 MB

     Dynamical RAM for          rho,v,vnew:       1.98 MB

     Dynamical RAM for               rhoin:       0.66 MB

     Dynamical RAM for            rho*nmix:       4.84 MB

     Dynamical RAM for           G-vectors:       1.24 MB

     Dynamical RAM for          h,s,v(r/c):    1380.71 MB

     Dynamical RAM for          <psi|beta>:      53.93 MB

     Dynamical RAM for                 psi:     148.66 MB

     Dynamical RAM for                hpsi:     148.66 MB

     Dynamical RAM for                spsi:     148.66 MB

     Dynamical RAM for      wfcinit/wfcrot:     117.49 MB

     Dynamical RAM for           addusdens:      85.07 MB

     Dynamical RAM for          addusforce:     142.51 MB

     Dynamical RAM for         addusstress:      60.85 MB

     Estimated static dynamical RAM per process >     117.02 MB

     Estimated max dynamical RAM per process >       1.96 GB

     Estimated total dynamical RAM >     500.62 GB

     Atomic positions and unit cell read from directory:
     ./PbI2.save/
     Atomic positions from file used, from input discarded
 

     Check: negative core charge=   -0.000001

     The initial density is read from file :
     ./PbI2.save/charge-density



     %%%%%%%%%%%%%%%%%%%%%%%%%%%%%%%%%%%%%%%%%%%%%%%%%%%%%%%%%%%%%%%%%%%%%%%%
     %                                                                      %
     % You are using vdW-DF, which was implemented by the Thonhauser group. %
     % Please cite the following two papers that made this development      %
     % possible and the two reviews that describe the various versions:     %
     %                                                                      %
     %   T. Thonhauser et al., PRL 115, 136402 (2015).                      %
     %   T. Thonhauser et al., PRB 76, 125112 (2007).                       %
     %   K. Berland et al., Rep. Prog. Phys. 78, 066501 (2015).             %
     %   D.C. Langreth et al., J. Phys.: Condens. Matter 21, 084203 (2009). %
     %                                                                      %
     % If you are calculating stress with vdW-DF, please also cite:         %
     %                                                                      %
     %   R. Sabatini et al., J. Phys.: Condens. Matter 24, 424209 (2012).   %
     %                                                                      %
     %%%%%%%%%%%%%%%%%%%%%%%%%%%%%%%%%%%%%%%%%%%%%%%%%%%%%%%%%%%%%%%%%%%%%%%%

     %%%%%%%%%%%%%%%%%%%%%%%%%%%%%%%%%%%%%%%%%%%%%%%%%%%%%%%%%%%%%%%%%%%%%%%%
     %                                                                      %
     %  vdW-DF NEWS:                                                        %
     %                                                                      %
     %  * vdW-DF3 is now available. DOI: 10.1021/acs.jctc.0c00471           %
     %    use with input_dft = 'vdW-DF3-opt1' or 'vdW-DF3-opt2'             %
     %                                                                      %
     %  * Unscreened and range-separated vdW-DF hybrid functionals          %
     %    DOI: 10.1063/1.4986522 and 10.1088/1361-648X/ac2ad2               %
     %    use with input_dft = 'vdW-DF-cx0' (etc) and 'vdW-DF-ahcx'         %
     %                                                                      %
     %%%%%%%%%%%%%%%%%%%%%%%%%%%%%%%%%%%%%%%%%%%%%%%%%%%%%%%%%%%%%%%%%%%%%%%%


     Carrying out vdW-DF run using the following parameters:
     Nqs    =  20  Npoints =  1024  r_max =  100.000
     q_mesh =  0.00001000  0.04494208  0.09755937  0.15916263
               0.23128650  0.31572767  0.41458969  0.53033537
               0.66584808  0.82450364  1.01025438  1.22772762
               1.48234092  1.78043706  2.12944203  2.53805004
               3.01644009  3.57652955  4.23227104  5.00000000


     -----------------------------------------------
     Non-local corr. energy    =      68.47924407 Ry
     -----------------------------------------------

     Starting wfcs from file
     Checking if some PAW data can be deallocated... 
       PAW data deallocated on  160 nodes for type:  1
       PAW data deallocated on   96 nodes for type:  2

     total cpu time spent up to now is       44.8 secs

     Self-consistent Calculation

     iteration #  1     ecut=    70.00 Ry     beta= 0.70
     Davidson diagonalization with overlap

---- Real-time Memory Report at c_bands before calling an iterative solver
           360 MiB given to the printing process from OS
             0 MiB allocation reported by mallinfo(arena+hblkhd)
       1736536 MiB available memory on the node where the printing process lives
------------------
     ethr =  1.00E-05,  avg # of iterations =  1.0

     Threshold (ethr) on eigenvalues was too large:
     Diagonalizing with lowered threshold

     Davidson diagonalization with overlap

---- Real-time Memory Report at c_bands before calling an iterative solver
          1385 MiB given to the printing process from OS
             0 MiB allocation reported by mallinfo(arena+hblkhd)
       1719425 MiB available memory on the node where the printing process lives
------------------
     c_bands:  1 eigenvalues not converged
     ethr =  3.46E-13,  avg # of iterations = 20.0


     -----------------------------------------------
     Non-local corr. energy    =      68.47924357 Ry
     -----------------------------------------------


     total cpu time spent up to now is      752.2 secs

     End of self-consistent calculation

          k = 0.0000 0.0000 0.0000 (454335 PWs)   bands (ev):

   -40.9055 -40.9055 -40.9054 -40.9052 -40.9052 -40.9051 -40.8977 -40.8977
   -40.8976 -40.8897 -40.8897 -40.8896 -40.8893 -40.8892 -40.8892 -40.8540
   -40.8540 -40.8539 -40.8536 -40.8535 -40.8535 -40.8527 -40.8526 -40.8526
   -40.8525 -40.8525 -40.8524 -40.8510 -40.8509 -40.8509 -40.8503 -40.8502
   -40.8502 -40.8500 -40.8499 -40.8499 -40.8455 -40.8454 -40.8454 -40.8400
   -40.8400 -40.8399 -40.8396 -40.8396 -40.8395 -40.8393 -40.8393 -40.8393
   -40.8393 -40.8392 -40.8392 -40.8390 -40.8390 -40.8389 -40.8389 -40.8389
   -40.8389 -40.8389 -40.8389 -40.8388 -40.8387 -40.8387 -40.8386 -40.8386
   -40.8383 -40.8383 -40.8383 -40.8383 -40.8383 -40.8383 -40.8382 -40.8382
   -40.8382 -40.8382 -40.8382 -40.8381 -40.8381 -40.8380 -40.8380 -40.8380
   -40.8379 -40.8379 -40.8379 -40.8379 -40.8379 -40.8378 -40.8378 -40.8378
   -40.8376 -40.8376 -40.8376 -40.8376 -40.8375 -40.8375 -40.8374 -40.8374
   -40.8374 -40.8374 -40.8374 -40.8373 -40.8373 -40.8373 -40.8373 -40.8372
   -40.8372 -40.8371 -40.8370 -40.8370 -40.8370 -40.8369 -40.8369 -40.8369
   -40.8369 -40.8369 -40.8368 -40.8367 -40.8367 -40.8367 -40.8367 -40.8367
   -40.8366 -40.8366 -40.8366 -40.8366 -40.8366 -40.8366 -40.8366 -40.8366
   -40.8366 -40.8366 -40.8366 -40.8366 -40.8365 -40.8365 -40.8365 -40.8365
   -40.8365 -40.8365 -40.8365 -40.8365 -40.8365 -40.8365 -40.8364 -40.8363
   -40.8363 -40.8363 -40.8362 -40.8362 -40.8361 -40.8361 -40.8361 -40.8361
   -40.8361 -40.8361 -40.8361 -40.8360 -40.8360 -40.8360 -40.8360 -40.8360
   -40.8357 -40.8357 -40.8356 -40.8355 -40.8355 -40.8355 -40.8352 -40.8351
   -40.8351 -40.8350 -40.8350 -40.8348 -40.8348 -40.8348 -40.8348 -40.8347
   -40.8347 -40.8347 -40.8345 -40.8345 -40.8345 -40.8345 -40.8344 -40.8344
   -40.8344 -40.8344 -40.8344 -40.8344 -40.8344 -40.8343 -40.8343 -40.8343
   -40.8342 -40.8342 -40.8341 -40.8341 -40.8341 -40.8340 -40.8340 -40.8340
   -40.8340 -40.8340 -40.8339 -40.8339 -40.8339 -40.8339 -40.8339 -40.8339
   -40.8339 -40.8338 -40.8338 -40.8338 -40.8337 -40.8337 -40.8337 -40.8337
   -40.8337 -40.8337 -40.8336 -40.8336 -40.8336 -40.8336 -40.8335 -40.8335
   -40.8335 -40.8335 -40.8333 -40.8333 -40.8333 -40.8333 -40.8332 -40.8332
   -40.8332 -40.8332 -40.8332 -40.8331 -40.8330 -40.8330 -40.8330 -40.8330
   -40.8330 -40.8330 -40.8329 -40.8329 -40.8329 -40.8329 -40.8328 -40.8328
   -40.8327 -40.8327 -40.8327 -40.8326 -40.8326 -40.8326 -40.8326 -40.8326
   -40.8326 -40.8326 -40.8326 -40.8325 -40.8325 -40.8325 -40.8325 -40.8325
   -40.8325 -40.8325 -40.8324 -40.8324 -40.8324 -40.8324 -40.8324 -40.8323
   -40.8322 -40.8322 -40.8322 -40.8322 -40.8321 -40.8321 -40.8321 -40.8321
   -40.8321 -40.8321 -40.8321 -40.8321 -40.8321 -40.8320 -40.8320 -40.8319
   -40.8319 -40.8319 -40.8319 -40.8319 -40.8319 -40.8319 -40.8319 -40.8319
   -40.8319 -40.8319 -40.8318 -40.8318 -40.8318 -40.8318 -40.8316 -40.8316
   -40.8315 -40.8315 -40.8315 -40.8315 -40.8315 -40.8315 -40.8315 -40.8315
   -40.8314 -40.8314 -40.8314 -40.8314 -40.8314 -40.8313 -40.8312 -40.8312
   -40.8310 -40.8310 -40.8309 -40.8309 -40.8309 -40.8309 -40.8308 -40.8308
   -40.8308 -40.8308 -40.8307 -40.8307 -40.8302 -40.8302 -40.8301 -40.8300
   -40.8300 -40.8299 -40.8299 -40.8299 -40.8299 -40.8298 -40.8298 -40.8298
   -40.8297 -40.8297 -40.8297 -40.8291 -40.8291 -40.8291 -40.8290 -40.8290
   -40.8290 -40.8290 -40.8290 -40.8289 -40.8288 -40.8288 -40.8287 -40.8253
   -40.8253 -40.8252 -40.8245 -40.8245 -40.8245 -40.8215 -40.8215 -40.8214
   -40.8214 -40.8214 -40.8213 -40.8208 -40.8208 -40.8207 -40.8207 -40.8207
   -40.8206 -40.8195 -40.8195 -40.8194 -40.8194 -40.8194 -40.8193 -40.8186
   -40.8185 -40.8184 -40.8184 -40.8184 -40.8184 -40.8184 -40.8183 -40.8183
   -40.8179 -40.8179 -40.8178 -40.8178 -40.8178 -40.8178 -40.8178 -40.8177
   -40.8177 -40.8166 -40.8165 -40.8165 -40.8139 -40.8138 -40.8138 -40.8138
   -40.8137 -40.8137 -40.8137 -40.8136 -40.8136 -40.8136 -40.8136 -40.8135
   -40.8129 -40.8128 -40.8128 -40.8126 -40.8126 -40.8126 -40.8124 -40.8123
   -40.8123 -40.8054 -40.8054 -40.8053 -40.8046 -40.8046 -40.8045 -40.8034
   -40.8033 -40.8032 -40.8032 -40.8032 -40.8031 -40.8024 -40.8024 -40.8023
   -40.8006 -40.8006 -40.7997 -40.7997 -40.7994 -40.7947 -40.7947 -40.7946
   -40.7946 -40.7946 -40.7946 -40.7942 -40.7942 -40.7942 -40.7942 -40.7942
   -40.7941 -40.7859 -40.7859 -40.7859 -40.7859 -40.7859 -40.7858 -40.7835
   -40.7835 -40.7835 -40.7835 -40.7835 -40.7834 -40.7814 -40.7814 -40.7814
   -40.7813 -40.7813 -40.7813 -13.0129 -13.0129 -13.0096 -13.0076 -13.0076
   -13.0068 -13.0064 -13.0061 -13.0061 -13.0053 -13.0016 -13.0016 -13.0014
   -13.0014 -13.0009 -12.9999 -12.9996 -12.9995 -12.9995 -12.9988 -12.9988
   -12.9979 -12.9979 -12.9970 -12.9970 -12.9959 -12.9959 -12.9955 -12.9955
   -12.9954 -12.9928 -12.9928 -12.9928 -12.9925 -12.9907 -12.9907 -12.9905
   -12.9905 -12.9901 -12.9894 -12.9894 -12.9892 -12.9892 -12.9891 -12.9891
   -12.9881 -12.9881 -12.9881 -12.9881 -12.9877 -12.9876 -12.9876 -12.9874
   -12.9871 -12.9871 -12.9871 -12.9864 -12.9861 -12.9861 -12.9859 -12.9859
   -12.9856 -12.9855 -12.9845 -12.9845 -12.9842 -12.9842 -12.9836 -12.9836
   -12.9835 -12.9834 -12.9834 -12.9832 -12.9832 -12.9832 -12.9831 -12.9828
   -12.9827 -12.9825 -12.9825 -12.9824 -12.9824 -12.9823 -12.9823 -12.9822
   -12.9822 -12.9820 -12.9818 -12.9818 -12.9816 -12.9816 -12.9814 -12.9814
   -12.9804 -12.9804 -12.9804 -12.9803 -12.9803 -12.9802 -12.9800 -12.9800
   -12.9798 -12.9797 -12.9797 -12.9793 -12.9789 -12.9789 -12.9789 -12.9783
   -12.9783 -12.9775 -12.9775 -12.9775 -12.9775 -12.9773 -12.9772 -12.9772
   -12.9772 -12.9771 -12.9771 -12.9769 -12.9769 -12.9769 -12.9768 -12.9768
   -12.9766 -12.9766 -12.9766 -12.9766 -12.9766 -12.9766 -12.9763 -12.9763
   -12.9762 -12.9762 -12.9760 -12.9760 -12.9759 -12.9754 -12.9750 -12.9750
   -12.9749 -12.9748 -12.9748 -12.9746 -12.9746 -12.9745 -12.9743 -12.9739
   -12.9739 -12.9738 -12.9737 -12.9735 -12.9733 -12.9733 -12.9731 -12.9731
   -12.9724 -12.9722 -12.9722 -12.9716 -12.9716 -12.9716 -12.9713 -12.9708
   -12.9707 -12.9707 -12.9705 -12.9705 -12.9705 -12.9705 -12.9704 -12.9691
   -12.9691 -12.9691 -12.9690 -12.9686 -12.9685 -12.9684 -12.9684 -12.9682
   -12.9678 -12.9678 -12.9671 -12.9671 -12.9657 -12.9657 -12.9655 -12.9654
   -12.9654 -12.9653 -12.9647 -12.9643 -12.9639 -12.9639 -12.9632 -12.9631
   -12.9631 -12.9615 -12.9615 -12.9611 -12.9603 -12.9603 -12.9601 -12.9599
   -12.9596 -12.9596 -12.9596 -12.9594 -12.9594 -12.9590 -12.9590 -12.9577
   -12.9575 -12.9574 -12.9574 -12.9567 -12.9561 -12.9561 -12.9553 -12.9552
   -12.9541 -12.9541 -12.9537 -12.9524 -12.9523 -12.9512 -12.9502 -12.9502
   -12.9489 -12.9489 -12.9447 -12.9416 -12.9402 -12.9401 -12.9378 -12.9377
   -12.9292 -12.9291 -12.9282  -8.1621  -8.1080  -8.0858  -7.9645  -7.9645
    -7.9639  -7.9611  -7.9610  -7.9593  -7.9195  -7.9184  -7.9183  -7.9162
    -7.9159  -7.9159  -7.9060  -7.9059  -7.9004  -7.8959  -7.8959  -7.8905
    -7.7236  -7.7088  -7.7088  -7.7074  -7.7009  -7.7009  -7.6982  -7.6982
    -7.6890  -7.6890  -7.6813  -7.6797  -7.6797  -7.6771  -7.6767  -7.6765
    -7.6765  -7.6733  -7.6733  -7.6631  -7.6631  -7.6625  -7.6591  -7.6591
    -7.6588  -7.6500  -7.6452  -7.6452  -7.6436  -7.6335  -7.6316  -7.6315
    -7.6304  -7.6304  -7.6299  -7.6280  -7.6185  -7.6172  -7.6172  -7.6130
    -7.6129  -7.5952  -7.5762  -7.5762  -7.5739  -7.5667  -7.5667  -7.5650
    -7.5620  -7.5620  -7.5610  -7.5587  -7.5587  -7.5581  -7.5580  -7.5580
    -7.5578  -7.5555  -7.5554  -7.5514  -7.5514  -7.5510  -7.5474  -7.5473
    -7.5449  -7.5429  -7.5389  -7.5389  -7.5251  -7.5251  -7.5248  -7.5167
    -7.5167  -7.5087  -3.7275  -3.7052  -3.7030  -3.7030  -3.6969  -3.6967
    -3.6967  -3.6950  -3.6950  -3.6894  -3.6887  -3.6870  -3.6870  -3.6865
    -3.6861  -3.6861  -3.6859  -3.6859  -3.6854  -3.6734  -3.6734  -3.6719
    -3.6674  -3.6674  -3.6606  -3.6081  -3.6080  -3.5022  -3.4383  -3.4383
    -3.4376  -3.4360  -3.4348  -3.4348  -3.4260  -3.4254  -3.4254  -3.4229
    -3.4229  -3.4229  -3.4063  -3.4054  -3.4054  -3.3593  -3.3592  -3.2497
    -3.1945  -3.1900   0.8524   0.8524   0.8530   0.8767   0.8839   0.8839
     1.0736   1.0783   1.0783   1.1351   1.1352   1.1393   1.1393   1.1414
     1.1420   1.1495   1.1512   1.1512   1.1560   1.1769   1.1769   1.3135
     1.3241   1.3242   1.3287   1.3416   1.3416   1.3883   1.3883   1.3887
     1.3925   1.3926   1.3927   1.3963   1.3980   1.3994   1.3994   1.4059
     1.4059   1.4222   1.4235   1.4236   1.4307   1.4307   1.4312   1.4335
     1.4335   1.4420   1.4436   1.4436   1.4477   1.4608   1.4643   1.4643
     1.5047   1.5047   1.5070   1.6847   1.6847   1.6997   1.7003   1.7119
     1.7127   1.7127   1.7179   1.7179   1.7899   1.7899   1.7915   1.7919
     1.7919   1.7919   1.7971   1.7971   1.8122   1.8224   1.8296   1.8296
     1.8521   1.8672   1.8672   1.9324   1.9324   1.9339   1.9362   1.9363
     1.9370   1.9436   1.9436   1.9503   1.9627   1.9631   1.9632   1.9673
     1.9753   1.9753   1.9805   1.9844   1.9844   1.9923   1.9923   1.9933
     2.0078   2.0353   2.0353   2.0713   2.0769   2.0769   2.1013   2.1076
     2.1076   2.1322   2.1388   2.1388   2.1496   2.1496   2.1675   2.1691
     2.1698   2.1704   2.1704   2.1833   2.1833   2.2086   2.2099   2.2099
     2.2149   2.2173   2.2374   2.2374   2.2582   2.2598   2.2599   2.2642
     2.2655   2.2693   2.2693   2.2740   2.2740   2.2800   2.3055   2.3534
     2.3534   2.4224   2.4294   2.4294   2.4923   2.4969   2.4969   2.5141
     2.5186   2.5186   2.5317   2.5357   2.5357   2.5391   2.5436   2.5436
     2.5475   2.5475   2.5553   2.5685   2.5796   2.5796   2.6113   2.6410
     2.6410   2.6647   2.6647   2.6883   2.6884   2.6907   2.6984   2.6984
     2.7021   2.7138   2.7138   2.7222   2.7222   2.7230   2.7399   2.7399
     2.7470   2.7473   2.7473   2.7555   2.7760   2.7760   2.7768   2.7951
     2.8013   2.8014   2.8067   2.8067   2.8117   2.8124   2.8124   2.8156
     2.8195   2.8195   2.8277   2.8325   2.8325   2.8389   2.8390   2.8406
     2.8539   2.8673   2.8673   2.8876   2.8876   2.8910   2.8931   2.8931
     2.8951   2.8989   2.8990   2.8990   2.9003   2.9003   2.9009   2.9009
     2.9010   2.9026   2.9052   2.9052   2.9061   2.9061   2.9111   2.9150
     2.9150   2.9296   2.9323   2.9323   2.9326   2.9400   2.9400   2.9441
     2.9441   2.9558   2.9585   2.9585   2.9596   2.9628   3.0572   3.0572
     3.0622   3.0835   3.0839   3.0839   3.1148   3.1148   3.1204   3.1333
     3.1333   3.1361   3.1363   3.1459   3.1459   3.2285   3.2285   3.2344
     3.2873   3.2873   3.2885   3.2951   3.2951   3.2962   3.2962   3.2965
     3.2978   3.2978   3.2978   3.3018   3.3090   3.3090   3.3126   3.3129
     3.3166   3.3192   3.3192   3.3232   3.3232   3.3261   3.3287   5.2124
     5.9112   5.9460   6.0890   6.4109   6.4110   6.4181   6.4328   6.4329
     6.4351   6.4351   6.4356   6.4379   6.4610   6.4610   6.5089   6.5298
     6.5298   6.5429   6.5430   6.5745   6.7209   6.7229   6.7229   6.7426
     6.7427   6.7471   6.7522   6.7541   6.7541   6.7575   6.7575   6.7681
     6.7681   6.7860   6.7860   6.8540   6.8540   6.8579   6.9597   6.9630
     6.9630   6.9654   6.9685   6.9685   6.9729   6.9729   6.9843   6.9995
     6.9995   7.0616   7.1127   7.1127   7.1165   7.1185   7.1186   7.1187
     7.1346   7.1365   7.1365   7.1390   7.1548   7.1548   7.1841   7.1960
     7.1960   7.1981   7.2060   7.2061   7.2307   7.2307   7.2346   7.2389
     7.2389   7.2414   7.2479   7.2504   7.2505   7.2505   7.2517   7.2560
     7.2560   7.2578   7.2578   7.2595   7.2596   7.2601   7.2601   7.2668
     7.2797   7.2797   7.2846   7.2846   7.3109   7.3149   7.3149   7.3415
     7.3469   7.3469   7.3683   7.3781   7.3781   7.3920   7.3966   7.3966
     7.4141   7.4141   7.4320   7.4358   7.4363   7.4363   7.4398   7.4562
     7.4563   7.4582   7.4791   7.4792   7.4835   7.4880   7.4881   7.4939
     7.4940   7.5072   7.6011   7.6011   7.6101   7.6335   7.6400   7.6400
     7.6406   7.6424   7.6425   7.6462   7.6491   7.6491   7.6538   7.6548
     7.6549   7.6625   7.6675   7.6676   7.9696   7.9702   7.9703   9.1083
     9.1393   9.1393   9.3999   9.5344   9.5344   9.5399   9.5709   9.5709
     9.6083   9.7618   9.7677   9.7677   9.7732   9.7812   9.7812   9.8076
     9.8189   9.8209   9.8209   9.8552   9.8552   9.9536   9.9928   9.9928
     9.9992  10.0146  10.0147  10.0403  10.1508  10.1516  10.1516  10.1701
    10.1796  10.1796  10.2293  10.2329  10.2329  10.2344  10.2345  10.2397
    10.2397  10.2401  10.2439  10.2443  10.2686  10.2718  10.2718  10.3143
    10.3492  10.3492  10.3511  10.3582  10.3582  10.3781  10.5845  10.5845
    10.5889  10.5903  10.5903  10.6817  10.6888  10.6888  10.7258  10.7258
    10.7268  10.7307  10.7390  10.7396  10.7397  10.7621  10.7621  10.7938
    10.8526  10.8526  10.8790  10.8898  10.8898  10.8931  10.9212  10.9597
    10.9597  10.9655  10.9655  10.9700  10.9795

     occupation numbers 
     1.0000   1.0000   1.0000   1.0000   1.0000   1.0000   1.0000   1.0000
     1.0000   1.0000   1.0000   1.0000   1.0000   1.0000   1.0000   1.0000
     1.0000   1.0000   1.0000   1.0000   1.0000   1.0000   1.0000   1.0000
     1.0000   1.0000   1.0000   1.0000   1.0000   1.0000   1.0000   1.0000
     1.0000   1.0000   1.0000   1.0000   1.0000   1.0000   1.0000   1.0000
     1.0000   1.0000   1.0000   1.0000   1.0000   1.0000   1.0000   1.0000
     1.0000   1.0000   1.0000   1.0000   1.0000   1.0000   1.0000   1.0000
     1.0000   1.0000   1.0000   1.0000   1.0000   1.0000   1.0000   1.0000
     1.0000   1.0000   1.0000   1.0000   1.0000   1.0000   1.0000   1.0000
     1.0000   1.0000   1.0000   1.0000   1.0000   1.0000   1.0000   1.0000
     1.0000   1.0000   1.0000   1.0000   1.0000   1.0000   1.0000   1.0000
     1.0000   1.0000   1.0000   1.0000   1.0000   1.0000   1.0000   1.0000
     1.0000   1.0000   1.0000   1.0000   1.0000   1.0000   1.0000   1.0000
     1.0000   1.0000   1.0000   1.0000   1.0000   1.0000   1.0000   1.0000
     1.0000   1.0000   1.0000   1.0000   1.0000   1.0000   1.0000   1.0000
     1.0000   1.0000   1.0000   1.0000   1.0000   1.0000   1.0000   1.0000
     1.0000   1.0000   1.0000   1.0000   1.0000   1.0000   1.0000   1.0000
     1.0000   1.0000   1.0000   1.0000   1.0000   1.0000   1.0000   1.0000
     1.0000   1.0000   1.0000   1.0000   1.0000   1.0000   1.0000   1.0000
     1.0000   1.0000   1.0000   1.0000   1.0000   1.0000   1.0000   1.0000
     1.0000   1.0000   1.0000   1.0000   1.0000   1.0000   1.0000   1.0000
     1.0000   1.0000   1.0000   1.0000   1.0000   1.0000   1.0000   1.0000
     1.0000   1.0000   1.0000   1.0000   1.0000   1.0000   1.0000   1.0000
     1.0000   1.0000   1.0000   1.0000   1.0000   1.0000   1.0000   1.0000
     1.0000   1.0000   1.0000   1.0000   1.0000   1.0000   1.0000   1.0000
     1.0000   1.0000   1.0000   1.0000   1.0000   1.0000   1.0000   1.0000
     1.0000   1.0000   1.0000   1.0000   1.0000   1.0000   1.0000   1.0000
     1.0000   1.0000   1.0000   1.0000   1.0000   1.0000   1.0000   1.0000
     1.0000   1.0000   1.0000   1.0000   1.0000   1.0000   1.0000   1.0000
     1.0000   1.0000   1.0000   1.0000   1.0000   1.0000   1.0000   1.0000
     1.0000   1.0000   1.0000   1.0000   1.0000   1.0000   1.0000   1.0000
     1.0000   1.0000   1.0000   1.0000   1.0000   1.0000   1.0000   1.0000
     1.0000   1.0000   1.0000   1.0000   1.0000   1.0000   1.0000   1.0000
     1.0000   1.0000   1.0000   1.0000   1.0000   1.0000   1.0000   1.0000
     1.0000   1.0000   1.0000   1.0000   1.0000   1.0000   1.0000   1.0000
     1.0000   1.0000   1.0000   1.0000   1.0000   1.0000   1.0000   1.0000
     1.0000   1.0000   1.0000   1.0000   1.0000   1.0000   1.0000   1.0000
     1.0000   1.0000   1.0000   1.0000   1.0000   1.0000   1.0000   1.0000
     1.0000   1.0000   1.0000   1.0000   1.0000   1.0000   1.0000   1.0000
     1.0000   1.0000   1.0000   1.0000   1.0000   1.0000   1.0000   1.0000
     1.0000   1.0000   1.0000   1.0000   1.0000   1.0000   1.0000   1.0000
     1.0000   1.0000   1.0000   1.0000   1.0000   1.0000   1.0000   1.0000
     1.0000   1.0000   1.0000   1.0000   1.0000   1.0000   1.0000   1.0000
     1.0000   1.0000   1.0000   1.0000   1.0000   1.0000   1.0000   1.0000
     1.0000   1.0000   1.0000   1.0000   1.0000   1.0000   1.0000   1.0000
     1.0000   1.0000   1.0000   1.0000   1.0000   1.0000   1.0000   1.0000
     1.0000   1.0000   1.0000   1.0000   1.0000   1.0000   1.0000   1.0000
     1.0000   1.0000   1.0000   1.0000   1.0000   1.0000   1.0000   1.0000
     1.0000   1.0000   1.0000   1.0000   1.0000   1.0000   1.0000   1.0000
     1.0000   1.0000   1.0000   1.0000   1.0000   1.0000   1.0000   1.0000
     1.0000   1.0000   1.0000   1.0000   1.0000   1.0000   1.0000   1.0000
     1.0000   1.0000   1.0000   1.0000   1.0000   1.0000   1.0000   1.0000
     1.0000   1.0000   1.0000   1.0000   1.0000   1.0000   1.0000   1.0000
     1.0000   1.0000   1.0000   1.0000   1.0000   1.0000   1.0000   1.0000
     1.0000   1.0000   1.0000   1.0000   1.0000   1.0000   1.0000   1.0000
     1.0000   1.0000   1.0000   1.0000   1.0000   1.0000   1.0000   1.0000
     1.0000   1.0000   1.0000   1.0000   1.0000   1.0000   1.0000   1.0000
     1.0000   1.0000   1.0000   1.0000   1.0000   1.0000   1.0000   1.0000
     1.0000   1.0000   1.0000   1.0000   1.0000   1.0000   1.0000   1.0000
     1.0000   1.0000   1.0000   1.0000   1.0000   1.0000   1.0000   1.0000
     1.0000   1.0000   1.0000   1.0000   1.0000   1.0000   1.0000   1.0000
     1.0000   1.0000   1.0000   1.0000   1.0000   1.0000   1.0000   1.0000
     1.0000   1.0000   1.0000   1.0000   1.0000   1.0000   1.0000   1.0000
     1.0000   1.0000   1.0000   1.0000   1.0000   1.0000   1.0000   1.0000
     1.0000   1.0000   1.0000   1.0000   1.0000   1.0000   1.0000   1.0000
     1.0000   1.0000   1.0000   1.0000   1.0000   1.0000   1.0000   1.0000
     1.0000   1.0000   1.0000   1.0000   1.0000   1.0000   1.0000   1.0000
     1.0000   1.0000   1.0000   1.0000   1.0000   1.0000   1.0000   1.0000
     1.0000   1.0000   1.0000   1.0000   1.0000   1.0000   1.0000   1.0000
     1.0000   1.0000   1.0000   1.0000   1.0000   1.0000   1.0000   1.0000
     1.0000   1.0000   1.0000   1.0000   1.0000   1.0000   1.0000   1.0000
     1.0000   1.0000   1.0000   1.0000   1.0000   1.0000   1.0000   1.0000
     1.0000   1.0000   1.0000   1.0000   1.0000   1.0000   1.0000   1.0000
     1.0000   1.0000   1.0000   1.0000   1.0000   1.0000   1.0000   1.0000
     1.0000   1.0000   1.0000   1.0000   1.0000   1.0000   1.0000   1.0000
     1.0000   1.0000   1.0000   1.0000   1.0000   1.0000   1.0000   1.0000
     1.0000   1.0000   1.0000   1.0000   1.0000   1.0000   1.0000   1.0000
     1.0000   1.0000   1.0000   1.0000   1.0000   1.0000   1.0000   1.0000
     1.0000   1.0000   1.0000   1.0000   1.0000   1.0000   1.0000   1.0000
     1.0000   1.0000   1.0000   1.0000   1.0000   1.0000   1.0000   1.0000
     1.0000   1.0000   1.0000   1.0000   1.0000   1.0000   1.0000   1.0000
     1.0000   1.0000   1.0000   1.0000   1.0000   1.0000   1.0000   1.0000
     1.0000   1.0000   1.0000   1.0000   1.0000   1.0000   1.0000   1.0000
     1.0000   1.0000   1.0000   1.0000   1.0000   1.0000   1.0000   1.0000
     1.0000   1.0000   1.0000   1.0000   1.0000   1.0000   1.0000   1.0000
     1.0000   1.0000   1.0000   1.0000   1.0000   1.0000   1.0000   1.0000
     1.0000   1.0000   1.0000   1.0000   1.0000   1.0000   1.0000   1.0000
     1.0000   1.0000   1.0000   1.0000   1.0000   1.0000   1.0000   1.0000
     1.0000   1.0000   1.0000   1.0000   1.0000   1.0000   1.0000   1.0000
     1.0000   1.0000   1.0000   1.0000   1.0000   1.0000   1.0000   1.0000
     1.0000   1.0000   1.0000   1.0000   1.0000   1.0000   1.0000   1.0000
     1.0000   1.0000   1.0000   1.0000   1.0000   1.0000   1.0000   1.0000
     1.0000   1.0000   1.0000   1.0000   1.0000   1.0000   1.0000   1.0000
     1.0000   1.0000   1.0000   1.0000   1.0000   1.0000   1.0000   1.0000
     1.0000   1.0000   1.0000   1.0000   1.0000   1.0000   1.0000   1.0000
     1.0000   1.0000   1.0000   1.0000   1.0000   1.0000   1.0000   1.0000
     1.0000   1.0000   1.0000   1.0000   1.0000   1.0000   1.0000   1.0000
     1.0000   1.0000   1.0000   1.0000   1.0000   1.0000   1.0000   1.0000
     1.0000   1.0000   1.0000   1.0000   1.0000   1.0000   1.0000   1.0000
     1.0000   1.0000   1.0000   1.0000   1.0000   1.0000   1.0000   1.0000
     1.0000   1.0000   1.0000   1.0000   1.0000   1.0000   1.0000   1.0000
     1.0000   1.0000   1.0000   1.0000   1.0000   1.0000   1.0000   1.0000
     1.0000   1.0000   1.0000   1.0000   1.0000   1.0000   1.0000   1.0000
     1.0000   1.0000   1.0000   1.0000   1.0000   1.0000   1.0000   1.0000
     1.0000   1.0000   1.0000   1.0000   1.0000   1.0000   1.0000   1.0000
     1.0000   1.0000   1.0000   1.0000   1.0000   1.0000   1.0000   1.0000
     1.0000   1.0000   1.0000   1.0000   1.0000   1.0000   1.0000   1.0000
     1.0000   1.0000   1.0000   1.0000   1.0000   1.0000   1.0000   1.0000
     1.0000   1.0000   1.0000   1.0000   1.0000   1.0000   1.0000   1.0000
     1.0000   1.0000   1.0000   1.0000   1.0000   1.0000   1.0000   1.0000
     1.0000   1.0000   1.0000   1.0000   1.0000   1.0000   1.0000   1.0000
     1.0000   1.0000   1.0000   1.0000   1.0000   1.0000   1.0000   1.0000
     1.0000   1.0000   1.0000   1.0000   1.0000   1.0000   1.0000   1.0000
     1.0000   1.0000   1.0000   1.0000   1.0000   1.0000   1.0000   1.0000
     1.0000   1.0000   1.0000   1.0000   1.0000   1.0000   1.0000   1.0000
     1.0000   1.0000   1.0000   1.0000   1.0000   1.0000   1.0000   1.0000
     1.0000   1.0000   1.0000   1.0000   1.0000   1.0000   1.0000   1.0000
     1.0000   1.0000   1.0000   1.0000   1.0000   1.0000   1.0000   1.0000
     1.0000   1.0000   1.0000   1.0000   1.0000   1.0000   1.0000   1.0000
     1.0000   1.0000   1.0000   1.0000   1.0000   1.0000   1.0000   1.0000
     1.0000   1.0000   1.0000   1.0000   1.0000   1.0000   1.0000   1.0000
     1.0000   1.0000   1.0000   1.0000   1.0000   1.0000   1.0000   1.0000
     1.0000   1.0000   1.0000   1.0000   1.0000   1.0000   1.0000   1.0000
     1.0000   1.0000   1.0000   1.0000   1.0000   1.0000   1.0000   1.0000
     1.0000   1.0000   1.0000   1.0000   1.0000   1.0000   1.0000   1.0000
     1.0000   1.0000   1.0000   1.0000   1.0000   1.0000   1.0000   1.0000
     1.0000   1.0000   1.0000   1.0000   1.0000   1.0000   1.0000   1.0000
     1.0000   1.0000   1.0000   1.0000   1.0000   1.0000   1.0000   1.0000
     1.0000   1.0000   1.0000   1.0000   1.0000   1.0000   1.0000   1.0000
     1.0000   1.0000   1.0000   1.0000   1.0000   1.0000   1.0000   1.0000
     1.0000   1.0000   1.0000   1.0000   1.0000   1.0000   1.0000   1.0000
     1.0000   1.0000   1.0000   1.0000   1.0000   1.0000   1.0000   1.0000
     1.0000   1.0000   1.0000   1.0000   1.0000   1.0000   1.0000   1.0000
     1.0000   1.0000   1.0000   1.0000   1.0000   1.0000   1.0000   1.0000
     1.0000   1.0000   1.0000   1.0000   1.0000   1.0000   1.0000   1.0000
     1.0000   1.0000   1.0000   1.0000   1.0000   1.0000   1.0000   1.0000
     1.0000   1.0000   1.0000   1.0000   1.0000   1.0000   1.0000   1.0000
     1.0000   1.0000   1.0000   1.0000   1.0000   1.0000   1.0000   1.0000
     1.0000   1.0000   1.0000   1.0000   1.0000   1.0000   1.0000   1.0000
     1.0000   1.0000   1.0000   1.0000   1.0000   1.0000   1.0000   1.0000
     1.0000   1.0000   1.0000   1.0000   1.0000   1.0000   1.0000   1.0000
     1.0000   1.0000   1.0000   1.0000   1.0000   1.0000   1.0000   1.0000
     1.0000   1.0000   1.0000   1.0000   1.0000   1.0000   1.0000   0.5000
     0.0000   0.0000   0.0000   0.0000   0.0000   0.0000   0.0000   0.0000
     0.0000   0.0000   0.0000   0.0000   0.0000   0.0000   0.0000   0.0000
     0.0000   0.0000   0.0000   0.0000   0.0000   0.0000   0.0000   0.0000
     0.0000   0.0000   0.0000   0.0000   0.0000   0.0000   0.0000   0.0000
     0.0000   0.0000   0.0000   0.0000   0.0000   0.0000   0.0000   0.0000
     0.0000   0.0000   0.0000   0.0000   0.0000   0.0000   0.0000   0.0000
     0.0000   0.0000   0.0000   0.0000   0.0000   0.0000   0.0000   0.0000
     0.0000   0.0000   0.0000   0.0000   0.0000   0.0000   0.0000   0.0000
     0.0000   0.0000   0.0000   0.0000   0.0000   0.0000   0.0000   0.0000
     0.0000   0.0000   0.0000   0.0000   0.0000   0.0000   0.0000   0.0000
     0.0000   0.0000   0.0000   0.0000   0.0000   0.0000   0.0000   0.0000
     0.0000   0.0000   0.0000   0.0000   0.0000   0.0000   0.0000   0.0000
     0.0000   0.0000   0.0000   0.0000   0.0000   0.0000   0.0000   0.0000
     0.0000   0.0000   0.0000   0.0000   0.0000   0.0000   0.0000   0.0000
     0.0000   0.0000   0.0000   0.0000   0.0000   0.0000   0.0000   0.0000
     0.0000   0.0000   0.0000   0.0000   0.0000   0.0000   0.0000   0.0000
     0.0000   0.0000   0.0000   0.0000   0.0000   0.0000   0.0000   0.0000
     0.0000   0.0000   0.0000   0.0000   0.0000   0.0000   0.0000   0.0000
     0.0000   0.0000   0.0000   0.0000   0.0000   0.0000   0.0000   0.0000
     0.0000   0.0000   0.0000   0.0000   0.0000   0.0000   0.0000   0.0000
     0.0000   0.0000   0.0000   0.0000   0.0000   0.0000   0.0000   0.0000
     0.0000   0.0000   0.0000   0.0000   0.0000   0.0000   0.0000   0.0000
     0.0000   0.0000   0.0000   0.0000   0.0000   0.0000   0.0000   0.0000
     0.0000   0.0000   0.0000   0.0000   0.0000   0.0000   0.0000   0.0000
     0.0000   0.0000   0.0000   0.0000   0.0000   0.0000   0.0000   0.0000
     0.0000   0.0000   0.0000   0.0000   0.0000   0.0000   0.0000   0.0000
     0.0000   0.0000   0.0000   0.0000   0.0000   0.0000   0.0000   0.0000
     0.0000   0.0000   0.0000   0.0000   0.0000   0.0000   0.0000   0.0000
     0.0000   0.0000   0.0000   0.0000   0.0000

     the Fermi energy is     5.2124 ev

!    total energy              =  -96570.63308131 Ry
     total all-electron energy =  -3359210.193323 Ry
     estimated scf accuracy    <          8.7E-09 Ry
     smearing contrib. (-TS)   =      -0.00564190 Ry
     internal energy E=F+TS    =  -96570.62743941 Ry

     The total energy is F=E-TS. E is the sum of the following terms:
     one-electron contribution =  -17902.96872934 Ry
     hartree contribution      =    9991.56787837 Ry
     xc contribution           =   -6750.78224312 Ry
     ewald contribution        =  -14624.07256849 Ry
     one-center paw contrib.   =  -67284.37177683 Ry
      -> PAW hartree energy AE =      95.91802383 Ry
      -> PAW hartree energy PS =     -96.15488039 Ry
      -> PAW xc energy AE      =    -798.43111443 Ry
      -> PAW xc energy PS      =      33.31103608 Ry
      -> total E_H with PAW    =    9991.33102181 Ry
      -> total E_XC with PAW   =   -7515.90232147 Ry

     convergence has been achieved in   1 iterations


     -----------------------------------------------
     Non-local corr. energy    =      68.47924357 Ry
     -----------------------------------------------


     Forces acting on atoms (cartesian axes, Ry/au):

     atom    1 type  1   force =    -0.00000006   -0.00015651    0.00034962
     atom    2 type  1   force =     0.00000227    0.00045903   -0.00029579
     atom    3 type  1   force =    -0.00000101    0.00011186    0.00005802
     atom    4 type  1   force =     0.00009869   -0.00010162    0.00018765
     atom    5 type  1   force =     0.00021554   -0.00076604   -0.00041615
     atom    6 type  1   force =     0.00005580    0.00003742   -0.00010251
     atom    7 type  1   force =    -0.00003642    0.00013463    0.00018806
     atom    8 type  1   force =    -0.00055253    0.00056369   -0.00041583
     atom    9 type  1   force =     0.00005955    0.00003000   -0.00009979
     atom   10 type  1   force =    -0.00013485    0.00007815    0.00034827
     atom   11 type  1   force =     0.00040152   -0.00023041   -0.00029742
     atom   12 type  1   force =     0.00009316   -0.00005197    0.00005877
     atom   13 type  1   force =    -0.00019322   -0.00011126    0.00055813
     atom   14 type  1   force =    -0.00029367   -0.00016763   -0.00021400
     atom   15 type  1   force =    -0.00001159   -0.00000304   -0.00011347
     atom   16 type  1   force =    -0.00009825   -0.00010126    0.00019301
     atom   17 type  1   force =    -0.00021305   -0.00076515   -0.00040941
     atom   18 type  1   force =    -0.00005782    0.00003745   -0.00009651
     atom   19 type  1   force =     0.00000102   -0.00000062   -0.00008272
     atom   20 type  1   force =     0.00000052   -0.00000010   -0.00018233
     atom   21 type  1   force =     0.00000028    0.00000048   -0.00031005
     atom   22 type  1   force =    -0.00013559   -0.00003412    0.00019253
     atom   23 type  1   force =    -0.00076582    0.00019792   -0.00041000
     atom   24 type  1   force =     0.00000264   -0.00006556   -0.00009457
     atom   25 type  1   force =     0.00000105   -0.00018018    0.00038334
     atom   26 type  1   force =    -0.00000056    0.00050096   -0.00024341
     atom   27 type  1   force =    -0.00000147   -0.00000638   -0.00010445
     atom   28 type  1   force =    -0.00015511    0.00008900    0.00038205
     atom   29 type  1   force =     0.00043144   -0.00025061   -0.00024294
     atom   30 type  1   force =    -0.00001000    0.00000541   -0.00010431
     atom   31 type  1   force =     0.00003735    0.00013531    0.00019288
     atom   32 type  1   force =     0.00055467    0.00056444   -0.00040953
     atom   33 type  1   force =    -0.00006183    0.00003093   -0.00009713
     atom   34 type  1   force =     0.00013633   -0.00003361    0.00019219
     atom   35 type  1   force =     0.00076832    0.00019784   -0.00041027
     atom   36 type  1   force =    -0.00000503   -0.00006594   -0.00009773
     atom   37 type  1   force =     0.00019540   -0.00011191    0.00055548
     atom   38 type  1   force =     0.00029221   -0.00016821   -0.00022103
     atom   39 type  1   force =     0.00001001   -0.00000328   -0.00012095
     atom   40 type  1   force =     0.00015737    0.00008884    0.00037799
     atom   41 type  1   force =    -0.00043265   -0.00025100   -0.00024822
     atom   42 type  1   force =     0.00000865    0.00000592   -0.00010940
     atom   43 type  1   force =     0.00000145    0.00022169    0.00055196
     atom   44 type  1   force =    -0.00000020    0.00033688   -0.00021847
     atom   45 type  1   force =    -0.00000021    0.00001235   -0.00011842
     atom   46 type  1   force =     0.00013665    0.00007947    0.00034960
     atom   47 type  1   force =    -0.00039738   -0.00023047   -0.00029439
     atom   48 type  1   force =    -0.00009491   -0.00005182    0.00005740
     atom   49 type  2   force =     0.00000521   -0.00000107    0.00024168
     atom   50 type  2   force =     0.00000583   -0.00000234    0.00032698
     atom   51 type  2   force =    -0.00010661   -0.00039755   -0.00001398
     atom   52 type  2   force =    -0.00002339    0.00001234    0.00024921
     atom   53 type  2   force =     0.00002279    0.00001557    0.00017795
     atom   54 type  2   force =     0.00033570    0.00019483    0.00049271
     atom   55 type  2   force =    -0.00002715   -0.00001283    0.00024841
     atom   56 type  2   force =    -0.00002756   -0.00001144    0.00014054
     atom   57 type  2   force =    -0.00039348    0.00009819   -0.00003297
     atom   58 type  2   force =     0.00000019   -0.00002671    0.00024013
     atom   59 type  2   force =     0.00002439    0.00001007    0.00017090
     atom   60 type  2   force =    -0.00028429    0.00029054   -0.00003443
     atom   61 type  2   force =     0.00002321    0.00001404    0.00023867
     atom   62 type  2   force =     0.00000204   -0.00002687    0.00016959
     atom   63 type  2   force =     0.00011256   -0.00040019   -0.00002489
     atom   64 type  2   force =     0.00002696    0.00000855    0.00024469
     atom   65 type  2   force =    -0.00001736    0.00001316    0.00017147
     atom   66 type  2   force =    -0.00000103   -0.00011177    0.00036591
     atom   67 type  2   force =    -0.00000130   -0.00008658    0.00005646
     atom   68 type  2   force =     0.00000016    0.00001618    0.00020498
     atom   69 type  2   force =    -0.00010023    0.00005589    0.00035534
     atom   70 type  2   force =    -0.00007750    0.00004310    0.00004835
     atom   71 type  2   force =     0.00001036   -0.00000693    0.00020088
     atom   72 type  2   force =    -0.00000309   -0.00038829    0.00049052
     atom   73 type  2   force =    -0.00000323    0.00003101    0.00024721
     atom   74 type  2   force =    -0.00000359    0.00003017    0.00013667
     atom   75 type  2   force =    -0.00002776   -0.00001582    0.00054606
     atom   76 type  2   force =     0.00000819    0.00000400    0.00025890
     atom   77 type  2   force =     0.00008875    0.00005164    0.00012231
     atom   78 type  2   force =    -0.00033398    0.00018956    0.00049361
     atom   79 type  2   force =     0.00002829   -0.00001782    0.00025178
     atom   80 type  2   force =     0.00002825   -0.00001692    0.00013664
     atom   81 type  2   force =     0.00009479    0.00005365    0.00036606
     atom   82 type  2   force =     0.00007278    0.00004239    0.00005593
     atom   83 type  2   force =    -0.00001427   -0.00000909    0.00020353
     atom   84 type  2   force =     0.00028894    0.00029117   -0.00001017
     atom   85 type  2   force =    -0.00002152    0.00001541    0.00025021
     atom   86 type  2   force =     0.00000039   -0.00002703    0.00017865
     atom   87 type  2   force =     0.00002480   -0.00001245    0.00055741
     atom   88 type  2   force =    -0.00001075    0.00000696    0.00026297
     atom   89 type  2   force =    -0.00008973    0.00005268    0.00013000
     atom   90 type  2   force =     0.00000177    0.00003037    0.00055134
     atom   91 type  2   force =     0.00000139   -0.00001059    0.00026166
     atom   92 type  2   force =     0.00000018   -0.00010585    0.00012666
     atom   93 type  2   force =     0.00040164    0.00009589   -0.00001928
     atom   94 type  2   force =     0.00000656   -0.00002865    0.00024746
     atom   95 type  2   force =    -0.00001917    0.00000761    0.00017381
     atom   96 type  2   force =    -0.00010620    0.00006348   -0.00022094
     atom   97 type  2   force =    -0.00007312    0.00004087   -0.00028805
     atom   98 type  2   force =    -0.00001208    0.00000919   -0.00016174
     atom   99 type  2   force =    -0.00002134    0.00012268   -0.00024033
     atom  100 type  2   force =     0.00018866    0.00013516   -0.00003330
     atom  101 type  2   force =     0.00002602   -0.00001689   -0.00013259
     atom  102 type  2   force =     0.00009165   -0.00007090   -0.00023498
     atom  103 type  2   force =     0.00021156    0.00009648   -0.00002472
     atom  104 type  2   force =    -0.00000069    0.00003435   -0.00012951
     atom  105 type  2   force =     0.00000072   -0.00012199   -0.00021666
     atom  106 type  2   force =     0.00000014   -0.00008942   -0.00028026
     atom  107 type  2   force =     0.00000264   -0.00001428   -0.00015847
     atom  108 type  2   force =     0.00010749    0.00006229   -0.00021253
     atom  109 type  2   force =     0.00007945    0.00004356   -0.00028003
     atom  110 type  2   force =     0.00001548    0.00000698   -0.00015896
     atom  111 type  2   force =    -0.00000065    0.00011726   -0.00028526
     atom  112 type  2   force =     0.00000119   -0.00050065    0.00021478
     atom  113 type  2   force =     0.00000009    0.00004251   -0.00015055
     atom  114 type  2   force =    -0.00001884   -0.00000493   -0.00022607
     atom  115 type  2   force =    -0.00016698   -0.00009684   -0.00056234
     atom  116 type  2   force =     0.00013572    0.00008112   -0.00026582
     atom  117 type  2   force =     0.00009757   -0.00005351   -0.00027871
     atom  118 type  2   force =    -0.00043333    0.00025371    0.00022751
     atom  119 type  2   force =     0.00003851   -0.00002106   -0.00014216
     atom  120 type  2   force =     0.00010806   -0.00004129   -0.00023769
     atom  121 type  2   force =     0.00002058   -0.00023070   -0.00002690
     atom  122 type  2   force =    -0.00003040   -0.00001535   -0.00013481
     atom  123 type  2   force =     0.00001616    0.00011921   -0.00023928
     atom  124 type  2   force =    -0.00018739    0.00013048   -0.00003388
     atom  125 type  2   force =    -0.00002656   -0.00002142   -0.00013966
     atom  126 type  2   force =     0.00001321   -0.00000762   -0.00023120
     atom  127 type  2   force =     0.00016463   -0.00009812   -0.00057234
     atom  128 type  2   force =    -0.00013898    0.00007902   -0.00027444
     atom  129 type  2   force =    -0.00000534    0.00002167   -0.00023026
     atom  130 type  2   force =    -0.00000250    0.00019115   -0.00056675
     atom  131 type  2   force =    -0.00000356   -0.00015752   -0.00027085
     atom  132 type  2   force =    -0.00011736   -0.00004049   -0.00024260
     atom  133 type  2   force =    -0.00002299   -0.00022961   -0.00003515
     atom  134 type  2   force =     0.00002739   -0.00001342   -0.00013613
     atom  135 type  2   force =    -0.00000397    0.00000120   -0.00023214
     atom  136 type  2   force =    -0.00000019   -0.00000023   -0.00032356
     atom  137 type  2   force =     0.00000090   -0.00000082   -0.00004737
     atom  138 type  2   force =    -0.00009544   -0.00007389   -0.00023932
     atom  139 type  2   force =    -0.00020734    0.00009429   -0.00003348
     atom  140 type  2   force =     0.00000449    0.00003236   -0.00013744
     atom  141 type  2   force =    -0.00010252   -0.00005534   -0.00028859
     atom  142 type  2   force =     0.00042545    0.00024863    0.00021396
     atom  143 type  2   force =    -0.00003783   -0.00002057   -0.00015269
     The non-local contrib.  to forces
     atom    1 type  1   force =     0.00000908   -0.00065044    0.00154401
     atom    2 type  1   force =     0.00000017    0.06112482    0.06991705
     atom    3 type  1   force =     0.00002446   -0.00027797    0.00019366
     atom    4 type  1   force =     0.00052606    0.00015833    0.00030865
     atom    5 type  1   force =     0.00254793   -0.00226052    0.00055456
     atom    6 type  1   force =     0.00006378   -0.00010052   -0.00071395
     atom    7 type  1   force =     0.00041639    0.00034094    0.00030943
     atom    8 type  1   force =    -0.00068342    0.00336670    0.00057824
     atom    9 type  1   force =    -0.00001450    0.00003325   -0.00072253
     atom   10 type  1   force =    -0.00051351    0.00027855    0.00155236
     atom   11 type  1   force =     0.05288752   -0.03055646    0.06990328
     atom   12 type  1   force =    -0.00016784    0.00006436    0.00019873
     atom   13 type  1   force =     0.00666106    0.00380655   -0.00568802
     atom   14 type  1   force =     0.00612578    0.00347171   -0.01621499
     atom   15 type  1   force =     0.00065036    0.00030882    0.00048354
     atom   16 type  1   force =    -0.00051837    0.00015141    0.00028702
     atom   17 type  1   force =    -0.00254625   -0.00229494    0.00052140
     atom   18 type  1   force =    -0.00002817   -0.00010775   -0.00073442
     atom   19 type  1   force =    -0.00000101   -0.00002742    0.00131265
     atom   20 type  1   force =    -0.00000838   -0.00002979    0.00178446
     atom   21 type  1   force =     0.00000169   -0.00003813    0.00207368
     atom   22 type  1   force =    -0.00010411   -0.00057757    0.00029214
     atom   23 type  1   force =    -0.00325569   -0.00114046    0.00054352
     atom   24 type  1   force =    -0.00006069   -0.00005743   -0.00073825
     atom   25 type  1   force =    -0.00000268   -0.00159390    0.00138455
     atom   26 type  1   force =     0.00000486   -0.00658526    0.00455548
     atom   27 type  1   force =     0.00001551   -0.00037167   -0.00027792
     atom   28 type  1   force =    -0.00134369    0.00075193    0.00139623
     atom   29 type  1   force =    -0.00564996    0.00323694    0.00456801
     atom   30 type  1   force =    -0.00025625    0.00011204   -0.00027192
     atom   31 type  1   force =    -0.00041279    0.00033155    0.00028415
     atom   32 type  1   force =     0.00070384    0.00332259    0.00051845
     atom   33 type  1   force =     0.00004666    0.00002645   -0.00073350
     atom   34 type  1   force =     0.00010659   -0.00057896    0.00028918
     atom   35 type  1   force =     0.00321341   -0.00111707    0.00051213
     atom   36 type  1   force =     0.00009292   -0.00006025   -0.00072954
     atom   37 type  1   force =    -0.00667301    0.00382393   -0.00569186
     atom   38 type  1   force =    -0.00608523    0.00349378   -0.01619524
     atom   39 type  1   force =    -0.00061162    0.00032170    0.00050646
     atom   40 type  1   force =     0.00134622    0.00076320    0.00140791
     atom   41 type  1   force =     0.00568202    0.00325451    0.00456995
     atom   42 type  1   force =     0.00029593    0.00012301   -0.00026154
     atom   43 type  1   force =     0.00000497   -0.00768640   -0.00564818
     atom   44 type  1   force =     0.00003627   -0.00708141   -0.01619503
     atom   45 type  1   force =     0.00002522   -0.00076721    0.00050266
     atom   46 type  1   force =     0.00053310    0.00028102    0.00154591
     atom   47 type  1   force =    -0.05294275   -0.03059371    0.06991871
     atom   48 type  1   force =     0.00022177    0.00006846    0.00019847
     atom   49 type  2   force =    -0.00000293    0.00001689    0.24708112
     atom   50 type  2   force =     0.00000600    0.00000925    0.24728204
     atom   51 type  2   force =    -0.01206541   -0.00525761    0.23816692
     atom   52 type  2   force =    -0.00017056   -0.00018744    0.24650271
     atom   53 type  2   force =    -0.00058141    0.00061967    0.24632406
     atom   54 type  2   force =    -0.00154683   -0.00089194    0.24541125
     atom   55 type  2   force =     0.00002402    0.00004467    0.24760972
     atom   56 type  2   force =    -0.00020242   -0.00009123    0.24673119
     atom   57 type  2   force =    -0.01059026   -0.00783221    0.23814041
     atom   58 type  2   force =    -0.00026362   -0.00002041    0.24649100
     atom   59 type  2   force =     0.00023526   -0.00079644    0.24631397
     atom   60 type  2   force =     0.00149574    0.01310385    0.23813792
     atom   61 type  2   force =    -0.00009848    0.00026251    0.24648933
     atom   62 type  2   force =     0.00081380    0.00021539    0.24631446
     atom   63 type  2   force =     0.01206879   -0.00525389    0.23815086
     atom   64 type  2   force =     0.00016334   -0.00018783    0.24649888
     atom   65 type  2   force =     0.00059064    0.00062099    0.24631624
     atom   66 type  2   force =    -0.00000030   -0.00168427    0.24617631
     atom   67 type  2   force =    -0.00000530   -0.00107598    0.24677667
     atom   68 type  2   force =     0.00000215   -0.00053325    0.24682046
     atom   69 type  2   force =    -0.00148137    0.00087151    0.24616777
     atom   70 type  2   force =    -0.00095495    0.00056958    0.24677118
     atom   71 type  2   force =    -0.00048155    0.00029190    0.24681344
     atom   72 type  2   force =     0.00000546    0.00179902    0.24542026
     atom   73 type  2   force =    -0.00001556   -0.00001761    0.24762138
     atom   74 type  2   force =    -0.00001208    0.00023992    0.24673486
     atom   75 type  2   force =    -0.00708653   -0.00407890    0.24759119
     atom   76 type  2   force =    -0.00030561   -0.00015130    0.24753465
     atom   77 type  2   force =    -0.00116284   -0.00065604    0.24790317
     atom   78 type  2   force =     0.00153817   -0.00087763    0.24542291
     atom   79 type  2   force =    -0.00003842    0.00003689    0.24762814
     atom   80 type  2   force =     0.00019605   -0.00010017    0.24673647
     atom   81 type  2   force =     0.00146832    0.00086261    0.24618478
     atom   82 type  2   force =     0.00094457    0.00056965    0.24678182
     atom   83 type  2   force =     0.00047346    0.00028533    0.24682465
     atom   84 type  2   force =    -0.00147533    0.01308267    0.23818127
     atom   85 type  2   force =     0.00008414    0.00025809    0.24651110
     atom   86 type  2   force =    -0.00081680    0.00020850    0.24633190
     atom   87 type  2   force =     0.00706270   -0.00406889    0.24760310
     atom   88 type  2   force =     0.00027928   -0.00015274    0.24753820
     atom   89 type  2   force =     0.00115106   -0.00065636    0.24791141
     atom   90 type  2   force =    -0.00000185    0.00818845    0.24759715
     atom   91 type  2   force =    -0.00001231    0.00035863    0.24753720
     atom   92 type  2   force =    -0.00000509    0.00134126    0.24790336
     atom   93 type  2   force =     0.01058828   -0.00780906    0.23816781
     atom   94 type  2   force =     0.00025540   -0.00002637    0.24650952
     atom   95 type  2   force =    -0.00023346   -0.00080541    0.24632444
     atom   96 type  2   force =     0.00606430   -0.00348897   -0.23855910
     atom   97 type  2   force =     0.01656990   -0.00955331   -0.24913993
[...]
              0.135987785868419E+02
             -0.758775361008636E+02
              0.614813870569764E+03
             -0.353177871447203E+02
              0.132296429959923E+03
              0.443354592303905E+03
              0.972463985128111E+02
             -0.349867653669587E+03
             -0.509953125854968E+03
              0.531814708276079E+01
             -0.573566272168517E+03
              0.194639156913058E+03
             -0.116081432206271E+03
             -0.269465425138562E+03
              0.242224349389072E+03
              0.928660973573833E+02
              0.218482057138006E+03
              0.193539174506834E+02
              0.348042779911005E+03
             -0.568695913232926E+03
             -0.521477374912529E+02
             -0.496039853043440E+03
              0.894187407238855E+02
              0.268642760806792E+03
             -0.496510518726632E+02
             -0.186847992010955E+03
              0.399659349546351E+03
             -0.185213819779322E+03
              0.130215157498427E+03
             -0.116161988985182E+03
              0.285302719254022E+03
              0.344567650823146E+03
             -0.148631547408010E+03
              0.296350186983252E+03
              0.113752249477944E+03
             -0.305627409938386E+03
             -0.182850149799359E+03
              0.492905908374559E+03
              0.233664537006181E+03
             -0.225568282070446E+02
             -0.663767593392868E+02
              0.724498939581598E+03
              0.434497446424021E+03
              0.159238707190471E+03
             -0.464356761528215E+03
              0.727181630352979E+03
             -0.328848343224983E+03
             -0.407753865033405E+03
             -0.631605573833081E+03
              0.304402166942065E+03
             -0.577836771575839E+03
              0.250546877592581E+03
              0.411403134439877E+03
              0.304850084350753E+03
              0.646850474309851E+02
              0.181847541073765E+03
             -0.455430637225248E+03
             -0.161905188298487E+03
             -0.146962825433430E+03
              0.220057589405580E+03
              0.491186753105056E+03
              0.484211301015242E+03
              0.370656150407930E+03
             -0.915623021575120E+02
              0.131629872057205E+03
              0.184490875558226E+02
             -0.145546556058359E+03
              0.217121601299639E+03
              0.207991164206933E+03
             -0.296602439902905E+03
             -0.300315951533268E+03
             -0.137702035611811E+03
              0.319009390586592E+03
              0.162280970742964E+03
             -0.217190717337900E+03
             -0.378418135645992E+03
             -0.519918053086485E+03
              0.108424749810321E+02
              0.148019085774946E+03
             -0.201158458343118E+03
              0.738550080836942E+03
              0.699788786103363E+01
             -0.857978669587570E+03
              0.215161731844842E+03
              0.354092683658241E+03
             -0.128600869759975E+03
              0.135624119715943E+02
             -0.194027830743374E+03
              0.329469212301629E+03
              0.162556854442651E+03
             -0.433539687411760E+03
              0.514817897391961E+03
              0.351180030418759E+02
             -0.205616778210747E+03
             -0.253441796727672E+03
              0.103208396882580E+04
              0.461356030206281E+03
             -0.115748501420727E+03
              0.254468750827592E+03
             -0.502951398386415E+03
             -0.109130099125749E+03
             -0.447022712481814E+03
              0.172650494930115E+03
              0.320846553881033E+03
              0.352937026982257E+03
             -0.154691622442537E+03
              0.268030379552947E+02
              0.439722096025589E+03
              0.140630681803008E+03
              0.262184028945643E+03
              0.106662694680510E+03
             -0.590239653959190E+02
              0.109371199186080E+01
             -0.817163011663342E+02
              0.911046927598040E+02
              0.306270691314962E+02
             -0.399414590585243E+03
              0.612004161358228E+03
              0.235546041423167E+03
             -0.433643174437744E+03
             -0.318697191065451E+03
             -0.449855206720239E+03
             -0.194981245172590E+03
             -0.141408890460137E+03
             -0.355818204554756E+03
             -0.351270269775556E+03
              0.422902833207910E+03
              0.336599570608084E+03
             -0.465241910347440E+02
              0.505266346042114E+03
              0.728020309666590E+02
             -0.812065864962631E+03
              0.436045481846419E+03
              0.744087617609835E+02
              0.342421870025473E+03
              0.462884273593061E+02
              0.386471892836767E+02
              0.697875220025558E+02
              0.185028918842052E+03
             -0.338814656596279E+03
             -0.159853089308911E+03
             -0.320466241677444E+03
             -0.265121149474338E+03
              0.110534061603642E+03
             -0.294230466387251E+03
              0.141725222856699E+03
              0.194620216936493E+03
             -0.180349927668748E+03
             -0.115187891756615E+03
              0.761818351414126E+01
              0.504846045894296E+03
              0.763255091061203E+02
              0.484631065361881E+03
              0.173771062698887E+03
             -0.640620224631501E+03
             -0.212456169557616E+03
              0.218453172926182E+03
              0.504094761692246E+03
              0.831934078937555E+02
              0.207219065910328E+03
              0.463883119220987E+03
             -0.268600887481302E+03
             -0.412385145886944E+03
              0.571775388429767E+03
              0.333098949274499E+02
             -0.604300127243651E+03
              0.220825213222932E+03
              0.382511149137798E+03
             -0.978565696793030E+02
             -0.398376776874141E+03
              0.829987377535340E+02
              0.172258644453868E+02
             -0.193559429736270E+03
              0.740557431626785E+02
             -0.644615501867144E+02
              0.899105783884655E+03
              0.261740332397177E+03
             -0.380810466548969E+03
              0.112441640310797E+03
              0.547433341823520E+03
             -0.370095877215586E+03
             -0.964215111125548E+02
             -0.350025547711090E+03
              0.280507842343799E+03
              0.886736110017034E+02
              0.185464853629881E+03
              0.335786280078942E+02
              0.635889524334086E+03
             -0.361763431866211E+03
             -0.285621570660556E+03
             -0.275736760992528E+03
              0.242281273322103E+03
              0.631897214080133E+03
             -0.105629338417376E+03
              0.258553419588879E+03
             -0.367216612321266E+03
              0.705185109652377E+02
             -0.117518208116467E+03
              0.257884767291894E+02
             -0.142424021897452E+03
             -0.116074855176995E+03
             -0.114072696359065E+03
              0.938988719149656E+02
              0.183526290929472E+03
             -0.400499035766424E+03
              0.296557082534532E+03
             -0.477322319429520E+03
              0.360079871125031E+03
             -0.380600114633965E+03
              0.617042351036971E+03
              0.338995830540415E+03
              0.390203154054535E+03
              0.969025565057141E+02
              0.113886996912638E+03
             -0.852421220025332E+03
              0.138208081176052E+03
              0.312538201883772E+02
              0.812610361113002E+02
             -0.139148614996691E+03
              0.659006269115106E+03
             -0.153015580958648E+03
             -0.272388649848917E+03
             -0.637664131438842E+03
             -0.221286251190816E+03
             -0.305964983789567E+03
             -0.266020410369398E+03
             -0.600004905302608E+02
             -0.145631873952388E+03
             -0.185242043697244E+03
             -0.283805479731089E+03
              0.217174598549759E+03
              0.684773060075929E+03
              0.578505514106463E+03
             -0.102658488498569E+03
             -0.695413547565174E+03
             -0.296520882107453E+03
              0.142161291547357E+03
              0.142320431510782E+03
              0.227345986165044E+03
              0.159788514595898E+03
              0.282159384206584E+02
              0.679426587651651E+03
             -0.165141430915097E+03
              0.333818783333879E+03
              0.171781944944605E+03
             -0.231443702129412E+03
             -0.110936231074225E+03
              0.307818131890789E+03
             -0.164493099143496E+03
             -0.101020246032599E+03
             -0.748695846507198E+02
              0.396387886517851E+03
             -0.521426603017739E+03
             -0.419435495645530E+02
             -0.402398942936281E+03
             -0.854968031321946E+03
             -0.231274869066692E+01
             -0.126187113489681E+03
              0.332291087866975E+03
              0.369390020965444E+03
              0.505222627761956E+03
             -0.328551405150801E+03
              0.510880009932071E+03
              0.127709886586631E+03
             -0.189691583622537E+03
              0.681956949351271E+02
             -0.161269214320706E+03
             -0.953579761048968E+02
              0.295084489883444E+03
             -0.244386074309601E+03
              0.655493355873225E+03
             -0.174757923811721E+03
             -0.362351741209250E+03
              0.685500882148211E+03
             -0.371061063496267E+03
             -0.298659962999000E+02
              0.360382878859423E+02
              0.197765315865022E+03
             -0.289564618064444E+03
             -0.220643226683372E+03
              0.352063881113521E+03
             -0.529718095886615E+03
              0.436805463665114E+03
              0.645668042364466E+02
              0.313011217045228E+03
              0.453488352214318E+03
              0.116207476066644E+03
             -0.630265747087798E+03
             -0.272727738559591E+03
             -0.455005209414909E+03
             -0.270639031864415E+03
             -0.721355835038894E+02
              0.976636287328315E+02
             -0.212189304154544E+03
             -0.365294190674831E+01
             -0.632770818750993E+03
              0.353405801637587E+02
             -0.408099911727016E+03
              0.395553385528072E+03
             -0.231793693590388E+03
             -0.559116906830947E+02
              0.298608314536837E+03
              0.590740689657809E+02
              0.277492528056332E+03
             -0.529061811946514E+03
              0.878807060321342E+02
              0.361726569689738E+02
              0.227751850640661E+03
              0.365072347029072E+03
             -0.674492884440265E+02
             -0.415562902948336E+03
             -0.240387044703398E+03
             -0.169543263530295E+03
             -0.499377562772006E+02
              0.387545188453853E+03
              0.251606534973128E+03
             -0.254864472735439E+03
             -0.239129183396832E+03
              0.175593513748451E+03
              0.191244040067185E+03
             -0.516669829323447E+03
              0.120447449760001E+03
              0.370464336492641E+03
             -0.165159030693227E+02
              0.466783351934007E+03
              0.215532128600535E+03
              0.367218466251458E+03
              0.558299247654160E+03
              0.841018280745770E+02
             -0.760740911132090E+03
              0.104941379827162E+03
              0.822486093964815E+03
              0.597864450275268E+03
             -0.412219336734759E+03
              0.372115461487690E+02
              0.535063045150084E+03
              0.463664088986847E+03
              0.203829079058332E+03
             -0.123335113366483E+03
              0.204718954060763E+03
              0.423880313572622E+03
             -0.195951813424654E+03
             -0.126146510187565E+03
              0.287082845352732E+03
             -0.172578276145359E+02
              0.257767914788333E+03
             -0.796790060270590E+02
              0.537503968007757E+03
             -0.205004667084017E+03
              0.123349637612367E+03
             -0.227753975658297E+03
              0.266018990266761E+03
             -0.360767142486552E+02
              0.396376666472153E+03
              0.282765611178993E+02
              0.177477887437995E+03
             -0.252083296971387E+03
             -0.176273702933725E+03
             -0.899149760012704E+02
             -0.818882091111532E+02
              0.431598484538162E+03
              0.212424121761630E+03
              0.523720654533062E+03
              0.483299206969133E+03
              0.135572763809438E+03
              0.243018585820375E+02
              0.515106521326941E+03
              0.289510450422308E+03
              0.540402398905826E+00
              0.501738199064815E+03
             -0.411771218599742E+03
              0.144367125424445E+03
             -0.268325187460277E+03
             -0.727459318304982E+02
              0.693689922690347E+03
             -0.971361263990393E+02
             -0.289604514491766E+02
             -0.754784845239960E+02
              0.569895073065704E+03
             -0.122360874220165E+03
             -0.104689783703493E+02
              0.114972733493537E+04
             -0.340286784603941E+03
             -0.424782673445390E+03
             -0.425158068510216E+03
             -0.271559121423952E+03
              0.247653332077411E+03
             -0.111145416604615E+03
              0.630063102128652E+02
             -0.287932548675853E+02
              0.145753749668971E+03
              0.233984299331762E+03
              0.272680030689643E+03
              0.392538121166182E+03
              0.251428684461420E+03
              0.256332005256667E+03
             -0.474412968745417E+03
             -0.489925417636423E+03
             -0.110456666643613E+03
             -0.437927295954103E+03
              0.695294211606415E+03
              0.585668268931201E+03
              0.276258466742536E+03
              0.761483395518688E+03
             -0.380490069922552E+03
             -0.163924900670327E+03
             -0.236291508141540E+03
              0.658814569913176E+03
 
 BEEF-vdW xc energy contributions
            1 :    -5954.956846961146     
            2 :     5456.458164145300     
            3 :    -4606.639715902546     
            4 :     3632.200251784445     
            5 :    -2746.428193782342     
            6 :     2080.467517075330     
            7 :    -1662.001413736145     
            8 :     1435.080192928925     
            9 :    -1302.490048366564     
           10 :     1172.452705341328     
           11 :    -993.6195486074776     
           12 :     766.2245169522030     
           13 :    -527.6157775513348     
           14 :     323.5623901875788     
           15 :    -182.6410992514557     
           16 :     105.5054413897906     
           17 :    -70.05597748524451     
           18 :     45.91681822355895     
           19 :    -9.844697889549934     
           20 :    -44.62256193561007     
           21 :     106.9283992576138     
           22 :    -158.0996151786949     
           23 :     183.1084467547480     
           24 :    -179.8764553711808     
           25 :     160.1320724387970     
           26 :    -142.4624996302082     
           27 :     142.1444196803750     
           28 :    -163.3582977649776     
           29 :     197.5123819755190     
           30 :    -228.1768705355025     
           31 :    -512.8408515178944     
           32 :    -368.9793081486732     

     Writing all to output data dir ./PbI2.save/
 
     init_run     :     27.35s CPU     42.93s WALL (       1 calls)
     electrons    :    692.97s CPU    716.93s WALL (       1 calls)
     forces       :     11.00s CPU     11.44s WALL (       1 calls)
     stress       :    180.34s CPU    182.65s WALL (       1 calls)

     Called by init_run:
     wfcinit      :     21.20s CPU     36.30s WALL (       1 calls)
     potinit      :      1.42s CPU      1.64s WALL (       1 calls)
     hinit0       :      0.80s CPU      0.85s WALL (       1 calls)

     Called by electrons:
     c_bands      :    662.62s CPU    685.65s WALL (       2 calls)
     sum_band     :     19.32s CPU     19.79s WALL (       2 calls)
     v_of_rho     :      1.74s CPU      1.79s WALL (       2 calls)
     v_h          :      0.03s CPU      0.03s WALL (       2 calls)
     v_xc         :     29.45s CPU     29.79s WALL (      38 calls)
     newd         :      0.49s CPU      0.67s WALL (       2 calls)
     PAW_pot      :      0.56s CPU      0.57s WALL (       2 calls)
     mix_rho      :      0.00s CPU      0.00s WALL (       2 calls)
     vdW_kernel   :      0.15s CPU      0.15s WALL (       1 calls)

     Called by c_bands:
     init_us_2    :      0.17s CPU      0.18s WALL (       4 calls)
     init_us_2:cp :      0.17s CPU      0.18s WALL (       4 calls)
     cegterg      :    660.06s CPU    681.56s WALL (       2 calls)

     Called by sum_band:
     sum_band:wei :      0.00s CPU      0.00s WALL (       2 calls)
     sum_band:loo :     18.72s CPU     18.89s WALL (       2 calls)
     sum_band:buf :      0.00s CPU      0.00s WALL (       2 calls)
     sum_band:ini :      0.15s CPU      0.16s WALL (       2 calls)
     sum_band:cal :      4.17s CPU      4.20s WALL (       2 calls)
     sum_band:bec :      0.07s CPU      0.07s WALL (       2 calls)
     addusdens    :      0.52s CPU      0.71s WALL (       2 calls)
     addusd:skk   :      0.06s CPU      0.07s WALL (       4 calls)
     addusd:dgemm :      0.28s CPU      0.46s WALL (       4 calls)
     addusd:qvan2 :      0.17s CPU      0.17s WALL (       4 calls)

     Called by *egterg:
     cdiaghg      :    530.30s CPU    546.87s WALL (      21 calls)
     cegterg:over :     14.12s CPU     14.85s WALL (      21 calls)
     cegterg:upda :      7.23s CPU      7.37s WALL (      21 calls)
     cegterg:last :      4.15s CPU      4.18s WALL (       2 calls)
     h_psi        :     89.37s CPU     90.45s WALL (      23 calls)
     s_psi        :      8.90s CPU      9.16s WALL (      23 calls)
     g_psi        :      0.06s CPU      0.06s WALL (      21 calls)

     Called by h_psi:
     h_psi:calbec :     10.06s CPU     10.14s WALL (      23 calls)
     vloc_psi     :     70.24s CPU     70.85s WALL (      23 calls)
     vloc_psi:tg_ :      0.01s CPU      0.01s WALL (      23 calls)
     add_vuspsi   :      8.92s CPU      9.19s WALL (      23 calls)

     General routines
     calbec       :     24.68s CPU     24.86s WALL (      30 calls)
     fft          :     24.66s CPU     24.91s WALL (    2232 calls)
     ffts         :      0.05s CPU      0.05s WALL (       4 calls)
     fftw         :     83.14s CPU     83.86s WALL (   15090 calls)
     interpolate  :      0.06s CPU      0.06s WALL (       2 calls)
 
     Parallel routines
     fft_scatt_xy :      1.96s CPU      1.98s WALL (   17326 calls)
     fft_scatt_yz :     94.09s CPU     94.87s WALL (   17326 calls)
     fft_scatt_tg :      0.10s CPU      0.10s WALL (   15090 calls)

     PAW routines
     PAW_pot      :      0.56s CPU      0.57s WALL (       2 calls)
 
     PWSCF        :  15m58.38s CPU  16m54.36s WALL

 
   This run was terminated on:   9: 3:10  11Mar2024            

=------------------------------------------------------------------------------=
   JOB DONE.
=------------------------------------------------------------------------------=
