
     Program PWSCF v.7.1 starts on  8Mar2024 at  9:35:31 

     This program is part of the open-source Quantum ESPRESSO suite
     for quantum simulation of materials; please cite
         "P. Giannozzi et al., J. Phys.:Condens. Matter 21 395502 (2009);
         "P. Giannozzi et al., J. Phys.:Condens. Matter 29 465901 (2017);
         "P. Giannozzi et al., J. Chem. Phys. 152 154105 (2020);
          URL http://www.quantum-espresso.org", 
     in publications or presentations arising from this work. More details at
     http://www.quantum-espresso.org/quote

     Parallel version (MPI & OpenMP), running on     256 processor cores
     Number of MPI processes:               256
     Threads/MPI process:                     1

     MPI processes distributed on     2 nodes
     1564999 MiB available memory on the printing compute node when the environment starts
 
     Reading input from espresso.pwi
Warning: card &CELL ignored
Warning: card    CELL_DYNAMICS    = 'BFGS' ignored
Warning: card / ignored

     Current dimensions of program PWSCF are:
     Max number of different atomic species (ntypx) = 10
     Max number of k-points (npk) =  40000
     Max angular momentum in pseudopotentials (lmaxx) =  4
     file Pb.pbe-dn-kjpaw_psl.1.0.0.UPF: wavefunction(s)  6S 6P 5D renormalized
     file I.pbe-dn-kjpaw_psl.1.0.0.UPF: wavefunction(s)  5S 5P renormalized

     **************************************************************************
     Initializing libbeef V0.1.2 with the BEEF-vdW functional.
     Citation: Wellendorff et al., PRB 85, 235149 (2012).
     **************************************************************************


     IMPORTANT: XC functional enforced from input :
     Exchange-correlation= BEEF-VDW
                           (   1   4  43  14   2   0   0)
     Any further DFT definition will be discarded
     Please, verify this is what you really want

 
     R & G space division:  proc/nbgrp/npool/nimage =     256
     WARNING: too many processors for an effective parallelization!
     wavefunctions fft division:  task group distribution
                                  #TG    x Z-proc =       8     32
     Subspace diagonalization in iterative solution of the eigenvalue problem:
     a serial algorithm will be used

 
     Parallelization info
     --------------------
     sticks:   dense  smooth     PW     G-vecs:    dense   smooth      PW
     Min         119      95     23                19837    14191    1763
     Max         120      96     24                19846    14206    1780
     Sum       30589   24439   6121              5079105  3634441  454335
 
     Using Pencil Decomposition
 


     bravais-lattice index     =            4
     lattice parameter (alat)  =      35.6120  a.u.
     unit-cell volume          =   45937.3577 (a.u.)^3
     number of atoms/cell      =          143
     number of atomic types    =            2
     number of electrons       =      2287.00
     number of Kohn-Sham states=         1373
     kinetic-energy cutoff     =      70.0000  Ry
     charge density cutoff     =     350.0000  Ry
     scf convergence threshold =      1.0E-07
     mixing beta               =       0.7000
     number of iterations used =            8  plain     mixing
     energy convergence thresh.=      1.0E-04
     force convergence thresh. =      1.0E-03
     Exchange-correlation= BEEF-VDW
                           (   1   4  43  14   2   0   0)
     nstep                     =           50


     celldm(1)=  35.612033  celldm(2)=   0.000000  celldm(3)=   1.174479
     celldm(4)=   0.000000  celldm(5)=   0.000000  celldm(6)=   0.000000

     crystal axes: (cart. coord. in units of alat)
               a(1) = (   1.000000   0.000000   0.000000 )  
               a(2) = (  -0.500000   0.866025   0.000000 )  
               a(3) = (   0.000000   0.000000   1.174479 )  

     reciprocal axes: (cart. coord. in units 2 pi/alat)
               b(1) = (  1.000000  0.577350 -0.000000 )  
               b(2) = (  0.000000  1.154701  0.000000 )  
               b(3) = (  0.000000 -0.000000  0.851442 )  


     PseudoPot. # 1 for Pb read from file:
     //group///packages/espresso/pseudo/psl_1.0.0/pslibrary.1.0.0/pbe/PSEUDOPOTENTIALS/Pb.pbe-dn-kjpaw_psl.1.0.0.UPF
     MD5 check sum: 39ab5b8a6bbd56b7735ad9f188aac93a
     Pseudo is Projector augmented-wave + core cor, Zval = 14.0
     Generated using 'atomic' code by A. Dal Corso  v.7.1
     Shape of augmentation charge: PSQ
     Using radial grid of 1281 points,  6 beta functions with: 
                l(1) =   0
                l(2) =   0
                l(3) =   1
                l(4) =   1
                l(5) =   2
                l(6) =   2
     Q(r) pseudized with 0 coefficients 


     PseudoPot. # 2 for I  read from file:
     //group///packages/espresso/pseudo/psl_1.0.0/pslibrary.1.0.0/pbe/PSEUDOPOTENTIALS/I.pbe-dn-kjpaw_psl.1.0.0.UPF
     MD5 check sum: bfa8781bc1224d19af3f3980e3fab11e
     Pseudo is Projector augmented-wave + core cor, Zval = 17.0
     Generated using 'atomic' code by A. Dal Corso  v.7.1
     Shape of augmentation charge: PSQ
     Using radial grid of 1247 points,  6 beta functions with: 
                l(1) =   0
                l(2) =   0
                l(3) =   1
                l(4) =   1
                l(5) =   2
                l(6) =   2
     Q(r) pseudized with 0 coefficients 


     atomic species   valence    mass     pseudopotential
        Pb            14.00   207.20000     Pb( 1.00)
        I             17.00   126.90447     I ( 1.00)

     No symmetry found


                                    s                        frac. trans.

      isym =  1     identity                                     

 cryst.   s( 1) = (     1          0          0      )
                  (     0          1          0      )
                  (     0          0          1      )

 cart.    s( 1) = (  1.0000000  0.0000000  0.0000000 )
                  (  0.0000000  1.0000000  0.0000000 )
                  (  0.0000000  0.0000000  1.0000000 )


     point group C_1 (1)    
     there are  1 classes
     the character table:

       E    
A      1.00

     the symmetry operations in each class and the name of the first element:

     E        1
          identity                                               

   Cartesian axes

     site n.     atom                  positions (alat units)
         1           Pb  tau(   1) = (   0.1250136   0.2164827   1.1744753  )
         2           Pb  tau(   2) = (   0.1250034   0.2164918   0.3914896  )
         3           Pb  tau(   3) = (   0.1250085   0.2164873   0.7829825  )
         4           Pb  tau(   4) = (   0.0000128   0.4329881   1.1744712  )
         5           Pb  tau(   5) = (   0.0000026   0.4329971   0.3914855  )
         6           Pb  tau(   6) = (   0.0000077   0.4329926   0.7829784  )
         7           Pb  tau(   7) = (  -0.1249881   0.6494934   1.1744671  )
         8           Pb  tau(   8) = (  -0.1249983   0.6495025   0.3914814  )
         9           Pb  tau(   9) = (  -0.1249932   0.6494980   0.7829742  )
        10           Pb  tau(  10) = (  -0.2499889   0.8659988   1.1744630  )
        11           Pb  tau(  11) = (  -0.2499991   0.8660078   0.3914773  )
        12           Pb  tau(  12) = (  -0.2499940   0.8660033   0.7829701  )
        13           Pb  tau(  13) = (   0.3750136   0.2164818   1.1744786  )
        14           Pb  tau(  14) = (   0.3750034   0.2164908   0.3914929  )
        15           Pb  tau(  15) = (   0.3750085   0.2164863   0.7829857  )
        16           Pb  tau(  16) = (   0.2500128   0.4329871   1.1744745  )
        17           Pb  tau(  17) = (   0.2500026   0.4329962   0.3914888  )
        18           Pb  tau(  18) = (   0.2500077   0.4329916   0.7829816  )
        19           Pb  tau(  19) = (   0.1250119   0.6494925   1.1744703  )
        20           Pb  tau(  20) = (   0.1250017   0.6495015   0.3914847  )
        21           Pb  tau(  21) = (   0.1250068   0.6494970   0.7829775  )
        22           Pb  tau(  22) = (   0.0000111   0.8659978   1.1744662  )
        23           Pb  tau(  23) = (   0.0000009   0.8660069   0.3914805  )
        24           Pb  tau(  24) = (   0.0000060   0.8660024   0.7829734  )
        25           Pb  tau(  25) = (   0.6250136   0.2164808   1.1744818  )
        26           Pb  tau(  26) = (   0.6250034   0.2164898   0.3914962  )
        27           Pb  tau(  27) = (   0.6250085   0.2164853   0.7829890  )
        28           Pb  tau(  28) = (   0.5000128   0.4329862   1.1744777  )
        29           Pb  tau(  29) = (   0.5000026   0.4329952   0.3914920  )
        30           Pb  tau(  30) = (   0.5000077   0.4329907   0.7829849  )
        31           Pb  tau(  31) = (   0.3750119   0.6494915   1.1744736  )
        32           Pb  tau(  32) = (   0.3750017   0.6495006   0.3914879  )
        33           Pb  tau(  33) = (   0.3750068   0.6494960   0.7829808  )
        34           Pb  tau(  34) = (   0.2500111   0.8659969   1.1744695  )
        35           Pb  tau(  35) = (   0.2500009   0.8660059   0.3914838  )
        36           Pb  tau(  36) = (   0.2500060   0.8660014   0.7829766  )
        37           Pb  tau(  37) = (   0.8750136   0.2164798   1.1744851  )
        38           Pb  tau(  38) = (   0.8750034   0.2164889   0.3914994  )
        39           Pb  tau(  39) = (   0.8750085   0.2164844   0.7829923  )
        40           Pb  tau(  40) = (   0.7500128   0.4329852   1.1744810  )
        41           Pb  tau(  41) = (   0.7500026   0.4329942   0.3914953  )
        42           Pb  tau(  42) = (   0.7500077   0.4329897   0.7829881  )
        43           Pb  tau(  43) = (   0.6250119   0.6494906   1.1744769  )
        44           Pb  tau(  44) = (   0.6250017   0.6494996   0.3914912  )
        45           Pb  tau(  45) = (   0.6250068   0.6494951   0.7829840  )
        46           Pb  tau(  46) = (   0.5000111   0.8659959   1.1744727  )
        47           Pb  tau(  47) = (   0.5000009   0.8660050   0.3914870  )
        48           Pb  tau(  48) = (   0.5000060   0.8660004   0.7829799  )
        49           I   tau(  49) = (   0.1250105   0.0721505   0.6824253  )
        50           I   tau(  50) = (   0.1250156   0.0721459   1.0739182  )
        51           I   tau(  51) = (   0.0000045   0.2886603   0.2909283  )
        52           I   tau(  52) = (   0.0000096   0.2886558   0.6824212  )
        53           I   tau(  53) = (   0.0000147   0.2886513   1.0739140  )
        54           I   tau(  54) = (  -0.1249963   0.5051657   0.2909242  )
        55           I   tau(  55) = (  -0.1249912   0.5051612   0.6824171  )
        56           I   tau(  56) = (  -0.1249861   0.5051566   1.0739099  )
        57           I   tau(  57) = (  -0.2499971   0.7216710   0.2909201  )
        58           I   tau(  58) = (  -0.2499920   0.7216665   0.6824129  )
        59           I   tau(  59) = (  -0.2499869   0.7216620   1.0739058  )
        60           I   tau(  60) = (   0.3750054   0.0721540   0.2909357  )
        61           I   tau(  61) = (   0.3750105   0.0721495   0.6824286  )
        62           I   tau(  62) = (   0.3750156   0.0721450   1.0739214  )
        63           I   tau(  63) = (   0.2500045   0.2886594   0.2909316  )
        64           I   tau(  64) = (   0.2500096   0.2886548   0.6824244  )
        65           I   tau(  65) = (   0.2500147   0.2886503   1.0739173  )
        66           I   tau(  66) = (   0.1250037   0.5051647   0.2909275  )
        67           I   tau(  67) = (   0.1250088   0.5051602   0.6824203  )
        68           I   tau(  68) = (   0.1250139   0.5051557   1.0739132  )
        69           I   tau(  69) = (   0.0000029   0.7216701   0.2909233  )
        70           I   tau(  70) = (   0.0000080   0.7216656   0.6824162  )
        71           I   tau(  71) = (   0.0000131   0.7216610   1.0739090  )
        72           I   tau(  72) = (   0.6250054   0.0721530   0.2909390  )
        73           I   tau(  73) = (   0.6250105   0.0721485   0.6824318  )
        74           I   tau(  74) = (   0.6250156   0.0721440   1.0739247  )
        75           I   tau(  75) = (   0.5000045   0.2886584   0.2909348  )
        76           I   tau(  76) = (   0.5000096   0.2886539   0.6824277  )
        77           I   tau(  77) = (   0.5000147   0.2886494   1.0739205  )
        78           I   tau(  78) = (   0.3750037   0.5051638   0.2909307  )
        79           I   tau(  79) = (   0.3750088   0.5051592   0.6824236  )
        80           I   tau(  80) = (   0.3750139   0.5051547   1.0739164  )
        81           I   tau(  81) = (   0.2500029   0.7216691   0.2909266  )
        82           I   tau(  82) = (   0.2500080   0.7216646   0.6824194  )
        83           I   tau(  83) = (   0.2500131   0.7216601   1.0739123  )
        84           I   tau(  84) = (   0.8750054   0.0721521   0.2909422  )
        85           I   tau(  85) = (   0.8750105   0.0721476   0.6824351  )
        86           I   tau(  86) = (   0.8750156   0.0721430   1.0739279  )
        87           I   tau(  87) = (   0.7500045   0.2886574   0.2909381  )
        88           I   tau(  88) = (   0.7500096   0.2886529   0.6824310  )
        89           I   tau(  89) = (   0.7500147   0.2886484   1.0739238  )
        90           I   tau(  90) = (   0.6250037   0.5051628   0.2909340  )
        91           I   tau(  91) = (   0.6250088   0.5051583   0.6824268  )
        92           I   tau(  92) = (   0.6250139   0.5051538   1.0739197  )
        93           I   tau(  93) = (   0.5000029   0.7216681   0.2909299  )
        94           I   tau(  94) = (   0.5000080   0.7216636   0.6824227  )
        95           I   tau(  95) = (   0.5000131   0.7216591   1.0739156  )
        96           I   tau(  96) = (  -0.0000017   0.1443297   0.1005555  )
        97           I   tau(  97) = (   0.0000034   0.1443252   0.4920483  )
        98           I   tau(  98) = (   0.0000085   0.1443207   0.8835412  )
        99           I   tau(  99) = (  -0.1250025   0.3608351   0.1005514  )
       100           I   tau( 100) = (  -0.1249974   0.3608306   0.4920442  )
       101           I   tau( 101) = (  -0.1249923   0.3608260   0.8835371  )
       102           I   tau( 102) = (  -0.2500034   0.5773404   0.1005472  )
       103           I   tau( 103) = (  -0.2499983   0.5773359   0.4920401  )
       104           I   tau( 104) = (  -0.2499932   0.5773314   0.8835329  )
       105           I   tau( 105) = (  -0.3750042   0.7938458   0.1005431  )
       106           I   tau( 106) = (  -0.3749991   0.7938413   0.4920360  )
       107           I   tau( 107) = (  -0.3749940   0.7938368   0.8835288  )
       108           I   tau( 108) = (   0.2499983   0.1443288   0.1005587  )
       109           I   tau( 109) = (   0.2500034   0.1443242   0.4920516  )
       110           I   tau( 110) = (   0.2500085   0.1443197   0.8835444  )
       111           I   tau( 111) = (   0.1249975   0.3608341   0.1005546  )
       112           I   tau( 112) = (   0.1250026   0.3608296   0.4920475  )
       113           I   tau( 113) = (   0.1250077   0.3608251   0.8835403  )
       114           I   tau( 114) = (  -0.0000034   0.5773395   0.1005505  )
       115           I   tau( 115) = (   0.0000017   0.5773350   0.4920433  )
       116           I   tau( 116) = (   0.0000068   0.5773304   0.8835362  )
       117           I   tau( 117) = (  -0.1250042   0.7938448   0.1005464  )
       118           I   tau( 118) = (  -0.1249991   0.7938403   0.4920392  )
       119           I   tau( 119) = (  -0.1249940   0.7938358   0.8835321  )
       120           I   tau( 120) = (   0.4999983   0.1443278   0.1005620  )
       121           I   tau( 121) = (   0.5000034   0.1443233   0.4920548  )
       122           I   tau( 122) = (   0.5000085   0.1443188   0.8835477  )
       123           I   tau( 123) = (   0.3749975   0.3608332   0.1005579  )
       124           I   tau( 124) = (   0.3750026   0.3608286   0.4920507  )
       125           I   tau( 125) = (   0.3750077   0.3608241   0.8835436  )
       126           I   tau( 126) = (   0.2499966   0.5773385   0.1005537  )
       127           I   tau( 127) = (   0.2500017   0.5773340   0.4920466  )
       128           I   tau( 128) = (   0.2500068   0.5773295   0.8835394  )
       129           I   tau( 129) = (   0.1249958   0.7938439   0.1005496  )
       130           I   tau( 130) = (   0.1250009   0.7938394   0.4920425  )
       131           I   tau( 131) = (   0.1250060   0.7938348   0.8835353  )
       132           I   tau( 132) = (   0.7499983   0.1443268   0.1005653  )
       133           I   tau( 133) = (   0.7500034   0.1443223   0.4920581  )
       134           I   tau( 134) = (   0.7500085   0.1443178   0.8835509  )
       135           I   tau( 135) = (   0.6249975   0.3608322   0.1005611  )
       136           I   tau( 136) = (   0.6250026   0.3608277   0.4920540  )
       137           I   tau( 137) = (   0.6250077   0.3608232   0.8835468  )
       138           I   tau( 138) = (   0.4999966   0.5773376   0.1005570  )
       139           I   tau( 139) = (   0.5000017   0.5773330   0.4920499  )
       140           I   tau( 140) = (   0.5000068   0.5773285   0.8835427  )
       141           I   tau( 141) = (   0.3749958   0.7938429   0.1005529  )
       142           I   tau( 142) = (   0.3750009   0.7938384   0.4920457  )
       143           I   tau( 143) = (   0.3750060   0.7938339   0.8835386  )

   Crystallographic axes

     site n.     atom                  positions (cryst. coord.)
         1           Pb  tau(   1) = (  0.2500000  0.2499727  0.9999973  )
         2           Pb  tau(   2) = (  0.2499950  0.2499832  0.3333306  )
         3           Pb  tau(   3) = (  0.2499975  0.2499780  0.6666639  )
         4           Pb  tau(   4) = (  0.2499986  0.4999716  0.9999938  )
         5           Pb  tau(   5) = (  0.2499936  0.4999820  0.3333271  )
         6           Pb  tau(   6) = (  0.2499961  0.4999768  0.6666604  )
         7           Pb  tau(   7) = (  0.2499972  0.7499704  0.9999902  )
         8           Pb  tau(   8) = (  0.2499922  0.7499809  0.3333236  )
         9           Pb  tau(   9) = (  0.2499947  0.7499757  0.6666569  )
        10           Pb  tau(  10) = (  0.2499957  0.9999693  0.9999867  )
        11           Pb  tau(  11) = (  0.2499908  0.9999797  0.3333201  )
        12           Pb  tau(  12) = (  0.2499932  0.9999745  0.6666534  )
        13           Pb  tau(  13) = (  0.4999994  0.2499716  1.0000000  )
        14           Pb  tau(  14) = (  0.4999944  0.2499821  0.3333334  )
        15           Pb  tau(  15) = (  0.4999969  0.2499768  0.6666667  )
        16           Pb  tau(  16) = (  0.4999980  0.4999705  0.9999965  )
        17           Pb  tau(  17) = (  0.4999930  0.4999809  0.3333299  )
        18           Pb  tau(  18) = (  0.4999955  0.4999757  0.6666632  )
        19           Pb  tau(  19) = (  0.4999966  0.7499693  0.9999930  )
        20           Pb  tau(  20) = (  0.4999916  0.7499798  0.3333264  )
        21           Pb  tau(  21) = (  0.4999941  0.7499745  0.6666597  )
        22           Pb  tau(  22) = (  0.4999952  0.9999682  0.9999895  )
        23           Pb  tau(  23) = (  0.4999902  0.9999786  0.3333228  )
        24           Pb  tau(  24) = (  0.4999927  0.9999734  0.6666562  )
        25           Pb  tau(  25) = (  0.7499989  0.2499705  1.0000028  )
        26           Pb  tau(  26) = (  0.7499939  0.2499809  0.3333362  )
        27           Pb  tau(  27) = (  0.7499964  0.2499757  0.6666695  )
        28           Pb  tau(  28) = (  0.7499975  0.4999694  0.9999993  )
        29           Pb  tau(  29) = (  0.7499925  0.4999798  0.3333326  )
        30           Pb  tau(  30) = (  0.7499950  0.4999746  0.6666660  )
        31           Pb  tau(  31) = (  0.7499960  0.7499682  0.9999958  )
        32           Pb  tau(  32) = (  0.7499910  0.7499786  0.3333291  )
        33           Pb  tau(  33) = (  0.7499935  0.7499734  0.6666625  )
        34           Pb  tau(  34) = (  0.7499946  0.9999671  0.9999923  )
        35           Pb  tau(  35) = (  0.7499896  0.9999775  0.3333256  )
        36           Pb  tau(  36) = (  0.7499921  0.9999723  0.6666590  )
        37           Pb  tau(  37) = (  0.9999983  0.2499694  1.0000056  )
        38           Pb  tau(  38) = (  0.9999933  0.2499798  0.3333389  )
        39           Pb  tau(  39) = (  0.9999958  0.2499746  0.6666723  )
        40           Pb  tau(  40) = (  0.9999969  0.4999682  1.0000021  )
        41           Pb  tau(  41) = (  0.9999919  0.4999787  0.3333354  )
        42           Pb  tau(  42) = (  0.9999944  0.4999735  0.6666687  )
        43           Pb  tau(  43) = (  0.9999955  0.7499671  0.9999986  )
        44           Pb  tau(  44) = (  0.9999905  0.7499775  0.3333319  )
        45           Pb  tau(  45) = (  0.9999930  0.7499723  0.6666652  )
        46           Pb  tau(  46) = (  0.9999941  0.9999659  0.9999951  )
        47           Pb  tau(  47) = (  0.9999891  0.9999764  0.3333284  )
        48           Pb  tau(  48) = (  0.9999916  0.9999712  0.6666617  )
        49           I   tau(  49) = (  0.1666666  0.0833122  0.5810454  )
        50           I   tau(  50) = (  0.1666691  0.0833070  0.9143787  )
        51           I   tau(  51) = (  0.1666626  0.3333162  0.2477085  )
        52           I   tau(  52) = (  0.1666651  0.3333110  0.5810418  )
        53           I   tau(  53) = (  0.1666676  0.3333058  0.9143752  )
        54           I   tau(  54) = (  0.1666612  0.5833151  0.2477050  )
        55           I   tau(  55) = (  0.1666637  0.5833099  0.5810383  )
        56           I   tau(  56) = (  0.1666662  0.5833047  0.9143717  )
        57           I   tau(  57) = (  0.1666598  0.8333139  0.2477015  )
        58           I   tau(  58) = (  0.1666623  0.8333087  0.5810348  )
        59           I   tau(  59) = (  0.1666648  0.8333035  0.9143682  )
        60           I   tau(  60) = (  0.4166635  0.0833163  0.2477148  )
        61           I   tau(  61) = (  0.4166660  0.0833111  0.5810481  )
        62           I   tau(  62) = (  0.4166685  0.0833058  0.9143815  )
        63           I   tau(  63) = (  0.4166621  0.3333151  0.2477113  )
        64           I   tau(  64) = (  0.4166646  0.3333099  0.5810446  )
        65           I   tau(  65) = (  0.4166671  0.3333047  0.9143780  )
        66           I   tau(  66) = (  0.4166607  0.5833140  0.2477078  )
        67           I   tau(  67) = (  0.4166632  0.5833088  0.5810411  )
        68           I   tau(  68) = (  0.4166657  0.5833035  0.9143744  )
        69           I   tau(  69) = (  0.4166593  0.8333128  0.2477043  )
        70           I   tau(  70) = (  0.4166618  0.8333076  0.5810376  )
        71           I   tau(  71) = (  0.4166643  0.8333024  0.9143709  )
        72           I   tau(  72) = (  0.6666629  0.0833152  0.2477176  )
        73           I   tau(  73) = (  0.6666654  0.0833099  0.5810509  )
        74           I   tau(  74) = (  0.6666679  0.0833047  0.9143842  )
        75           I   tau(  75) = (  0.6666615  0.3333140  0.2477141  )
        76           I   tau(  76) = (  0.6666640  0.3333088  0.5810474  )
        77           I   tau(  77) = (  0.6666665  0.3333036  0.9143807  )
        78           I   tau(  78) = (  0.6666601  0.5833129  0.2477106  )
        79           I   tau(  79) = (  0.6666626  0.5833076  0.5810439  )
        80           I   tau(  80) = (  0.6666651  0.5833024  0.9143772  )
        81           I   tau(  81) = (  0.6666587  0.8333117  0.2477070  )
        82           I   tau(  82) = (  0.6666612  0.8333065  0.5810404  )
        83           I   tau(  83) = (  0.6666637  0.8333013  0.9143737  )
        84           I   tau(  84) = (  0.9166624  0.0833141  0.2477203  )
        85           I   tau(  85) = (  0.9166649  0.0833088  0.5810537  )
        86           I   tau(  86) = (  0.9166674  0.0833036  0.9143870  )
        87           I   tau(  87) = (  0.9166610  0.3333129  0.2477168  )
        88           I   tau(  88) = (  0.9166635  0.3333077  0.5810502  )
        89           I   tau(  89) = (  0.9166660  0.3333025  0.9143835  )
        90           I   tau(  90) = (  0.9166596  0.5833118  0.2477133  )
        91           I   tau(  91) = (  0.9166621  0.5833065  0.5810467  )
        92           I   tau(  92) = (  0.9166646  0.5833013  0.9143800  )
        93           I   tau(  93) = (  0.9166582  0.8333106  0.2477098  )
        94           I   tau(  94) = (  0.9166607  0.8333054  0.5810431  )
        95           I   tau(  95) = (  0.9166632  0.8333002  0.9143765  )
        96           I   tau(  96) = (  0.0833271  0.1666576  0.0856171  )
        97           I   tau(  97) = (  0.0833296  0.1666524  0.4189505  )
        98           I   tau(  98) = (  0.0833321  0.1666472  0.7522838  )
        99           I   tau(  99) = (  0.0833257  0.4166565  0.0856136  )
       100           I   tau( 100) = (  0.0833282  0.4166513  0.4189470  )
       101           I   tau( 101) = (  0.0833307  0.4166460  0.7522803  )
       102           I   tau( 102) = (  0.0833243  0.6666553  0.0856101  )
       103           I   tau( 103) = (  0.0833268  0.6666501  0.4189434  )
       104           I   tau( 104) = (  0.0833293  0.6666449  0.7522768  )
       105           I   tau( 105) = (  0.0833229  0.9166542  0.0856066  )
       106           I   tau( 106) = (  0.0833254  0.9166489  0.4189399  )
       107           I   tau( 107) = (  0.0833279  0.9166437  0.7522733  )
       108           I   tau( 108) = (  0.3333265  0.1666565  0.0856199  )
       109           I   tau( 109) = (  0.3333290  0.1666513  0.4189532  )
       110           I   tau( 110) = (  0.3333315  0.1666461  0.7522866  )
       111           I   tau( 111) = (  0.3333251  0.4166554  0.0856164  )
       112           I   tau( 112) = (  0.3333276  0.4166501  0.4189497  )
       113           I   tau( 113) = (  0.3333301  0.4166449  0.7522831  )
       114           I   tau( 114) = (  0.3333237  0.6666542  0.0856129  )
       115           I   tau( 115) = (  0.3333262  0.6666490  0.4189462  )
       116           I   tau( 116) = (  0.3333287  0.6666438  0.7522795  )
       117           I   tau( 117) = (  0.3333223  0.9166531  0.0856094  )
       118           I   tau( 118) = (  0.3333248  0.9166478  0.4189427  )
       119           I   tau( 119) = (  0.3333273  0.9166426  0.7522760  )
       120           I   tau( 120) = (  0.5833260  0.1666554  0.0856227  )
       121           I   tau( 121) = (  0.5833285  0.1666502  0.4189560  )
       122           I   tau( 122) = (  0.5833310  0.1666450  0.7522893  )
       123           I   tau( 123) = (  0.5833246  0.4166542  0.0856192  )
       124           I   tau( 124) = (  0.5833271  0.4166490  0.4189525  )
       125           I   tau( 125) = (  0.5833296  0.4166438  0.7522858  )
       126           I   tau( 126) = (  0.5833232  0.6666531  0.0856157  )
       127           I   tau( 127) = (  0.5833257  0.6666479  0.4189490  )
       128           I   tau( 128) = (  0.5833282  0.6666427  0.7522823  )
       129           I   tau( 129) = (  0.5833218  0.9166519  0.0856121  )
       130           I   tau( 130) = (  0.5833243  0.9166467  0.4189455  )
       131           I   tau( 131) = (  0.5833268  0.9166415  0.7522788  )
       132           I   tau( 132) = (  0.8333254  0.1666543  0.0856254  )
       133           I   tau( 133) = (  0.8333279  0.1666491  0.4189588  )
       134           I   tau( 134) = (  0.8333304  0.1666438  0.7522921  )
       135           I   tau( 135) = (  0.8333240  0.4166531  0.0856219  )
       136           I   tau( 136) = (  0.8333265  0.4166479  0.4189553  )
       137           I   tau( 137) = (  0.8333290  0.4166427  0.7522886  )
       138           I   tau( 138) = (  0.8333226  0.6666520  0.0856184  )
       139           I   tau( 139) = (  0.8333251  0.6666468  0.4189518  )
       140           I   tau( 140) = (  0.8333276  0.6666415  0.7522851  )
       141           I   tau( 141) = (  0.8333212  0.9166508  0.0856149  )
       142           I   tau( 142) = (  0.8333237  0.9166456  0.4189482  )
       143           I   tau( 143) = (  0.8333262  0.9166404  0.7522816  )

     number of k points=     1  Gaussian smearing, width (Ry)=  0.0100
                       cart. coord. in units 2pi/alat
        k(    1) = (   0.0000000   0.0000000   0.0000000), wk =   2.0000000

                       cryst. coord.
        k(    1) = (   0.0000000   0.0000000   0.0000000), wk =   2.0000000

     Dense  grid:  5079105 G-vectors     FFT dimensions: ( 216, 216, 250)

     Smooth grid:  3634441 G-vectors     FFT dimensions: ( 192, 192, 225)

     Dynamical RAM for                 wfc:      37.17 MB

     Dynamical RAM for     wfc (w. buffer):      37.17 MB

     Dynamical RAM for           str. fact:       0.61 MB

     Dynamical RAM for           local pot:       0.00 MB

     Dynamical RAM for          nlocal pot:      69.68 MB

     Dynamical RAM for                qrad:       3.00 MB

     Dynamical RAM for          rho,v,vnew:       1.98 MB

     Dynamical RAM for               rhoin:       0.66 MB

     Dynamical RAM for            rho*nmix:       4.84 MB

     Dynamical RAM for           G-vectors:       1.24 MB

     Dynamical RAM for          h,s,v(r/c):    1380.71 MB

     Dynamical RAM for          <psi|beta>:      53.93 MB

     Dynamical RAM for                 psi:     148.66 MB

     Dynamical RAM for                hpsi:     148.66 MB

     Dynamical RAM for                spsi:     148.66 MB

     Dynamical RAM for      wfcinit/wfcrot:     117.49 MB

     Dynamical RAM for           addusdens:      85.07 MB

     Dynamical RAM for          addusforce:     142.51 MB

     Dynamical RAM for         addusstress:      60.85 MB

     Estimated static dynamical RAM per process >     117.02 MB

     Estimated max dynamical RAM per process >       1.96 GB

     Estimated total dynamical RAM >     500.62 GB

     Check: negative core charge=   -0.000001

     Initial potential from superposition of free atoms

     starting charge    2286.8799, renormalised to    2287.0000


     %%%%%%%%%%%%%%%%%%%%%%%%%%%%%%%%%%%%%%%%%%%%%%%%%%%%%%%%%%%%%%%%%%%%%%%%
     %                                                                      %
     % You are using vdW-DF, which was implemented by the Thonhauser group. %
     % Please cite the following two papers that made this development      %
     % possible and the two reviews that describe the various versions:     %
     %                                                                      %
     %   T. Thonhauser et al., PRL 115, 136402 (2015).                      %
     %   T. Thonhauser et al., PRB 76, 125112 (2007).                       %
     %   K. Berland et al., Rep. Prog. Phys. 78, 066501 (2015).             %
     %   D.C. Langreth et al., J. Phys.: Condens. Matter 21, 084203 (2009). %
     %                                                                      %
     % If you are calculating stress with vdW-DF, please also cite:         %
     %                                                                      %
     %   R. Sabatini et al., J. Phys.: Condens. Matter 24, 424209 (2012).   %
     %                                                                      %
     %%%%%%%%%%%%%%%%%%%%%%%%%%%%%%%%%%%%%%%%%%%%%%%%%%%%%%%%%%%%%%%%%%%%%%%%

     %%%%%%%%%%%%%%%%%%%%%%%%%%%%%%%%%%%%%%%%%%%%%%%%%%%%%%%%%%%%%%%%%%%%%%%%
     %                                                                      %
     %  vdW-DF NEWS:                                                        %
     %                                                                      %
     %  * vdW-DF3 is now available. DOI: 10.1021/acs.jctc.0c00471           %
     %    use with input_dft = 'vdW-DF3-opt1' or 'vdW-DF3-opt2'             %
     %                                                                      %
     %  * Unscreened and range-separated vdW-DF hybrid functionals          %
     %    DOI: 10.1063/1.4986522 and 10.1088/1361-648X/ac2ad2               %
     %    use with input_dft = 'vdW-DF-cx0' (etc) and 'vdW-DF-ahcx'         %
     %                                                                      %
     %%%%%%%%%%%%%%%%%%%%%%%%%%%%%%%%%%%%%%%%%%%%%%%%%%%%%%%%%%%%%%%%%%%%%%%%


     Carrying out vdW-DF run using the following parameters:
     Nqs    =  20  Npoints =  1024  r_max =  100.000
     q_mesh =  0.00001000  0.04494208  0.09755937  0.15916263
               0.23128650  0.31572767  0.41458969  0.53033537
               0.66584808  0.82450364  1.01025438  1.22772762
               1.48234092  1.78043706  2.12944203  2.53805004
               3.01644009  3.57652955  4.23227104  5.00000000


     -----------------------------------------------
     Non-local corr. energy    =      68.15857324 Ry
     -----------------------------------------------

     Starting wfcs are 1287 randomized atomic wfcs +   86 random wfcs
     Checking if some PAW data can be deallocated... 
       PAW data deallocated on  160 nodes for type:  1
       PAW data deallocated on   96 nodes for type:  2

     total cpu time spent up to now is       33.7 secs

     Self-consistent Calculation

     iteration #  1     ecut=    70.00 Ry     beta= 0.70
     Davidson diagonalization with overlap

---- Real-time Memory Report at c_bands before calling an iterative solver
           594 MiB given to the printing process from OS
             0 MiB allocation reported by mallinfo(arena+hblkhd)
       1541375 MiB available memory on the node where the printing process lives
------------------
     ethr =  1.00E-02,  avg # of iterations =  9.0

     Threshold (ethr) on eigenvalues was too large:
     Diagonalizing with lowered threshold

     Davidson diagonalization with overlap

---- Real-time Memory Report at c_bands before calling an iterative solver
          1436 MiB given to the printing process from OS
             0 MiB allocation reported by mallinfo(arena+hblkhd)
       1523978 MiB available memory on the node where the printing process lives
------------------
     ethr =  2.14E-04,  avg # of iterations = 13.0


     -----------------------------------------------
     Non-local corr. energy    =      68.64553391 Ry
     -----------------------------------------------


     total cpu time spent up to now is      958.7 secs

     total energy              =  -96568.65646796 Ry
     estimated scf accuracy    <       4.55781881 Ry

     iteration #  2     ecut=    70.00 Ry     beta= 0.70
     Davidson diagonalization with overlap

---- Real-time Memory Report at c_bands before calling an iterative solver
          1637 MiB given to the printing process from OS
             0 MiB allocation reported by mallinfo(arena+hblkhd)
       1523689 MiB available memory on the node where the printing process lives
------------------
     ethr =  1.99E-04,  avg # of iterations = 13.0


     -----------------------------------------------
     Non-local corr. energy    =      68.46180108 Ry
     -----------------------------------------------


     total cpu time spent up to now is     1497.4 secs

     total energy              =  -96569.01919388 Ry
     estimated scf accuracy    <       6.90440105 Ry

     iteration #  3     ecut=    70.00 Ry     beta= 0.70
     Davidson diagonalization with overlap

---- Real-time Memory Report at c_bands before calling an iterative solver
          1637 MiB given to the printing process from OS
             0 MiB allocation reported by mallinfo(arena+hblkhd)
       1523683 MiB available memory on the node where the printing process lives
------------------
     ethr =  1.99E-04,  avg # of iterations = 11.0


     -----------------------------------------------
     Non-local corr. energy    =      68.43630166 Ry
     -----------------------------------------------


     total cpu time spent up to now is     1895.8 secs

     total energy              =  -96570.52668822 Ry
     estimated scf accuracy    <       0.28059699 Ry

     iteration #  4     ecut=    70.00 Ry     beta= 0.70
     Davidson diagonalization with overlap

---- Real-time Memory Report at c_bands before calling an iterative solver
          1637 MiB given to the printing process from OS
             0 MiB allocation reported by mallinfo(arena+hblkhd)
       1523674 MiB available memory on the node where the printing process lives
------------------
     ethr =  1.23E-05,  avg # of iterations = 15.0


     -----------------------------------------------
     Non-local corr. energy    =      68.43975828 Ry
     -----------------------------------------------


     total cpu time spent up to now is     2560.0 secs

     total energy              =  -96570.54022870 Ry
     estimated scf accuracy    <       0.47892498 Ry

     iteration #  5     ecut=    70.00 Ry     beta= 0.70
     Davidson diagonalization with overlap

---- Real-time Memory Report at c_bands before calling an iterative solver
          1637 MiB given to the printing process from OS
             0 MiB allocation reported by mallinfo(arena+hblkhd)
       1523669 MiB available memory on the node where the printing process lives
------------------
     ethr =  1.23E-05,  avg # of iterations = 15.0


     -----------------------------------------------
     Non-local corr. energy    =      68.45723102 Ry
     -----------------------------------------------


     total cpu time spent up to now is     3105.2 secs

     total energy              =  -96570.61416824 Ry
     estimated scf accuracy    <       0.04089001 Ry

     iteration #  6     ecut=    70.00 Ry     beta= 0.70
     Davidson diagonalization with overlap

---- Real-time Memory Report at c_bands before calling an iterative solver
          1637 MiB given to the printing process from OS
             0 MiB allocation reported by mallinfo(arena+hblkhd)
       1523628 MiB available memory on the node where the printing process lives
------------------
     ethr =  1.79E-06,  avg # of iterations = 16.0


     -----------------------------------------------
     Non-local corr. energy    =      68.46791595 Ry
     -----------------------------------------------


     total cpu time spent up to now is     3774.2 secs

     total energy              =  -96570.62035518 Ry
     estimated scf accuracy    <       0.02466973 Ry

     iteration #  7     ecut=    70.00 Ry     beta= 0.70
     Davidson diagonalization with overlap

---- Real-time Memory Report at c_bands before calling an iterative solver
          1637 MiB given to the printing process from OS
             0 MiB allocation reported by mallinfo(arena+hblkhd)
       1523544 MiB available memory on the node where the printing process lives
------------------
     c_bands:  2 eigenvalues not converged
     ethr =  1.08E-06,  avg # of iterations = 20.0


     -----------------------------------------------
     Non-local corr. energy    =      68.47717813 Ry
     -----------------------------------------------


     total cpu time spent up to now is     4502.1 secs

     total energy              =  -96570.62484948 Ry
     estimated scf accuracy    <       0.00142292 Ry

     iteration #  8     ecut=    70.00 Ry     beta= 0.70
     Davidson diagonalization with overlap

---- Real-time Memory Report at c_bands before calling an iterative solver
          1637 MiB given to the printing process from OS
             0 MiB allocation reported by mallinfo(arena+hblkhd)
       1523171 MiB available memory on the node where the printing process lives
------------------
     ethr =  6.22E-08,  avg # of iterations = 14.0


     -----------------------------------------------
     Non-local corr. energy    =      68.48073263 Ry
     -----------------------------------------------


     total cpu time spent up to now is     5659.5 secs

     total energy              =  -96570.62526172 Ry
     estimated scf accuracy    <       0.00183073 Ry

     iteration #  9     ecut=    70.00 Ry     beta= 0.70
     Davidson diagonalization with overlap

---- Real-time Memory Report at c_bands before calling an iterative solver
          1948 MiB given to the printing process from OS
             0 MiB allocation reported by mallinfo(arena+hblkhd)
       1522687 MiB available memory on the node where the printing process lives
------------------
     c_bands:  2 eigenvalues not converged
     ethr =  6.22E-08,  avg # of iterations = 20.0


     -----------------------------------------------
     Non-local corr. energy    =      68.48148311 Ry
     -----------------------------------------------


     total cpu time spent up to now is     6408.2 secs

     total energy              =  -96570.62557333 Ry
     estimated scf accuracy    <       0.00017349 Ry

     iteration # 10     ecut=    70.00 Ry     beta= 0.70
     Davidson diagonalization with overlap

---- Real-time Memory Report at c_bands before calling an iterative solver
          1948 MiB given to the printing process from OS
             0 MiB allocation reported by mallinfo(arena+hblkhd)
       1522669 MiB available memory on the node where the printing process lives
------------------
     c_bands:  1 eigenvalues not converged
     ethr =  7.59E-09,  avg # of iterations = 20.0


     -----------------------------------------------
     Non-local corr. energy    =      68.48148967 Ry
     -----------------------------------------------


     total cpu time spent up to now is     7273.3 secs

     total energy              =  -96570.62559477 Ry
     estimated scf accuracy    <       0.00013985 Ry

     iteration # 11     ecut=    70.00 Ry     beta= 0.70
     Davidson diagonalization with overlap

---- Real-time Memory Report at c_bands before calling an iterative solver
          1948 MiB given to the printing process from OS
             0 MiB allocation reported by mallinfo(arena+hblkhd)
       1522662 MiB available memory on the node where the printing process lives
------------------
     c_bands:  1 eigenvalues not converged
     ethr =  6.12E-09,  avg # of iterations = 20.0


     -----------------------------------------------
     Non-local corr. energy    =      68.48157778 Ry
     -----------------------------------------------


     total cpu time spent up to now is     8002.5 secs

     total energy              =  -96570.62561688 Ry
     estimated scf accuracy    <       0.00005722 Ry

     iteration # 12     ecut=    70.00 Ry     beta= 0.70
     Davidson diagonalization with overlap

---- Real-time Memory Report at c_bands before calling an iterative solver
          1948 MiB given to the printing process from OS
             0 MiB allocation reported by mallinfo(arena+hblkhd)
       1522646 MiB available memory on the node where the printing process lives
------------------
     c_bands:  2 eigenvalues not converged
     ethr =  2.50E-09,  avg # of iterations = 20.0


     -----------------------------------------------
     Non-local corr. energy    =      68.48146973 Ry
     -----------------------------------------------


     total cpu time spent up to now is     8690.5 secs

     total energy              =  -96570.62562601 Ry
     estimated scf accuracy    <       0.00000738 Ry

     iteration # 13     ecut=    70.00 Ry     beta= 0.70
     Davidson diagonalization with overlap

---- Real-time Memory Report at c_bands before calling an iterative solver
          1948 MiB given to the printing process from OS
             0 MiB allocation reported by mallinfo(arena+hblkhd)
       1522650 MiB available memory on the node where the printing process lives
------------------
     c_bands:  1 eigenvalues not converged
     ethr =  3.23E-10,  avg # of iterations = 20.0


     -----------------------------------------------
     Non-local corr. energy    =      68.48150496 Ry
     -----------------------------------------------


     total cpu time spent up to now is     9499.8 secs

     total energy              =  -96570.62562753 Ry
     estimated scf accuracy    <       0.00000091 Ry

     iteration # 14     ecut=    70.00 Ry     beta= 0.70
     Davidson diagonalization with overlap

---- Real-time Memory Report at c_bands before calling an iterative solver
          1948 MiB given to the printing process from OS
             0 MiB allocation reported by mallinfo(arena+hblkhd)
       1522644 MiB available memory on the node where the printing process lives
------------------
     c_bands:  1 eigenvalues not converged
     ethr =  3.99E-11,  avg # of iterations = 20.0


     -----------------------------------------------
     Non-local corr. energy    =      68.48153956 Ry
     -----------------------------------------------


     total cpu time spent up to now is    10547.7 secs

     total energy              =  -96570.62562788 Ry
     estimated scf accuracy    <       0.00000021 Ry

     iteration # 15     ecut=    70.00 Ry     beta= 0.70
     Davidson diagonalization with overlap

---- Real-time Memory Report at c_bands before calling an iterative solver
          1948 MiB given to the printing process from OS
             0 MiB allocation reported by mallinfo(arena+hblkhd)
       1522633 MiB available memory on the node where the printing process lives
------------------
     c_bands:  1 eigenvalues not converged
     ethr =  9.31E-12,  avg # of iterations = 20.0


     -----------------------------------------------
     Non-local corr. energy    =      68.48155610 Ry
     -----------------------------------------------


     total cpu time spent up to now is    11372.1 secs

     total energy              =  -96570.62562791 Ry
     estimated scf accuracy    <       0.00000011 Ry

     iteration # 16     ecut=    70.00 Ry     beta= 0.70
     Davidson diagonalization with overlap

---- Real-time Memory Report at c_bands before calling an iterative solver
          1948 MiB given to the printing process from OS
             0 MiB allocation reported by mallinfo(arena+hblkhd)
       1522622 MiB available memory on the node where the printing process lives
------------------
     c_bands:  1 eigenvalues not converged
     ethr =  4.82E-12,  avg # of iterations = 20.0


     -----------------------------------------------
     Non-local corr. energy    =      68.48157881 Ry
     -----------------------------------------------


     total cpu time spent up to now is    12201.4 secs

     End of self-consistent calculation

          k = 0.0000 0.0000 0.0000 (454335 PWs)   bands (ev):

   -40.8904 -40.8903 -40.8902 -40.8855 -40.8854 -40.8854 -40.8853 -40.8852
   -40.8851 -40.8714 -40.8713 -40.8711 -40.8707 -40.8706 -40.8705 -40.8569
   -40.8567 -40.8566 -40.8563 -40.8561 -40.8560 -40.8558 -40.8556 -40.8555
   -40.8541 -40.8539 -40.8538 -40.8536 -40.8535 -40.8534 -40.8393 -40.8391
   -40.8391 -40.8380 -40.8379 -40.8379 -40.8379 -40.8379 -40.8379 -40.8378
   -40.8378 -40.8378 -40.8378 -40.8377 -40.8377 -40.8377 -40.8377 -40.8377
   -40.8376 -40.8376 -40.8376 -40.8375 -40.8375 -40.8374 -40.8374 -40.8374
   -40.8374 -40.8373 -40.8373 -40.8373 -40.8373 -40.8371 -40.8366 -40.8366
   -40.8365 -40.8365 -40.8364 -40.8364 -40.8364 -40.8364 -40.8364 -40.8363
   -40.8363 -40.8363 -40.8362 -40.8362 -40.8362 -40.8362 -40.8362 -40.8360
   -40.8344 -40.8344 -40.8344 -40.8343 -40.8343 -40.8343 -40.8342 -40.8341
   -40.8341 -40.8341 -40.8341 -40.8341 -40.8340 -40.8340 -40.8340 -40.8340
   -40.8340 -40.8340 -40.8340 -40.8340 -40.8339 -40.8339 -40.8338 -40.8337
   -40.8337 -40.8337 -40.8337 -40.8332 -40.8331 -40.8331 -40.8331 -40.8330
   -40.8330 -40.8330 -40.8329 -40.8329 -40.8329 -40.8329 -40.8329 -40.8328
   -40.8328 -40.8328 -40.8328 -40.8328 -40.8328 -40.8328 -40.8327 -40.8327
   -40.8327 -40.8327 -40.8327 -40.8326 -40.8326 -40.8326 -40.8326 -40.8324
   -40.8323 -40.8319 -40.8319 -40.8318 -40.8318 -40.8318 -40.8318 -40.8317
   -40.8317 -40.8316 -40.8316 -40.8316 -40.8316 -40.8316 -40.8315 -40.8315
   -40.8312 -40.8312 -40.8308 -40.8308 -40.8307 -40.8307 -40.8307 -40.8306
   -40.8306 -40.8306 -40.8306 -40.8306 -40.8306 -40.8305 -40.8305 -40.8305
   -40.8305 -40.8296 -40.8295 -40.8295 -40.8295 -40.8295 -40.8294 -40.8263
   -40.8263 -40.8262 -40.8262 -40.8260 -40.8260 -40.8257 -40.8257 -40.8256
   -40.8256 -40.8256 -40.8256 -40.8256 -40.8256 -40.8256 -40.8256 -40.8256
   -40.8256 -40.8256 -40.8256 -40.8255 -40.8255 -40.8254 -40.8254 -40.8254
   -40.8253 -40.8253 -40.8253 -40.8252 -40.8252 -40.8252 -40.8252 -40.8252
   -40.8252 -40.8252 -40.8252 -40.8252 -40.8252 -40.8251 -40.8251 -40.8251
   -40.8251 -40.8251 -40.8250 -40.8250 -40.8250 -40.8250 -40.8250 -40.8250
   -40.8250 -40.8250 -40.8250 -40.8250 -40.8249 -40.8249 -40.8249 -40.8249
   -40.8249 -40.8249 -40.8249 -40.8249 -40.8249 -40.8248 -40.8248 -40.8248
   -40.8248 -40.8248 -40.8248 -40.8248 -40.8248 -40.8247 -40.8247 -40.8246
   -40.8246 -40.8246 -40.8246 -40.8246 -40.8245 -40.8245 -40.8245 -40.8245
   -40.8245 -40.8244 -40.8244 -40.8244 -40.8244 -40.8244 -40.8244 -40.8244
   -40.8244 -40.8244 -40.8244 -40.8244 -40.8244 -40.8243 -40.8243 -40.8243
   -40.8243 -40.8243 -40.8243 -40.8243 -40.8242 -40.8242 -40.8242 -40.8242
   -40.8242 -40.8242 -40.8242 -40.8241 -40.8241 -40.8241 -40.8241 -40.8241
   -40.8241 -40.8241 -40.8241 -40.8241 -40.8241 -40.8241 -40.8241 -40.8240
   -40.8240 -40.8240 -40.8240 -40.8240 -40.8240 -40.8240 -40.8239 -40.8239
   -40.8239 -40.8239 -40.8239 -40.8239 -40.8239 -40.8239 -40.8239 -40.8238
   -40.8238 -40.8238 -40.8238 -40.8238 -40.8237 -40.8237 -40.8237 -40.8237
   -40.8237 -40.8237 -40.8237 -40.8236 -40.8236 -40.8235 -40.8235 -40.8233
   -40.8232 -40.8232 -40.8232 -40.8231 -40.8231 -40.8231 -40.8231 -40.8231
   -40.8231 -40.8230 -40.8230 -40.8230 -40.8230 -40.8229 -40.8229 -40.8229
   -40.8229 -40.8229 -40.8229 -40.8229 -40.8227 -40.8227 -40.8227 -40.8226
   -40.8226 -40.8221 -40.8219 -40.8219 -40.8218 -40.8218 -40.8216 -40.8214
   -40.8214 -40.8212 -40.8212 -40.8211 -40.8211 -40.8211 -40.8211 -40.8210
   -40.8210 -40.8209 -40.8209 -40.8203 -40.8200 -40.8200 -40.8188 -40.8188
   -40.8188 -40.8187 -40.8187 -40.8186 -40.8182 -40.8181 -40.8180 -40.8178
   -40.8176 -40.8176 -40.8176 -40.8176 -40.8176 -40.8176 -40.8175 -40.8175
   -40.8175 -40.8175 -40.8175 -40.8174 -40.8174 -40.8174 -40.8173 -40.8172
   -40.8172 -40.8172 -40.8172 -40.8172 -40.8171 -40.8171 -40.8171 -40.8171
   -40.8171 -40.8170 -40.8170 -40.8170 -40.8170 -40.8169 -40.8169 -40.8169
   -40.8169 -40.8169 -40.8168 -40.8168 -40.8167 -40.8167 -40.8166 -40.8165
   -40.8165 -40.8164 -40.8162 -40.8162 -40.8161 -40.8161 -40.8161 -40.8161
   -40.8160 -40.8160 -40.8159 -40.8159 -40.8158 -40.8158 -40.8158 -40.8158
   -40.8158 -40.8157 -40.8157 -40.8157 -40.8157 -40.8130 -40.8130 -40.8129
   -40.8129 -40.8128 -40.8128 -40.8126 -40.8125 -40.8125 -40.8125 -40.8124
   -40.8124 -40.8123 -40.8122 -40.8122 -40.8119 -40.8118 -40.8117 -40.8114
   -40.8114 -40.8113 -40.8113 -40.8113 -40.8112 -40.8108 -40.8107 -40.8107
   -40.8104 -40.8103 -40.8103 -13.0216 -13.0216 -13.0197 -13.0150 -13.0139
   -13.0139 -13.0126 -13.0115 -13.0115 -13.0115 -13.0087 -13.0087 -13.0068
   -13.0068 -13.0068 -13.0066 -13.0066 -13.0052 -13.0033 -13.0018 -13.0018
   -13.0013 -13.0002 -13.0002 -13.0001 -13.0001 -13.0000 -13.0000 -12.9999
   -12.9999 -12.9995 -12.9989 -12.9989 -12.9981 -12.9980 -12.9980 -12.9969
   -12.9969 -12.9964 -12.9964 -12.9964 -12.9963 -12.9963 -12.9961 -12.9961
   -12.9961 -12.9959 -12.9959 -12.9958 -12.9957 -12.9954 -12.9954 -12.9951
   -12.9945 -12.9940 -12.9940 -12.9936 -12.9934 -12.9933 -12.9930 -12.9927
   -12.9926 -12.9921 -12.9921 -12.9921 -12.9912 -12.9910 -12.9910 -12.9908
   -12.9898 -12.9892 -12.9892 -12.9887 -12.9887 -12.9886 -12.9885 -12.9884
   -12.9884 -12.9882 -12.9881 -12.9881 -12.9878 -12.9877 -12.9877 -12.9868
   -12.9868 -12.9867 -12.9867 -12.9865 -12.9865 -12.9865 -12.9865 -12.9861
   -12.9859 -12.9859 -12.9859 -12.9848 -12.9848 -12.9845 -12.9844 -12.9843
   -12.9838 -12.9838 -12.9835 -12.9834 -12.9832 -12.9832 -12.9832 -12.9831
   -12.9830 -12.9830 -12.9830 -12.9830 -12.9829 -12.9829 -12.9826 -12.9826
   -12.9826 -12.9819 -12.9815 -12.9815 -12.9814 -12.9814 -12.9814 -12.9813
   -12.9813 -12.9813 -12.9812 -12.9812 -12.9812 -12.9799 -12.9799 -12.9795
   -12.9791 -12.9791 -12.9788 -12.9788 -12.9788 -12.9786 -12.9786 -12.9784
   -12.9784 -12.9781 -12.9781 -12.9780 -12.9780 -12.9780 -12.9779 -12.9778
   -12.9778 -12.9777 -12.9776 -12.9775 -12.9775 -12.9775 -12.9774 -12.9774
   -12.9773 -12.9756 -12.9754 -12.9754 -12.9754 -12.9753 -12.9752 -12.9752
   -12.9751 -12.9745 -12.9740 -12.9739 -12.9739 -12.9738 -12.9738 -12.9730
   -12.9725 -12.9724 -12.9722 -12.9722 -12.9722 -12.9721 -12.9720 -12.9720
   -12.9717 -12.9717 -12.9709 -12.9707 -12.9706 -12.9706 -12.9701 -12.9701
   -12.9700 -12.9695 -12.9695 -12.9688 -12.9688 -12.9679 -12.9675 -12.9669
   -12.9668 -12.9664 -12.9664 -12.9663 -12.9648 -12.9648 -12.9640 -12.9622
   -12.9615 -12.9615 -12.9602 -12.9602 -12.9599 -12.9594 -12.9578 -12.9578
   -12.9573 -12.9573 -12.9571 -12.9556 -12.9556 -12.9555 -12.9555 -12.9549
   -12.9544 -12.9537 -12.9528 -12.9527 -12.9491 -12.9489 -12.9421 -12.9348
   -12.9333 -12.9331 -12.9262 -12.9223 -12.9222 -12.9212 -12.9202 -12.9201
   -12.9171 -12.9170 -12.9162  -8.1520  -8.0944  -8.0782  -7.9575  -7.9575
    -7.9538  -7.9537  -7.9532  -7.9483  -7.9085  -7.9085  -7.9068  -7.9040
    -7.9040  -7.9035  -7.9002  -7.9002  -7.8951  -7.8947  -7.8946  -7.8476
    -7.7196  -7.7080  -7.6958  -7.6957  -7.6930  -7.6929  -7.6926  -7.6891
    -7.6751  -7.6751  -7.6737  -7.6712  -7.6711  -7.6671  -7.6671  -7.6669
    -7.6668  -7.6635  -7.6634  -7.6593  -7.6556  -7.6556  -7.6535  -7.6503
    -7.6502  -7.6475  -7.6408  -7.6407  -7.6351  -7.6318  -7.6289  -7.6289
    -7.6283  -7.6263  -7.6263  -7.6240  -7.6202  -7.6202  -7.6162  -7.6161
    -7.6161  -7.5978  -7.5710  -7.5709  -7.5703  -7.5640  -7.5639  -7.5612
    -7.5588  -7.5587  -7.5571  -7.5571  -7.5560  -7.5540  -7.5540  -7.5532
    -7.5532  -7.5523  -7.5522  -7.5498  -7.5452  -7.5452  -7.5442  -7.5422
    -7.5422  -7.5411  -7.5366  -7.5365  -7.5239  -7.5220  -7.5219  -7.5194
    -7.5170  -7.5170  -3.7049  -3.7027  -3.7025  -3.6928  -3.6927  -3.6925
    -3.6900  -3.6900  -3.6894  -3.6893  -3.6882  -3.6868  -3.6864  -3.6788
    -3.6788  -3.6785  -3.6785  -3.6783  -3.6783  -3.6746  -3.6746  -3.6686
    -3.6686  -3.6674  -3.6631  -3.6003  -3.6002  -3.4499  -3.4442  -3.4442
    -3.4421  -3.4403  -3.4403  -3.4402  -3.4272  -3.4269  -3.4269  -3.4249
    -3.4249  -3.4220  -3.4115  -3.4115  -3.4106  -3.3798  -3.3797  -3.2597
    -3.2047  -3.1951   0.8630   0.8630   0.8631   0.8826   0.8891   0.8891
     1.0856   1.0896   1.0896   1.1477   1.1478   1.1479   1.1493   1.1493
     1.1529   1.1540   1.1562   1.1562   1.1698   1.1891   1.1892   1.3341
     1.3357   1.3359   1.3370   1.3510   1.3511   1.3992   1.3999   1.4000
     1.4010   1.4019   1.4019   1.4084   1.4084   1.4088   1.4089   1.4201
     1.4202   1.4321   1.4369   1.4369   1.4372   1.4372   1.4377   1.4408
     1.4424   1.4425   1.4577   1.4578   1.4587   1.4703   1.4710   1.4711
     1.5199   1.5199   1.5485   1.6814   1.6815   1.6933   1.7165   1.7219
     1.7220   1.7378   1.7379   1.7387   1.7959   1.7960   1.7972   1.7973
     1.7974   1.7993   1.8085   1.8090   1.8090   1.8222   1.8333   1.8333
     1.8664   1.8778   1.8779   1.9344   1.9393   1.9394   1.9514   1.9514
     1.9518   1.9521   1.9522   1.9620   1.9652   1.9719   1.9719   1.9783
     1.9850   1.9850   1.9865   1.9866   1.9886   1.9911   1.9917   1.9918
     2.0138   2.0374   2.0374   2.0733   2.0733   2.0750   2.0872   2.0953
     2.0954   2.1381   2.1398   2.1398   2.1506   2.1507   2.1782   2.1797
     2.1812   2.1813   2.1820   2.1963   2.1963   2.2101   2.2247   2.2277
     2.2279   2.2279   2.2349   2.2411   2.2411   2.2614   2.2636   2.2637
     2.2716   2.2716   2.2811   2.2846   2.2846   2.2851   2.2888   2.3727
     2.3728   2.4077   2.4259   2.4260   2.4898   2.4923   2.4923   2.4934
     2.4934   2.5085   2.5359   2.5374   2.5380   2.5380   2.5387   2.5387
     2.5393   2.5411   2.5412   2.5743   2.5855   2.5855   2.6062   2.6522
     2.6525   2.6692   2.6693   2.6859   2.6869   2.6870   2.6913   2.6914
     2.7038   2.7242   2.7249   2.7249   2.7274   2.7275   2.7346   2.7347
     2.7500   2.7509   2.7509   2.7616   2.7714   2.7779   2.7780   2.8062
     2.8068   2.8068   2.8096   2.8097   2.8108   2.8137   2.8137   2.8144
     2.8246   2.8246   2.8311   2.8356   2.8357   2.8380   2.8381   2.8448
     2.8503   2.8628   2.8628   2.8949   2.8980   2.8982   2.8982   2.8986
     2.8987   2.9019   2.9024   2.9024   2.9025   2.9038   2.9039   2.9045
     2.9061   2.9061   2.9076   2.9077   2.9108   2.9121   2.9121   2.9196
     2.9196   2.9205   2.9306   2.9306   2.9331   2.9335   2.9336   2.9456
     2.9493   2.9494   2.9575   2.9602   2.9603   2.9614   3.0653   3.0653
     3.0654   3.0772   3.0772   3.0776   3.1103   3.1103   3.1185   3.1246
     3.1246   3.1253   3.1419   3.1541   3.1541   3.2382   3.2382   3.2560
     3.2915   3.2915   3.2925   3.2926   3.2928   3.2955   3.2955   3.2963
     3.2963   3.2975   3.2975   3.2978   3.3042   3.3043   3.3043   3.3146
     3.3199   3.3200   3.3236   3.3237   3.3243   3.3277   3.3328   5.4926
     5.9180   5.9684   6.1130   6.4214   6.4254   6.4255   6.4291   6.4291
     6.4333   6.4366   6.4366   6.4476   6.4546   6.4546   6.4977   6.5218
     6.5219   6.5536   6.5537   6.5833   6.7285   6.7298   6.7298   6.7372
     6.7372   6.7390   6.7446   6.7479   6.7480   6.7547   6.7552   6.7632
     6.7633   6.7991   6.7993   6.8642   6.8643   6.8830   6.9426   6.9433
     6.9434   6.9461   6.9463   6.9463   6.9540   6.9551   6.9552   6.9882
     6.9882   7.0669   7.1043   7.1048   7.1050   7.1061   7.1063   7.1063
     7.1160   7.1224   7.1248   7.1248   7.1456   7.1456   7.1808   7.1835
     7.1837   7.1849   7.1921   7.1923   7.2233   7.2260   7.2261   7.2266
     7.2269   7.2270   7.2298   7.2310   7.2311   7.2344   7.2345   7.2351
     7.2369   7.2376   7.2377   7.2392   7.2393   7.2402   7.2415   7.2416
     7.2417   7.2446   7.2499   7.2501   7.2999   7.3063   7.3065   7.3347
     7.3372   7.3374   7.3469   7.3558   7.3559   7.3649   7.3669   7.3670
     7.3950   7.3951   7.4200   7.4208   7.4209   7.4215   7.4326   7.4339
     7.4340   7.4381   7.4416   7.4417   7.4616   7.4648   7.4651   7.4713
     7.4714   7.4772   7.5877   7.5877   7.5995   7.6213   7.6213   7.6244
     7.6271   7.6273   7.6305   7.6306   7.6309   7.6327   7.6371   7.6372
     7.6487   7.6502   7.6509   7.6509   7.9487   7.9506   7.9508   9.0915
     9.1319   9.1320   9.3927   9.5335   9.5337   9.5341   9.5584   9.5585
     9.5840   9.7664   9.7664   9.7676   9.7754   9.7761   9.7762   9.8099
     9.8151   9.8152   9.8284   9.8380   9.8381   9.9667  10.0014  10.0015
    10.0087  10.0190  10.0190  10.0337  10.1540  10.1540  10.1632  10.1764
    10.1765  10.1882  10.2360  10.2361  10.2458  10.2459  10.2459  10.2474
    10.2501  10.2501  10.2524  10.2579  10.2759  10.2778  10.2779  10.3318
    10.3440  10.3440  10.3441  10.3653  10.3653  10.3848  10.5989  10.5989
    10.6002  10.6053  10.6053  10.6911  10.6912  10.7125  10.7319  10.7336
    10.7336  10.7354  10.7355  10.7370  10.7413  10.7695  10.7696  10.8063
    10.8633  10.8634  10.8665  10.8983  10.8984  10.9067  10.9424  10.9723
    10.9724  10.9794  10.9794  10.9799  10.9843

     occupation numbers 
     1.0000   1.0000   1.0000   1.0000   1.0000   1.0000   1.0000   1.0000
     1.0000   1.0000   1.0000   1.0000   1.0000   1.0000   1.0000   1.0000
     1.0000   1.0000   1.0000   1.0000   1.0000   1.0000   1.0000   1.0000
     1.0000   1.0000   1.0000   1.0000   1.0000   1.0000   1.0000   1.0000
     1.0000   1.0000   1.0000   1.0000   1.0000   1.0000   1.0000   1.0000
     1.0000   1.0000   1.0000   1.0000   1.0000   1.0000   1.0000   1.0000
     1.0000   1.0000   1.0000   1.0000   1.0000   1.0000   1.0000   1.0000
     1.0000   1.0000   1.0000   1.0000   1.0000   1.0000   1.0000   1.0000
     1.0000   1.0000   1.0000   1.0000   1.0000   1.0000   1.0000   1.0000
     1.0000   1.0000   1.0000   1.0000   1.0000   1.0000   1.0000   1.0000
     1.0000   1.0000   1.0000   1.0000   1.0000   1.0000   1.0000   1.0000
     1.0000   1.0000   1.0000   1.0000   1.0000   1.0000   1.0000   1.0000
     1.0000   1.0000   1.0000   1.0000   1.0000   1.0000   1.0000   1.0000
     1.0000   1.0000   1.0000   1.0000   1.0000   1.0000   1.0000   1.0000
     1.0000   1.0000   1.0000   1.0000   1.0000   1.0000   1.0000   1.0000
     1.0000   1.0000   1.0000   1.0000   1.0000   1.0000   1.0000   1.0000
     1.0000   1.0000   1.0000   1.0000   1.0000   1.0000   1.0000   1.0000
     1.0000   1.0000   1.0000   1.0000   1.0000   1.0000   1.0000   1.0000
     1.0000   1.0000   1.0000   1.0000   1.0000   1.0000   1.0000   1.0000
     1.0000   1.0000   1.0000   1.0000   1.0000   1.0000   1.0000   1.0000
     1.0000   1.0000   1.0000   1.0000   1.0000   1.0000   1.0000   1.0000
     1.0000   1.0000   1.0000   1.0000   1.0000   1.0000   1.0000   1.0000
     1.0000   1.0000   1.0000   1.0000   1.0000   1.0000   1.0000   1.0000
     1.0000   1.0000   1.0000   1.0000   1.0000   1.0000   1.0000   1.0000
     1.0000   1.0000   1.0000   1.0000   1.0000   1.0000   1.0000   1.0000
     1.0000   1.0000   1.0000   1.0000   1.0000   1.0000   1.0000   1.0000
     1.0000   1.0000   1.0000   1.0000   1.0000   1.0000   1.0000   1.0000
     1.0000   1.0000   1.0000   1.0000   1.0000   1.0000   1.0000   1.0000
     1.0000   1.0000   1.0000   1.0000   1.0000   1.0000   1.0000   1.0000
     1.0000   1.0000   1.0000   1.0000   1.0000   1.0000   1.0000   1.0000
     1.0000   1.0000   1.0000   1.0000   1.0000   1.0000   1.0000   1.0000
     1.0000   1.0000   1.0000   1.0000   1.0000   1.0000   1.0000   1.0000
     1.0000   1.0000   1.0000   1.0000   1.0000   1.0000   1.0000   1.0000
     1.0000   1.0000   1.0000   1.0000   1.0000   1.0000   1.0000   1.0000
     1.0000   1.0000   1.0000   1.0000   1.0000   1.0000   1.0000   1.0000
     1.0000   1.0000   1.0000   1.0000   1.0000   1.0000   1.0000   1.0000
     1.0000   1.0000   1.0000   1.0000   1.0000   1.0000   1.0000   1.0000
     1.0000   1.0000   1.0000   1.0000   1.0000   1.0000   1.0000   1.0000
     1.0000   1.0000   1.0000   1.0000   1.0000   1.0000   1.0000   1.0000
     1.0000   1.0000   1.0000   1.0000   1.0000   1.0000   1.0000   1.0000
     1.0000   1.0000   1.0000   1.0000   1.0000   1.0000   1.0000   1.0000
     1.0000   1.0000   1.0000   1.0000   1.0000   1.0000   1.0000   1.0000
     1.0000   1.0000   1.0000   1.0000   1.0000   1.0000   1.0000   1.0000
     1.0000   1.0000   1.0000   1.0000   1.0000   1.0000   1.0000   1.0000
     1.0000   1.0000   1.0000   1.0000   1.0000   1.0000   1.0000   1.0000
     1.0000   1.0000   1.0000   1.0000   1.0000   1.0000   1.0000   1.0000
     1.0000   1.0000   1.0000   1.0000   1.0000   1.0000   1.0000   1.0000
     1.0000   1.0000   1.0000   1.0000   1.0000   1.0000   1.0000   1.0000
     1.0000   1.0000   1.0000   1.0000   1.0000   1.0000   1.0000   1.0000
     1.0000   1.0000   1.0000   1.0000   1.0000   1.0000   1.0000   1.0000
     1.0000   1.0000   1.0000   1.0000   1.0000   1.0000   1.0000   1.0000
     1.0000   1.0000   1.0000   1.0000   1.0000   1.0000   1.0000   1.0000
     1.0000   1.0000   1.0000   1.0000   1.0000   1.0000   1.0000   1.0000
     1.0000   1.0000   1.0000   1.0000   1.0000   1.0000   1.0000   1.0000
     1.0000   1.0000   1.0000   1.0000   1.0000   1.0000   1.0000   1.0000
     1.0000   1.0000   1.0000   1.0000   1.0000   1.0000   1.0000   1.0000
     1.0000   1.0000   1.0000   1.0000   1.0000   1.0000   1.0000   1.0000
     1.0000   1.0000   1.0000   1.0000   1.0000   1.0000   1.0000   1.0000
     1.0000   1.0000   1.0000   1.0000   1.0000   1.0000   1.0000   1.0000
     1.0000   1.0000   1.0000   1.0000   1.0000   1.0000   1.0000   1.0000
     1.0000   1.0000   1.0000   1.0000   1.0000   1.0000   1.0000   1.0000
     1.0000   1.0000   1.0000   1.0000   1.0000   1.0000   1.0000   1.0000
     1.0000   1.0000   1.0000   1.0000   1.0000   1.0000   1.0000   1.0000
     1.0000   1.0000   1.0000   1.0000   1.0000   1.0000   1.0000   1.0000
     1.0000   1.0000   1.0000   1.0000   1.0000   1.0000   1.0000   1.0000
     1.0000   1.0000   1.0000   1.0000   1.0000   1.0000   1.0000   1.0000
     1.0000   1.0000   1.0000   1.0000   1.0000   1.0000   1.0000   1.0000
     1.0000   1.0000   1.0000   1.0000   1.0000   1.0000   1.0000   1.0000
     1.0000   1.0000   1.0000   1.0000   1.0000   1.0000   1.0000   1.0000
     1.0000   1.0000   1.0000   1.0000   1.0000   1.0000   1.0000   1.0000
     1.0000   1.0000   1.0000   1.0000   1.0000   1.0000   1.0000   1.0000
     1.0000   1.0000   1.0000   1.0000   1.0000   1.0000   1.0000   1.0000
     1.0000   1.0000   1.0000   1.0000   1.0000   1.0000   1.0000   1.0000
     1.0000   1.0000   1.0000   1.0000   1.0000   1.0000   1.0000   1.0000
     1.0000   1.0000   1.0000   1.0000   1.0000   1.0000   1.0000   1.0000
     1.0000   1.0000   1.0000   1.0000   1.0000   1.0000   1.0000   1.0000
     1.0000   1.0000   1.0000   1.0000   1.0000   1.0000   1.0000   1.0000
     1.0000   1.0000   1.0000   1.0000   1.0000   1.0000   1.0000   1.0000
     1.0000   1.0000   1.0000   1.0000   1.0000   1.0000   1.0000   1.0000
     1.0000   1.0000   1.0000   1.0000   1.0000   1.0000   1.0000   1.0000
     1.0000   1.0000   1.0000   1.0000   1.0000   1.0000   1.0000   1.0000
     1.0000   1.0000   1.0000   1.0000   1.0000   1.0000   1.0000   1.0000
     1.0000   1.0000   1.0000   1.0000   1.0000   1.0000   1.0000   1.0000
     1.0000   1.0000   1.0000   1.0000   1.0000   1.0000   1.0000   1.0000
     1.0000   1.0000   1.0000   1.0000   1.0000   1.0000   1.0000   1.0000
     1.0000   1.0000   1.0000   1.0000   1.0000   1.0000   1.0000   1.0000
     1.0000   1.0000   1.0000   1.0000   1.0000   1.0000   1.0000   1.0000
     1.0000   1.0000   1.0000   1.0000   1.0000   1.0000   1.0000   1.0000
     1.0000   1.0000   1.0000   1.0000   1.0000   1.0000   1.0000   1.0000
     1.0000   1.0000   1.0000   1.0000   1.0000   1.0000   1.0000   1.0000
     1.0000   1.0000   1.0000   1.0000   1.0000   1.0000   1.0000   1.0000
     1.0000   1.0000   1.0000   1.0000   1.0000   1.0000   1.0000   1.0000
     1.0000   1.0000   1.0000   1.0000   1.0000   1.0000   1.0000   1.0000
     1.0000   1.0000   1.0000   1.0000   1.0000   1.0000   1.0000   1.0000
     1.0000   1.0000   1.0000   1.0000   1.0000   1.0000   1.0000   1.0000
     1.0000   1.0000   1.0000   1.0000   1.0000   1.0000   1.0000   1.0000
     1.0000   1.0000   1.0000   1.0000   1.0000   1.0000   1.0000   1.0000
     1.0000   1.0000   1.0000   1.0000   1.0000   1.0000   1.0000   1.0000
     1.0000   1.0000   1.0000   1.0000   1.0000   1.0000   1.0000   1.0000
     1.0000   1.0000   1.0000   1.0000   1.0000   1.0000   1.0000   1.0000
     1.0000   1.0000   1.0000   1.0000   1.0000   1.0000   1.0000   1.0000
     1.0000   1.0000   1.0000   1.0000   1.0000   1.0000   1.0000   1.0000
     1.0000   1.0000   1.0000   1.0000   1.0000   1.0000   1.0000   1.0000
     1.0000   1.0000   1.0000   1.0000   1.0000   1.0000   1.0000   1.0000
     1.0000   1.0000   1.0000   1.0000   1.0000   1.0000   1.0000   1.0000
     1.0000   1.0000   1.0000   1.0000   1.0000   1.0000   1.0000   1.0000
     1.0000   1.0000   1.0000   1.0000   1.0000   1.0000   1.0000   1.0000
     1.0000   1.0000   1.0000   1.0000   1.0000   1.0000   1.0000   1.0000
     1.0000   1.0000   1.0000   1.0000   1.0000   1.0000   1.0000   1.0000
     1.0000   1.0000   1.0000   1.0000   1.0000   1.0000   1.0000   1.0000
     1.0000   1.0000   1.0000   1.0000   1.0000   1.0000   1.0000   1.0000
     1.0000   1.0000   1.0000   1.0000   1.0000   1.0000   1.0000   1.0000
     1.0000   1.0000   1.0000   1.0000   1.0000   1.0000   1.0000   1.0000
     1.0000   1.0000   1.0000   1.0000   1.0000   1.0000   1.0000   1.0000
     1.0000   1.0000   1.0000   1.0000   1.0000   1.0000   1.0000   1.0000
     1.0000   1.0000   1.0000   1.0000   1.0000   1.0000   1.0000   1.0000
     1.0000   1.0000   1.0000   1.0000   1.0000   1.0000   1.0000   1.0000
     1.0000   1.0000   1.0000   1.0000   1.0000   1.0000   1.0000   1.0000
     1.0000   1.0000   1.0000   1.0000   1.0000   1.0000   1.0000   1.0000
     1.0000   1.0000   1.0000   1.0000   1.0000   1.0000   1.0000   1.0000
     1.0000   1.0000   1.0000   1.0000   1.0000   1.0000   1.0000   1.0000
     1.0000   1.0000   1.0000   1.0000   1.0000   1.0000   1.0000   1.0000
     1.0000   1.0000   1.0000   1.0000   1.0000   1.0000   1.0000   1.0000
     1.0000   1.0000   1.0000   1.0000   1.0000   1.0000   1.0000   1.0000
     1.0000   1.0000   1.0000   1.0000   1.0000   1.0000   1.0000   1.0000
     1.0000   1.0000   1.0000   1.0000   1.0000   1.0000   1.0000   1.0000
     1.0000   1.0000   1.0000   1.0000   1.0000   1.0000   1.0000   1.0000
     1.0000   1.0000   1.0000   1.0000   1.0000   1.0000   1.0000   1.0000
     1.0000   1.0000   1.0000   1.0000   1.0000   1.0000   1.0000   1.0000
     1.0000   1.0000   1.0000   1.0000   1.0000   1.0000   1.0000   1.0000
     1.0000   1.0000   1.0000   1.0000   1.0000   1.0000   1.0000   1.0000
     1.0000   1.0000   1.0000   1.0000   1.0000   1.0000   1.0000   1.0000
     1.0000   1.0000   1.0000   1.0000   1.0000   1.0000   1.0000   1.0000
     1.0000   1.0000   1.0000   1.0000   1.0000   1.0000   1.0000   1.0000
     1.0000   1.0000   1.0000   1.0000   1.0000   1.0000   1.0000   1.0000
     1.0000   1.0000   1.0000   1.0000   1.0000   1.0000   1.0000   1.0000
     1.0000   1.0000   1.0000   1.0000   1.0000   1.0000   1.0000   1.0000
     1.0000   1.0000   1.0000   1.0000   1.0000   1.0000   1.0000   1.0000
     1.0000   1.0000   1.0000   1.0000   1.0000   1.0000   1.0000   1.0000
     1.0000   1.0000   1.0000   1.0000   1.0000   1.0000   1.0000   1.0000
     1.0000   1.0000   1.0000   1.0000   1.0000   1.0000   1.0000   1.0000
     1.0000   1.0000   1.0000   1.0000   1.0000   1.0000   1.0000   1.0000
     1.0000   1.0000   1.0000   1.0000   1.0000   1.0000   1.0000   0.5000
     0.0000   0.0000   0.0000   0.0000   0.0000   0.0000   0.0000   0.0000
     0.0000   0.0000   0.0000   0.0000   0.0000   0.0000   0.0000   0.0000
     0.0000   0.0000   0.0000   0.0000   0.0000   0.0000   0.0000   0.0000
     0.0000   0.0000   0.0000   0.0000   0.0000   0.0000   0.0000   0.0000
     0.0000   0.0000   0.0000   0.0000   0.0000   0.0000   0.0000   0.0000
     0.0000   0.0000   0.0000   0.0000   0.0000   0.0000   0.0000   0.0000
     0.0000   0.0000   0.0000   0.0000   0.0000   0.0000   0.0000   0.0000
     0.0000   0.0000   0.0000   0.0000   0.0000   0.0000   0.0000   0.0000
     0.0000   0.0000   0.0000   0.0000   0.0000   0.0000   0.0000   0.0000
     0.0000   0.0000   0.0000   0.0000   0.0000   0.0000   0.0000   0.0000
     0.0000   0.0000   0.0000   0.0000   0.0000   0.0000   0.0000   0.0000
     0.0000   0.0000   0.0000   0.0000   0.0000   0.0000   0.0000   0.0000
     0.0000   0.0000   0.0000   0.0000   0.0000   0.0000   0.0000   0.0000
     0.0000   0.0000   0.0000   0.0000   0.0000   0.0000   0.0000   0.0000
     0.0000   0.0000   0.0000   0.0000   0.0000   0.0000   0.0000   0.0000
     0.0000   0.0000   0.0000   0.0000   0.0000   0.0000   0.0000   0.0000
     0.0000   0.0000   0.0000   0.0000   0.0000   0.0000   0.0000   0.0000
     0.0000   0.0000   0.0000   0.0000   0.0000   0.0000   0.0000   0.0000
     0.0000   0.0000   0.0000   0.0000   0.0000   0.0000   0.0000   0.0000
     0.0000   0.0000   0.0000   0.0000   0.0000   0.0000   0.0000   0.0000
     0.0000   0.0000   0.0000   0.0000   0.0000   0.0000   0.0000   0.0000
     0.0000   0.0000   0.0000   0.0000   0.0000   0.0000   0.0000   0.0000
     0.0000   0.0000   0.0000   0.0000   0.0000   0.0000   0.0000   0.0000
     0.0000   0.0000   0.0000   0.0000   0.0000   0.0000   0.0000   0.0000
     0.0000   0.0000   0.0000   0.0000   0.0000   0.0000   0.0000   0.0000
     0.0000   0.0000   0.0000   0.0000   0.0000   0.0000   0.0000   0.0000
     0.0000   0.0000   0.0000   0.0000   0.0000   0.0000   0.0000   0.0000
     0.0000   0.0000   0.0000   0.0000   0.0000   0.0000   0.0000   0.0000
     0.0000   0.0000   0.0000   0.0000   0.0000

     the Fermi energy is     5.4926 ev

!    total energy              =  -96570.62562788 Ry
     total all-electron energy =  -3359210.185869 Ry
     estimated scf accuracy    <       0.00000008 Ry
     smearing contrib. (-TS)   =      -0.00564225 Ry
     internal energy E=F+TS    =  -96570.61998564 Ry

     The total energy is F=E-TS. E is the sum of the following terms:
     one-electron contribution =  -17883.48872846 Ry
     hartree contribution      =    9981.88206239 Ry
     xc contribution           =   -6750.64206856 Ry
     ewald contribution        =  -14634.01927771 Ry
     one-center paw contrib.   =  -67284.35197330 Ry
      -> PAW hartree energy AE =      95.89203671 Ry
      -> PAW hartree energy PS =     -96.12855482 Ry
      -> PAW xc energy AE      =    -798.42908048 Ry
      -> PAW xc energy PS      =      33.30905078 Ry
      -> total E_H with PAW    =    9981.64554428 Ry
      -> total E_XC with PAW   =   -7515.76209825 Ry

     convergence has been achieved in  16 iterations


     -----------------------------------------------
     Non-local corr. energy    =      68.48157881 Ry
     -----------------------------------------------


     Forces acting on atoms (cartesian axes, Ry/au):

     atom    1 type  1   force =    -0.00000725    0.00044074   -0.00042358
     atom    2 type  1   force =    -0.00000462   -0.00734147    0.00090711
     atom    3 type  1   force =    -0.00000123   -0.00001785   -0.00004013
     atom    4 type  1   force =     0.00001061    0.00016489    0.00003467
     atom    5 type  1   force =    -0.00026624    0.00073561    0.00005632
     atom    6 type  1   force =     0.00002075    0.00004074   -0.00002515
     atom    7 type  1   force =     0.00014700   -0.00007067    0.00003716
     atom    8 type  1   force =     0.00051228   -0.00061419    0.00005415
     atom    9 type  1   force =     0.00005272   -0.00001476   -0.00001852
     atom   10 type  1   force =     0.00037330   -0.00021336   -0.00041517
     atom   11 type  1   force =    -0.00636772    0.00367334    0.00091239
     atom   12 type  1   force =    -0.00001764    0.00000906   -0.00002707
     atom   13 type  1   force =     0.00064578    0.00038044   -0.00026973
     atom   14 type  1   force =     0.00006177    0.00003996    0.00025871
     atom   15 type  1   force =     0.00002852    0.00001802    0.00000116
     atom   16 type  1   force =    -0.00001935    0.00016597    0.00004214
     atom   17 type  1   force =     0.00026939    0.00074188    0.00006521
     atom   18 type  1   force =    -0.00001657    0.00004314   -0.00001811
     atom   19 type  1   force =    -0.00000285   -0.00000032    0.00005711
     atom   20 type  1   force =     0.00000994   -0.00000542    0.00023958
     atom   21 type  1   force =     0.00000289   -0.00000476    0.00013836
     atom   22 type  1   force =     0.00013455   -0.00009127    0.00005902
     atom   23 type  1   force =     0.00078720   -0.00014000    0.00007434
     atom   24 type  1   force =     0.00003880   -0.00004062    0.00000194
     atom   25 type  1   force =    -0.00000124   -0.00004814    0.00010536
     atom   26 type  1   force =     0.00000789   -0.00006111    0.00000457
     atom   27 type  1   force =     0.00000499   -0.00002364   -0.00002579
     atom   28 type  1   force =    -0.00004829    0.00002648    0.00009704
     atom   29 type  1   force =    -0.00005100    0.00002791    0.00000057
     atom   30 type  1   force =    -0.00001878    0.00000805   -0.00003513
     atom   31 type  1   force =    -0.00015484   -0.00006926    0.00004207
     atom   32 type  1   force =    -0.00050833   -0.00060453    0.00006530
     atom   33 type  1   force =    -0.00004778   -0.00001004   -0.00001904
     atom   34 type  1   force =    -0.00013807   -0.00009073    0.00005712
     atom   35 type  1   force =    -0.00076664   -0.00013955    0.00007816
     atom   36 type  1   force =    -0.00002474   -0.00004034   -0.00000476
     atom   37 type  1   force =    -0.00065602    0.00037992   -0.00028286
     atom   38 type  1   force =    -0.00005921    0.00002883    0.00024653
     atom   39 type  1   force =    -0.00002796    0.00001456   -0.00001537
     atom   40 type  1   force =     0.00004019    0.00002529    0.00008522
     atom   41 type  1   force =     0.00005283    0.00002274   -0.00001458
     atom   42 type  1   force =     0.00001999    0.00000579   -0.00004643
     atom   43 type  1   force =    -0.00000692   -0.00075082   -0.00028964
     atom   44 type  1   force =    -0.00000898   -0.00007379    0.00023909
     atom   45 type  1   force =    -0.00000377   -0.00003651   -0.00001814
     atom   46 type  1   force =    -0.00038483   -0.00021239   -0.00042191
     atom   47 type  1   force =     0.00634868    0.00366844    0.00090769
     atom   48 type  1   force =     0.00001308    0.00000825   -0.00004052
     atom   49 type  2   force =    -0.00003849    0.00001190    0.00123196
     atom   50 type  2   force =    -0.00003773    0.00001312    0.00161850
     atom   51 type  2   force =     0.00076012   -0.00058060    0.00179808
     atom   52 type  2   force =    -0.00001909   -0.00002010    0.00120390
     atom   53 type  2   force =     0.00003157   -0.00014985    0.00168088
     atom   54 type  2   force =     0.00010061    0.00003686    0.00160715
     atom   55 type  2   force =    -0.00002664   -0.00003738    0.00126261
     atom   56 type  2   force =    -0.00004208   -0.00001916    0.00161028
     atom   57 type  2   force =    -0.00013098    0.00092917    0.00176879
     atom   58 type  2   force =    -0.00004261   -0.00000768    0.00121465
     atom   59 type  2   force =    -0.00013576    0.00013732    0.00167886
     atom   60 type  2   force =    -0.00087891   -0.00037045    0.00173824
     atom   61 type  2   force =    -0.00000608    0.00003703    0.00119406
     atom   62 type  2   force =    -0.00017184    0.00004934    0.00164551
     atom   63 type  2   force =    -0.00079283   -0.00054922    0.00178239
     atom   64 type  2   force =     0.00000182    0.00000942    0.00119995
     atom   65 type  2   force =    -0.00007278   -0.00013262    0.00166280
     atom   66 type  2   force =     0.00000551   -0.00007205    0.00141523
     atom   67 type  2   force =     0.00001421   -0.00003355    0.00120551
     atom   68 type  2   force =    -0.00000803   -0.00004697    0.00159828
     atom   69 type  2   force =    -0.00002989    0.00001969    0.00139454
     atom   70 type  2   force =    -0.00000460    0.00001217    0.00121748
     atom   71 type  2   force =    -0.00005036    0.00004313    0.00159926
     atom   72 type  2   force =     0.00003244   -0.00011977    0.00157812
     atom   73 type  2   force =     0.00002167    0.00003381    0.00122799
     atom   74 type  2   force =     0.00000085    0.00005373    0.00158921
     atom   75 type  2   force =     0.00003344    0.00002934    0.00134249
     atom   76 type  2   force =     0.00001160    0.00002285    0.00125054
     atom   77 type  2   force =    -0.00021919   -0.00010577    0.00166281
     atom   78 type  2   force =    -0.00010433    0.00008119    0.00161251
     atom   79 type  2   force =     0.00001613   -0.00000253    0.00123651
     atom   80 type  2   force =     0.00001492    0.00000530    0.00159680
     atom   81 type  2   force =     0.00008339    0.00004305    0.00141720
     atom   82 type  2   force =     0.00004615    0.00002133    0.00120859
[...]
     atom  123 type  2   force =     0.00000039   -0.00000026   -0.00000117
     atom  124 type  2   force =    -0.00000767   -0.00000996    0.00000685
     atom  125 type  2   force =     0.00000219   -0.00000967   -0.00000205
     atom  126 type  2   force =    -0.00000465    0.00000264    0.00001230
     atom  127 type  2   force =    -0.00000640    0.00000376    0.00000644
     atom  128 type  2   force =     0.00001249   -0.00000712   -0.00001077
     atom  129 type  2   force =     0.00000081   -0.00000547    0.00001235
     atom  130 type  2   force =     0.00000122   -0.00000790    0.00000643
     atom  131 type  2   force =     0.00000076    0.00001413   -0.00001056
     atom  132 type  2   force =     0.00000071    0.00000089   -0.00000100
     atom  133 type  2   force =     0.00001394   -0.00000107    0.00000646
     atom  134 type  2   force =     0.00000802    0.00000691   -0.00000207
     atom  135 type  2   force =     0.00000020   -0.00000018   -0.00000591
     atom  136 type  2   force =     0.00000001   -0.00000008    0.00000403
     atom  137 type  2   force =    -0.00000008    0.00000007    0.00000174
     atom  138 type  2   force =     0.00000037   -0.00000018   -0.00000118
     atom  139 type  2   force =     0.00000489    0.00001182    0.00000681
     atom  140 type  2   force =     0.00000954    0.00000293   -0.00000215
     atom  141 type  2   force =    -0.00000007    0.00000019    0.00000832
     atom  142 type  2   force =    -0.00000587   -0.00000356    0.00001679
     atom  143 type  2   force =     0.00002041    0.00001178   -0.00001356

     Total force =     0.006734     Total SCF correction =     0.000179


     Computing stress (Cartesian axis) and pressure



     -----------------------------------------------
     Non-local corr. energy    =      68.47794209 Ry
     -----------------------------------------------

          total   stress  (Ry/bohr**3)                   (kbar)     P=        1.13
   0.00000616   0.00000001  -0.00000002            0.91        0.00       -0.00
   0.00000001   0.00000617   0.00000002            0.00        0.91        0.00
  -0.00000002   0.00000002   0.00001066           -0.00        0.00        1.57

     kinetic stress (kbar)  14903.02     -0.00     -0.00
                               -0.00  14903.02      0.00
                               -0.00      0.00  14914.89

     local   stress (kbar)  -7754.17     -0.21      0.23
                               -0.21  -7754.57     -0.18
                                0.23     -0.18   1600.28

     nonloc. stress (kbar)  -1089.32      0.00     -0.00
                                0.00  -1089.32      0.00
                               -0.00      0.00  -1094.89

     hartree stress (kbar)  12077.56      0.07     -0.09
                                0.07  12077.71      0.07
                               -0.09      0.07   7860.81

     exc-cor stress (kbar)   6890.29      0.00     -0.00
                                0.00   6890.29      0.00
                               -0.00      0.00   6889.04

     corecor stress (kbar) -11220.01     -0.00      0.00
                               -0.00 -11220.01     -0.00
                                0.00     -0.00 -11219.94

     ewald   stress (kbar) -13889.03      0.13     -0.14
                                0.13 -13888.78      0.11
                               -0.14      0.11 -19032.61

     hubbard stress (kbar)      0.00      0.00      0.00
                                0.00      0.00      0.00
                                0.00      0.00      0.00

     DFT-D   stress (kbar)      0.00      0.00      0.00
                                0.00      0.00      0.00
                                0.00      0.00      0.00

     XDM     stress (kbar)      0.00      0.00      0.00
                                0.00      0.00      0.00
                                0.00      0.00      0.00

     dft-nl  stress (kbar)     82.58     -0.00      0.00
                               -0.00     82.58     -0.00
                                0.00     -0.00     83.98

     TS-vdW  stress (kbar)      0.00      0.00      0.00
                                0.00      0.00      0.00
                                0.00      0.00      0.00

     MDB     stress (kbar)      0.00      0.00      0.00
                                0.00      0.00      0.00
                                0.00      0.00      0.00

     3D-RISM stress (kbar)      0.00      0.00      0.00
                                0.00      0.00      0.00
                                0.00      0.00      0.00

     Energy error            =      1.2E-04 Ry
     Gradient error          =      1.5E-03 Ry/Bohr

     number of scf cycles    =  16
     number of bfgs steps    =  15

     energy             old  =  -96570.6326638334 Ry
     energy             new  =  -96570.6327869560 Ry

     CASE: energy            _new < energy            _old

     new trust radius        =       0.0136112832 bohr
     new conv_thr            =       0.0000000012 Ry


ATOMIC_POSITIONS (angstrom)
Pb            2.3556533764        4.0737543805       22.1421097922
Pb            2.3556462453        3.8820812743        7.3529791922
Pb            2.3557098609        4.0805180904       14.7561986909
Pb            0.0009500232        8.1600432380       22.1326747554
Pb            0.0072194469        8.1475274049        7.3738795300
Pb            0.0006091403        8.1596399022       14.7541396595
Pb           -2.3548010790       12.2403012482       22.1325773482
Pb           -2.3624697870       12.2520218049        7.3738382824
Pb           -2.3552882320       12.2401028128       14.7541539924
Pb           -4.7163558146       16.3228653678       22.1420165575
Pb           -4.8823921640       16.4187223040        7.3531247768
Pb           -4.7104633372       16.3194372242       14.7562174311
Pb            7.0632691169        4.0775236787       22.1410879831
Pb            7.0752816952        4.0845476343        7.3571613707
Pb            7.0675528423        4.0799882808       14.7557127717
Pb            4.7105434956        8.1601422939       22.1326980423
Pb            4.7042079015        8.1477116601        7.3739924855
Pb            4.7110363498        8.1597649949       14.7541545387
Pb            2.3558289269       12.2398160425       22.1343483234
Pb            2.3558836461       12.2398260361        7.3775102029
Pb            2.3559073815       12.2397537513       14.7542062470
Pb            0.0001063692       16.3190055486       22.1326245319
Pb           -0.0138670416       16.3197916152        7.3738799433
Pb            0.0000498701       16.3195240765       14.7541491740
Pb           11.7784025183        4.0758127813       22.1364453474
Pb           11.7784223360        4.0707096235        7.3852619687
Pb           11.7784138609        4.0796000953       14.7558150773
Pb            9.4193526203        8.1617037493       22.1364331581
Pb            9.4148607349        8.1643114255        7.3853368498
Pb            9.4226638254        8.1597562743       14.7558143949
Pb            7.0663093069       12.2404123957       22.1326960141
Pb            7.0739016771       12.2521197242        7.3739450508
Pb            7.0668551794       12.2401692702       14.7541257792
Pb            4.7115991739       16.3190045434       22.1327126031
Pb            4.7255787813       16.3198422138        7.3738812890
Pb            4.7117584690       16.3194822177       14.7541053358
Pb           16.4933594669        4.0774464585       22.1411513118
Pb           16.4813098934        4.0843796979        7.3571090941
Pb           16.4891428868        4.0798411237       14.7556582236
Pb           14.1372913929        8.1616175028       22.1364069238
Pb           14.1416779313        8.1641553981        7.3852200365
Pb           14.1339431257        8.1596461821       14.7558320709
Pb           11.7782200837       12.2441533589       22.1410473367
Pb           11.7781167545       12.2302742973        7.3570915370
Pb           11.7781958505       12.2392149388       14.7556747633
Pb            9.4276885248       16.3228701581       22.1421017092
Pb            9.5936428306       16.4186994840        7.3528996920
Pb            9.4218351122       16.3194070856       14.7561747728
I             2.3556332946        1.3597334133       12.8728318370
I             2.3556007504        1.3597591420       20.2508404204
I             0.0227882982        5.4030193062        5.5118834566
I             0.0007949726        5.4404534071       12.8677699386
I            -0.0018544202        5.4368391679       20.2540453541
I            -2.3601020877        9.5171139684        5.4869951524
I            -2.3557628493        9.5196706679       12.8699184819
I            -2.3564065080        9.5192799046       20.2494556715
I            -4.7316308047       13.6378825876        5.5120995322
I            -4.7102657020       13.6001925249       12.8678882752
I            -4.7146999851       13.5997586512       20.2540849823
I             7.0238871737        1.3584013329        5.5121661481
I             7.0672578359        1.3587841080       12.8679509676
I             7.0654362115        1.3628681131       20.2541422892
I             4.6885985011        5.4032161774        5.5120749311
I             4.7106471058        5.4405371225       12.8678934372
I             4.7132311404        5.4369110241       20.2541568175
I             2.3557613550        9.5212273528        5.4879785097
I             2.3557842826        9.5165612712       12.8653371769
I             2.3557508157        9.5196971784       20.2490375918
I             0.0013867098       13.5992583101        5.4880564905
I            -0.0026613695       13.6015719053       12.8654765024
I             0.0000229051       13.6000478208       20.2490745800
I            11.7783891951        1.3649787736        5.4870945877
I            11.7783348768        1.3599625980       12.8699468514
I            11.7783417645        1.3607661054       20.2495832757
I             9.4158542794        5.4358957023        5.4894314500
I             9.4227586819        5.4398456706       12.8699780992
I             9.4129860468        5.4341866238       20.2561850946
I             7.0714941248        9.5172982921        5.4870969646
I             7.0672122232        9.5197597337       12.8698883228
I             7.0678562815        9.5193926544       20.2495892889
I             4.7102359344       13.5993241631        5.4879769419
I             4.7142783047       13.6015952386       12.8653613656
I             4.7115425188       13.6000773803       20.2490902178
I            16.5326058141        1.3583532622        5.5117808153
I            16.4892712055        1.3587289038       12.8676991282
I            16.4910495127        1.3628400582       20.2540211398
I            14.1407324875        5.4357857904        5.4892160769
I            14.1338373830        5.4397899873       12.8698474385
I            14.1436242727        5.4341176069       20.2560625463
I            11.7781826878        9.5276875753        5.4892771548
I            11.7782391340        9.5197338248       12.8698403962
I            11.7782469176        9.5309911801       20.2560306912
I             9.4428142427       13.6379020945        5.5119019646
I             9.4215921503       13.6002145038       12.8677535685
I             9.4260089224       13.5997909461       20.2540595442
I             0.0210308615        2.7075488254        1.9096774282
I             0.0062395109        2.7161146027        9.3055957299
I             0.0001219414        2.7196318269       16.6421761691
I            -2.3551917639        6.8000860432        1.8858218503
I            -2.3573077172        6.8008228258        9.2627639101
I            -2.3552315875        6.7995645880       16.6422219113
I            -4.7106739618       10.8798516391        1.8856940603
I            -4.7112149681       10.8778496374        9.2625826458
I            -4.7112159747       10.8801573930       16.6421613431
I            -7.0667729717       14.9838297555        1.9095185449
I            -7.0668816145       14.9671059130        9.3055600590
I            -7.0668518043       14.9599562191       16.6421486073
I             4.6905411220        2.7076020843        1.9094887415
I             4.7051063628        2.7161464899        9.3055715628
I             4.7112930548        2.7196799751       16.6421438459
I             2.3557533042        6.8022117711        1.8835134546
I             2.3556694764        6.6919654439        9.1782260406
I             2.3557334244        6.7994605261       16.6426553870
I             0.0004704819       10.8799964675        1.8833719524
I            -0.0006129526       10.8794330949        9.2601398657
I             0.0006787188       10.8801553021       16.6420146778
I            -2.3533805251       14.9586380412        1.8833604512
I            -2.4485770602       15.0135623411        9.1781294111
I            -2.3558403496       14.9601044850       16.6425351041
I             9.4229049401        2.7192625728        1.8858078534
I             9.4244259922        2.7207642666        9.2627228499
I             9.4223935303        2.7195702404       16.6422763642
I             7.0668199194        6.8001451224        1.8858539329
I             7.0687231355        6.8009318068        9.2628953236
I             7.0667562218        6.7996713549       16.6423564749
I             4.7111128149       10.8800490772        1.8835090870
I             4.7120818378       10.8795310264        9.2604634366
I             4.7108742410       10.8802028058       16.6421747431
I             2.3558475260       14.9595148975        1.8834961006
I             2.3558247109       14.9608349500        9.2602960352
I             2.3558278294       14.9592970454       16.6421178955
I            14.1338706739        2.7192612450        1.8858814206
I            14.1321801866        2.7207503166        9.2628489668
I            14.1342752291        2.7195333415       16.6422816492
I            11.7783901136        6.7998022654        1.8840362889
I            11.7782696307        6.7998537635        9.2634490271
I            11.7782804049        6.7997959561       16.6441639106
I             9.4222943420       10.8799081833        1.8858219612
I             9.4225590939       10.8779119634        9.2628443753
I             9.4226510450       10.8802000814       16.6423027357
I             7.0649762444       14.9586903214        1.8835850129
I             7.1604741449       15.0138712617        9.1782786363
I             7.0673296643       14.9601070346       16.6427137621



     Writing config-only to output data dir ./PbI2.save/
     NEW-OLD atomic charge density approx. for the potential

     Check: negative core charge=   -0.000001


     -----------------------------------------------
     Non-local corr. energy    =      68.47868920 Ry
     -----------------------------------------------


     total cpu time spent up to now is   154686.3 secs

     Self-consistent Calculation

     iteration #  1     ecut=    70.00 Ry     beta= 0.70
     Davidson diagonalization with overlap

---- Real-time Memory Report at c_bands before calling an iterative solver
          2156 MiB given to the printing process from OS
             0 MiB allocation reported by mallinfo(arena+hblkhd)
       1531519 MiB available memory on the node where the printing process lives
------------------

     Maximum CPU time exceeded

     max_seconds     =  154800.00
     elapsed seconds =  154953.51
     Calculation stopped in k-point loop, point #     1
     Calculation stopped in scf loop at iteration #     0

     Writing config to output data dir ./PbI2.save/
     Message from routine punch:
     wavefunctions written to file
 
     init_run     :     31.95s CPU     32.88s WALL (       1 calls)
     electrons    : 150021.84s CPU 151742.66s WALL (      17 calls)
     update_pot   :     29.18s CPU     29.57s WALL (      16 calls)
     forces       :    200.59s CPU    208.90s WALL (      16 calls)
     stress       :   2861.48s CPU   2893.04s WALL (      16 calls)

     Called by init_run:
     wfcinit      :     26.06s CPU     26.71s WALL (       1 calls)
     wfcinit:atom :      0.04s CPU      0.07s WALL (       1 calls)
     wfcinit:wfcr :     25.93s CPU     26.41s WALL (       1 calls)
     potinit      :      1.49s CPU      1.56s WALL (       1 calls)
     hinit0       :      0.43s CPU      0.45s WALL (       1 calls)

     Called by electrons:
     c_bands      : 147462.14s CPU 149115.57s WALL (     196 calls)
     sum_band     :   2156.18s CPU   2205.93s WALL (     195 calls)
     v_of_rho     :    166.32s CPU    167.79s WALL (     197 calls)
     v_h          :      3.02s CPU      3.04s WALL (     197 calls)
     v_xc         :    193.20s CPU    194.98s WALL (     229 calls)
     newd         :     51.29s CPU     65.88s WALL (     197 calls)
     PAW_pot      :     61.61s CPU     62.21s WALL (     213 calls)
     mix_rho      :      7.75s CPU      7.90s WALL (     195 calls)
     vdW_kernel   :      0.15s CPU      0.15s WALL (       1 calls)

     Called by c_bands:
     init_us_2    :     32.82s CPU     33.46s WALL (     408 calls)
     init_us_2:cp :     32.82s CPU     33.46s WALL (     408 calls)
     cegterg      : 147402.09s CPU 149034.72s WALL (     196 calls)

     Called by sum_band:
     sum_band:wei :      0.20s CPU      0.22s WALL (     195 calls)
     sum_band:loo :   2094.96s CPU   2116.70s WALL (     195 calls)
     sum_band:buf :      0.00s CPU      0.00s WALL (     195 calls)
     sum_band:ini :     15.70s CPU     16.05s WALL (     195 calls)
     sum_band:cal :    439.92s CPU    443.62s WALL (     211 calls)
     sum_band:bec :      7.35s CPU      7.45s WALL (     211 calls)
     addusdens    :     50.93s CPU     69.55s WALL (     195 calls)
     addusd:skk   :      6.90s CPU      7.37s WALL (     390 calls)
     addusd:dgemm :     26.93s CPU     44.72s WALL (     390 calls)
     addusd:qvan2 :     16.01s CPU     16.19s WALL (     390 calls)

     Called by *egterg:
     cdiaghg      : 128464.30s CPU 129333.40s WALL (    3706 calls)
     cegterg:over :   2484.20s CPU   2597.08s WALL (    3541 calls)
     cegterg:upda :   1424.26s CPU   1448.26s WALL (    3541 calls)
     cegterg:last :    567.79s CPU    572.21s WALL (     198 calls)
     h_psi        :  12611.53s CPU  12756.72s WALL (    3738 calls)
     s_psi        :   1136.07s CPU   1165.07s WALL (    3738 calls)
     g_psi        :      4.69s CPU      4.77s WALL (    3541 calls)

     Called by h_psi:
     h_psi:calbec :   1319.19s CPU   1332.86s WALL (    3738 calls)
     vloc_psi     :  10131.85s CPU  10217.13s WALL (    3738 calls)
     vloc_psi:tg_ :      1.09s CPU      1.19s WALL (    3738 calls)
     add_vuspsi   :   1141.06s CPU   1172.10s WALL (    3738 calls)

     General routines
     calbec       :   1938.34s CPU   1958.33s WALL (    4029 calls)
     fft          :    191.83s CPU    193.51s WALL (   15114 calls)
     ffts         :      5.01s CPU      5.10s WALL (     392 calls)
     fftw         :  11637.69s CPU  11738.16s WALL ( 1833881 calls)
     interpolate  :      5.50s CPU      5.57s WALL (     197 calls)
     davcio       :      0.00s CPU      0.02s WALL (       1 calls)
 
     Parallel routines
     fft_scatt_xy :    189.01s CPU    191.29s WALL ( 1849387 calls)
     fft_scatt_yz :  10589.43s CPU  10674.34s WALL ( 1849387 calls)
     fft_scatt_tg :     12.09s CPU     12.39s WALL ( 1833881 calls)

     PAW routines
     PAW_pot      :     61.61s CPU     62.21s WALL (     213 calls)
 
     PWSCF        :   1d18h33m CPU   1d19h 2m WALL

 
   This run was terminated on:   5:38:19  10Mar2024            

=------------------------------------------------------------------------------=
   JOB DONE.
=------------------------------------------------------------------------------=
