
     Program PWSCF v.7.2 starts on 27Mar2024 at 22:22: 5 

     This program is part of the open-source Quantum ESPRESSO suite
     for quantum simulation of materials; please cite
         "P. Giannozzi et al., J. Phys.:Condens. Matter 21 395502 (2009);
         "P. Giannozzi et al., J. Phys.:Condens. Matter 29 465901 (2017);
         "P. Giannozzi et al., J. Chem. Phys. 152 154105 (2020);
          URL http://www.quantum-espresso.org", 
     in publications or presentations arising from this work. More details at
     http://www.quantum-espresso.org/quote

     Parallel version (MPI & OpenMP), running on      10 processor cores
     Number of MPI processes:                10
     Threads/MPI process:                     1

     MPI processes distributed on     2 nodes
     1969056 MiB available memory on the printing compute node when the environment starts
 
     Reading input from espresso.pwi
Warning: card &CELL ignored
Warning: card    CELL_DYNAMICS    = 'BFGS' ignored
Warning: card / ignored

     Current dimensions of program PWSCF are:
     Max number of different atomic species (ntypx) = 10
     Max number of k-points (npk) =  40000
     Max angular momentum in pseudopotentials (lmaxx) =  4
     file C.pbe-n-kjpaw_psl.1.0.0.UPF: wavefunction(s)  2S 2P renormalized

     **************************************************************************
     Initializing libbeef V0.1.2 with the BEEF-vdW functional.
     Citation: Wellendorff et al., PRB 85, 235149 (2012).
     **************************************************************************


     IMPORTANT: XC functional enforced from input :
     Exchange-correlation= BEEF-VDW
                           (   1   4  43  14   2   0   0)
     Any further DFT definition will be discarded
     Please, verify this is what you really want

 
     R & G space division:  proc/nbgrp/npool/nimage =      10
     Subspace diagonalization in iterative solution of the eigenvalue problem:
     a serial algorithm will be used

 
     Parallelization info
     --------------------
     sticks:   dense  smooth     PW     G-vecs:    dense   smooth      PW
     Min         127     100     29                 3404     2428     395
     Max         129     101     31                 3405     2431     398
     Sum        1273    1005    301                34049    24303    3959
 
     Using Slab Decomposition
 


     bravais-lattice index     =            1
     lattice parameter (alat)  =       6.7507  a.u.
     unit-cell volume          =     307.6390 (a.u.)^3
     number of atoms/cell      =            7
     number of atomic types    =            1
     number of electrons       =        28.00
     number of Kohn-Sham states=           18
     kinetic-energy cutoff     =      70.0000  Ry
     charge density cutoff     =     350.0000  Ry
     scf convergence threshold =      1.0E-07
     mixing beta               =       0.7000
     number of iterations used =            8  plain     mixing
     Exchange-correlation= BEEF-VDW
                           (   1   4  43  14   2   0   0)

     celldm(1)=   6.750674  celldm(2)=   0.000000  celldm(3)=   0.000000
     celldm(4)=   0.000000  celldm(5)=   0.000000  celldm(6)=   0.000000

     crystal axes: (cart. coord. in units of alat)
               a(1) = (   1.000000   0.000000   0.000000 )  
               a(2) = (   0.000000   1.000000   0.000000 )  
               a(3) = (   0.000000   0.000000   1.000000 )  

     reciprocal axes: (cart. coord. in units 2 pi/alat)
               b(1) = (  1.000000  0.000000  0.000000 )  
               b(2) = (  0.000000  1.000000  0.000000 )  
               b(3) = (  0.000000  0.000000  1.000000 )  


     PseudoPot. # 1 for C  read from file:
     /trace/group/acmegroup/atimmins/packages/espresso/pseudo/psl_1.0.0/pslibrary.1.0.0/pbe/PSEUDOPOTENTIALS/C.pbe-n-kjpaw_psl.1.0.0.UPF
     MD5 check sum: 5459cf7f2c8c37df2f7cde8914797f4d
     Pseudo is Projector augmented-wave + core cor, Zval =  4.0
     Generated using 'atomic' code by A. Dal Corso  v.7.1
     Shape of augmentation charge: PSQ
     Using radial grid of 1073 points,  4 beta functions with: 
                l(1) =   0
                l(2) =   0
                l(3) =   1
                l(4) =   1
     Q(r) pseudized with 0 coefficients 


     atomic species   valence    mass     pseudopotential
        C              4.00    12.01100     C ( 1.00)

      6 Sym. Ops. (no inversion) found


                                    s                        frac. trans.

      isym =  1     identity                                     

 cryst.   s( 1) = (     1          0          0      )
                  (     0          1          0      )
                  (     0          0          1      )

 cart.    s( 1) = (  1.0000000  0.0000000  0.0000000 )
                  (  0.0000000  1.0000000  0.0000000 )
                  (  0.0000000  0.0000000  1.0000000 )


      isym =  2     120 deg rotation - cart. axis [1,-1,1]       

 cryst.   s( 2) = (     0          0          1      )
                  (    -1          0          0      )
                  (     0         -1          0      )

 cart.    s( 2) = (  0.0000000 -1.0000000  0.0000000 )
                  (  0.0000000  0.0000000 -1.0000000 )
                  (  1.0000000  0.0000000  0.0000000 )


      isym =  3     120 deg rotation - cart. axis [-1,1,-1]      

 cryst.   s( 3) = (     0         -1          0      )
                  (     0          0         -1      )
                  (     1          0          0      )

 cart.    s( 3) = (  0.0000000  0.0000000  1.0000000 )
                  ( -1.0000000  0.0000000  0.0000000 )
                  (  0.0000000 -1.0000000  0.0000000 )


      isym =  4     inv. 180 deg rotation - cart. axis [1,1,0]   

 cryst.   s( 4) = (     0         -1          0      )
                  (    -1          0          0      )
                  (     0          0          1      )

 cart.    s( 4) = (  0.0000000 -1.0000000  0.0000000 )
                  ( -1.0000000  0.0000000  0.0000000 )
                  (  0.0000000  0.0000000  1.0000000 )


      isym =  5     inv. 180 deg rotation - cart. axis [-1,0,1]  

 cryst.   s( 5) = (     0          0          1      )
                  (     0          1          0      )
                  (     1          0          0      )

 cart.    s( 5) = (  0.0000000  0.0000000  1.0000000 )
                  (  0.0000000  1.0000000  0.0000000 )
                  (  1.0000000  0.0000000  0.0000000 )


      isym =  6     inv. 180 deg rotation - cart. axis [0,1,1]   

 cryst.   s( 6) = (     1          0          0      )
                  (     0          0         -1      )
                  (     0         -1          0      )

 cart.    s( 6) = (  1.0000000  0.0000000  0.0000000 )
                  (  0.0000000  0.0000000 -1.0000000 )
                  (  0.0000000 -1.0000000  0.0000000 )


     point group C_3v (3m)  
     there are  3 classes
     the character table:

       E     2C3   3s_v 
A_1    1.00  1.00  1.00
A_2    1.00  1.00 -1.00
E      2.00 -1.00  0.00

     the symmetry operations in each class and the name of the first element:

     E        1
          identity                                               
     2C3      2    3
          120 deg rotation - cart. axis [1,-1,1]                 
     3s_v     4    5    6
          inv. 180 deg rotation - cart. axis [1,1,0]             

   Cartesian axes

     site n.     atom                  positions (alat units)
         1           C   tau(   1) = (   0.0000000   0.0000000   0.5000000  )
         2           C   tau(   2) = (   0.2500061   0.2500061   0.7499939  )
         3           C   tau(   3) = (   0.0000000   0.5000000   0.0000000  )
         4           C   tau(   4) = (   0.7499939   0.7499939   0.7499939  )
         5           C   tau(   5) = (   0.5000000   0.0000000   0.0000000  )
         6           C   tau(   6) = (   0.7499939   0.2500061   0.2500061  )
         7           C   tau(   7) = (   0.5000000   0.5000000   0.5000000  )

   Crystallographic axes

     site n.     atom                  positions (cryst. coord.)
         1           C   tau(   1) = (  0.0000000  0.0000000  0.5000000  )
         2           C   tau(   2) = (  0.2500061  0.2500061  0.7499939  )
         3           C   tau(   3) = (  0.0000000  0.5000000  0.0000000  )
         4           C   tau(   4) = (  0.7499939  0.7499939  0.7499939  )
         5           C   tau(   5) = (  0.5000000  0.0000000  0.0000000  )
         6           C   tau(   6) = (  0.7499939  0.2500061  0.2500061  )
         7           C   tau(   7) = (  0.5000000  0.5000000  0.5000000  )

     number of k points=    13  Gaussian smearing, width (Ry)=  0.0100
                       cart. coord. in units 2pi/alat
        k(    1) = (   0.0000000   0.0000000   0.0000000), wk =   0.0312500
        k(    2) = (   0.0000000   0.0000000   0.2500000), wk =   0.1875000
        k(    3) = (   0.0000000   0.0000000  -0.5000000), wk =   0.0937500
        k(    4) = (   0.0000000   0.2500000   0.2500000), wk =   0.1875000
        k(    5) = (   0.0000000   0.2500000  -0.5000000), wk =   0.3750000
        k(    6) = (   0.0000000  -0.5000000  -0.5000000), wk =   0.0937500
        k(    7) = (   0.2500000   0.2500000   0.2500000), wk =   0.1875000
        k(    8) = (   0.2500000   0.2500000  -0.5000000), wk =   0.1875000
        k(    9) = (   0.2500000  -0.5000000  -0.5000000), wk =   0.1875000
        k(   10) = (  -0.5000000  -0.5000000  -0.5000000), wk =   0.0312500
        k(   11) = (   0.2500000   0.0000000   0.2500000), wk =   0.1875000
        k(   12) = (   0.2500000  -0.2500000   0.2500000), wk =   0.0625000
        k(   13) = (   0.2500000  -0.2500000  -0.5000000), wk =   0.1875000

                       cryst. coord.
        k(    1) = (   0.0000000   0.0000000   0.0000000), wk =   0.0312500
        k(    2) = (   0.0000000   0.0000000   0.2500000), wk =   0.1875000
        k(    3) = (   0.0000000   0.0000000  -0.5000000), wk =   0.0937500
        k(    4) = (   0.0000000   0.2500000   0.2500000), wk =   0.1875000
        k(    5) = (   0.0000000   0.2500000  -0.5000000), wk =   0.3750000
        k(    6) = (   0.0000000  -0.5000000  -0.5000000), wk =   0.0937500
        k(    7) = (   0.2500000   0.2500000   0.2500000), wk =   0.1875000
        k(    8) = (   0.2500000   0.2500000  -0.5000000), wk =   0.1875000
        k(    9) = (   0.2500000  -0.5000000  -0.5000000), wk =   0.1875000
        k(   10) = (  -0.5000000  -0.5000000  -0.5000000), wk =   0.0312500
        k(   11) = (   0.2500000   0.0000000   0.2500000), wk =   0.1875000
        k(   12) = (   0.2500000  -0.2500000   0.2500000), wk =   0.0625000
        k(   13) = (   0.2500000  -0.2500000  -0.5000000), wk =   0.1875000

     Dense  grid:    34049 G-vectors     FFT dimensions: (  45,  45,  45)

     Smooth grid:    24303 G-vectors     FFT dimensions: (  36,  36,  36)

     Dynamical RAM for                 wfc:       0.08 MB

     Dynamical RAM for     wfc (w. buffer):       1.17 MB

     Dynamical RAM for           str. fact:       0.05 MB

     Dynamical RAM for           local pot:       0.00 MB

     Dynamical RAM for          nlocal pot:       0.26 MB

     Dynamical RAM for                qrad:       0.43 MB

     Dynamical RAM for          rho,v,vnew:       0.39 MB

     Dynamical RAM for               rhoin:       0.13 MB

     Dynamical RAM for            rho*nmix:       0.83 MB

     Dynamical RAM for           G-vectors:       0.21 MB

     Dynamical RAM for          h,s,v(r/c):       0.24 MB

     Dynamical RAM for          <psi|beta>:       0.02 MB

     Dynamical RAM for                 psi:       0.33 MB

     Dynamical RAM for                hpsi:       0.33 MB

     Dynamical RAM for                spsi:       0.33 MB

     Dynamical RAM for      wfcinit/wfcrot:       0.17 MB

     Dynamical RAM for           addusdens:       2.60 MB

     Dynamical RAM for          addusforce:       3.25 MB

     Dynamical RAM for         addusstress:       2.60 MB

     Estimated static dynamical RAM per process >       3.13 MB

     Estimated max dynamical RAM per process >       7.21 MB

     Estimated total dynamical RAM >      72.14 MB

     Atomic positions and unit cell read from directory:
     ./diamond.save/
     Atomic positions from file used, from input discarded
 

     Check: negative core charge=   -0.000013

     The initial density is read from file :
     ./diamond.save/charge-density



     %%%%%%%%%%%%%%%%%%%%%%%%%%%%%%%%%%%%%%%%%%%%%%%%%%%%%%%%%%%%%%%%%%%%%%%%
     %                                                                      %
     % You are using vdW-DF, which was implemented by the Thonhauser group. %
     % Please cite the following two papers that made this development      %
     % possible and the two reviews that describe the various versions:     %
     %                                                                      %
     %   T. Thonhauser et al., PRL 115, 136402 (2015).                      %
     %   T. Thonhauser et al., PRB 76, 125112 (2007).                       %
     %   K. Berland et al., Rep. Prog. Phys. 78, 066501 (2015).             %
     %   D.C. Langreth et al., J. Phys.: Condens. Matter 21, 084203 (2009). %
     %                                                                      %
     % If you are calculating stress with vdW-DF, please also cite:         %
     %                                                                      %
     %   R. Sabatini et al., J. Phys.: Condens. Matter 24, 424209 (2012).   %
     %                                                                      %
     %%%%%%%%%%%%%%%%%%%%%%%%%%%%%%%%%%%%%%%%%%%%%%%%%%%%%%%%%%%%%%%%%%%%%%%%

     %%%%%%%%%%%%%%%%%%%%%%%%%%%%%%%%%%%%%%%%%%%%%%%%%%%%%%%%%%%%%%%%%%%%%%%%
     %                                                                      %
     %  vdW-DF NEWS:                                                        %
     %                                                                      %
     %  * vdW-DF3 is now available. DOI: 10.1021/acs.jctc.0c00471           %
     %    use with input_dft = 'vdW-DF3-opt1' or 'vdW-DF3-opt2'             %
     %                                                                      %
     %  * Unscreened and range-separated hybrid vdW-DF-cx functionals       %
     %    DOI: 10.1063/1.4986522 and 10.1088/1361-648X/ac2ad2               %
     %    use with input_dft = 'vdW-DF-cx0'    and 'vdW-DF-ahcx'            %
     %  * Unscreened and range-separated hybrid vdW-DF2-b86r functionals    %
     %    DOI: 10.1063/1.4986522 and DOI: 10.1103/PhysRevX.12.041003        %
     %    use with input_dft = 'vdW-DF2-br0' and 'vdW-DF2-ahbr'             %
     %                                                                      %
     %%%%%%%%%%%%%%%%%%%%%%%%%%%%%%%%%%%%%%%%%%%%%%%%%%%%%%%%%%%%%%%%%%%%%%%%


     Carrying out vdW-DF run using the following parameters:
     Nqs    =  20  Npoints =  1024  r_max =  100.000
     q_mesh =  0.00001000  0.04494208  0.09755937  0.15916263
               0.23128650  0.31572767  0.41458969  0.53033537
               0.66584808  0.82450364  1.01025438  1.22772762
               1.48234092  1.78043706  2.12944203  2.53805004
               3.01644009  3.57652955  4.23227104  5.00000000


     -----------------------------------------------
     Non-local corr. energy    =       0.25190701 Ry
     -----------------------------------------------

     Starting wfcs from file
     Checking if some PAW data can be deallocated... 

     total cpu time spent up to now is        2.7 secs

     Self-consistent Calculation

     iteration #  1     ecut=    70.00 Ry     beta= 0.70
     Davidson diagonalization with overlap

---- Real-time Memory Report at c_bands before calling an iterative solver
           214 MiB given to the printing process from OS
             0 MiB allocation reported by mallinfo(arena+hblkhd)
       1968448 MiB available memory on the node where the printing process lives
------------------
     ethr =  1.00E-05,  avg # of iterations =  1.0

     Threshold (ethr) on eigenvalues was too large:
     Diagonalizing with lowered threshold

     Davidson diagonalization with overlap

---- Real-time Memory Report at c_bands before calling an iterative solver
           218 MiB given to the printing process from OS
             0 MiB allocation reported by mallinfo(arena+hblkhd)
       1968435 MiB available memory on the node where the printing process lives
------------------
     ethr =  1.33E-12,  avg # of iterations =  6.4


     -----------------------------------------------
     Non-local corr. energy    =       0.25190701 Ry
     -----------------------------------------------


     total cpu time spent up to now is        3.2 secs

     End of self-consistent calculation

          k = 0.0000 0.0000 0.0000 (  2969 PWs)   bands (ev):

   -10.1799  -2.4305  -2.4305  -1.6074  -1.6063  -1.6063   4.3566   4.3566
     4.3566   4.9994   6.4564   6.4564   6.4571  13.7745  13.7745  13.7747
    15.7812  15.7812

     occupation numbers 
     1.0000   1.0000   1.0000   1.0000   1.0000   1.0000   1.0000   1.0000
     1.0000   1.0000   1.0000   1.0000   1.0000   0.0000   0.0000   0.0000
     0.0000   0.0000

          k = 0.0000 0.0000 0.2500 (  3042 PWs)   bands (ev):

    -9.6881  -5.0836  -2.1966  -1.3336  -1.3328   0.8050   3.6299   3.9005
     3.9005   5.3166   6.1390   6.1396   6.4089  12.5210  13.0039  13.0041
    15.8167  17.7515

     occupation numbers 
     1.0000   1.0000   1.0000   1.0000   1.0000   1.0000   1.0000   1.0000
     1.0000   1.0000   1.0000   1.0000   1.0000   0.0000   0.0000   0.0000
     0.0000   0.0000

          k = 0.0000 0.0000-0.5000 (  3026 PWs)   bands (ev):

    -8.7869  -6.9116  -1.9185  -0.9945  -0.9936   2.7893   2.9234   3.2467
     3.2469   3.4235   6.1051   6.1058   9.5423   9.6420  12.2989  12.2991
    15.9742  18.1529

     occupation numbers 
     1.0000   1.0000   1.0000   1.0000   1.0000   1.0000   1.0000   1.0000
     1.0000   1.0000   1.0000   1.0000   1.0000   1.0000   0.0217   0.0216
     0.0000   0.0000

          k = 0.0000 0.2500 0.2500 (  3031 PWs)   bands (ev):

    -9.1941  -5.0693  -4.2776  -1.2439  -0.2020   1.9078   1.9762   4.1260
     4.4940   4.6294   5.2890   6.7314   7.5428  11.0643  12.2030  13.3290
    17.3571  17.4367

     occupation numbers 
     1.0000   1.0000   1.0000   1.0000   1.0000   1.0000   1.0000   1.0000
     1.0000   1.0000   1.0000   1.0000   1.0000   1.0000   0.1529   0.0000
     0.0000   0.0000

          k = 0.0000 0.2500-0.5000 (  3016 PWs)   bands (ev):

    -8.2681  -6.5689  -4.1416  -1.4264   0.3710   1.2982   2.5553   3.2276
     4.5600   4.6241   5.5639   6.5008   9.2645   9.6347  12.1121  12.2915
    17.8376  19.4756

     occupation numbers 
     1.0000   1.0000   1.0000   1.0000   1.0000   1.0000   1.0000   1.0000
     1.0000   1.0000   1.0000   1.0000   1.0000   1.0000   0.4688   0.0260
     0.0000   0.0000

          k = 0.0000-0.5000-0.5000 (  3048 PWs)   bands (ev):

    -7.1392  -6.1093  -6.1090  -2.3119   1.2580   1.8125   2.3830   2.3831
     4.2151   4.2155   6.3749   7.8379   8.9016   9.0914  12.5330  12.5333
    18.8658  18.8659

     occupation numbers 
     1.0000   1.0000   1.0000   1.0000   1.0000   1.0000   1.0000   1.0000
     1.0000   1.0000   1.0000   1.0000   1.0000   1.0000   0.0000   0.0000
     0.0000   0.0000

          k = 0.2500 0.2500 0.2500 (  3058 PWs)   bands (ev):

    -8.6994  -4.7543  -4.7539  -2.7928   0.8108   0.8109   2.2403   3.6065
     3.6068   5.7660   6.8656   6.8665   7.6795   9.9788  13.0574  13.0575
    17.6109  17.6112

     occupation numbers 
     1.0000   1.0000   1.0000   1.0000   1.0000   1.0000   1.0000   1.0000
     1.0000   1.0000   1.0000   1.0000   1.0000   1.0000   0.0000   0.0000
     0.0000   0.0000

          k = 0.2500 0.2500-0.5000 (  3050 PWs)   bands (ev):

    -7.7527  -6.2303  -4.3433  -2.6071  -0.2566   0.3018   1.7132   3.7695
     5.3941   6.2096   6.5696   6.7450   7.2732  11.0638  12.2989  12.8433
    17.9957  19.7684

     occupation numbers 
     1.0000   1.0000   1.0000   1.0000   1.0000   1.0000   1.0000   1.0000
     1.0000   1.0000   1.0000   1.0000   1.0000   1.0000   0.0217   0.0000
     0.0000   0.0000

          k = 0.2500-0.5000-0.5000 (  3060 PWs)   bands (ev):

    -6.6051  -5.7776  -5.7774  -2.8315  -0.9768   0.2345   0.2346   4.9125
     6.1725   6.4716   6.4720   6.4947   7.8387  11.9186  12.8229  12.8231
    18.9842  18.9844

     occupation numbers 
     1.0000   1.0000   1.0000   1.0000   1.0000   1.0000   1.0000   1.0000
     1.0000   1.0000   1.0000   1.0000   1.0000   0.9733   0.0000   0.0000
     0.0000   0.0000

          k =-0.5000-0.5000-0.5000 (  3112 PWs)   bands (ev):

    -5.3390  -5.3386  -5.3386  -4.6559  -1.0984  -1.0984  -1.0981   4.9321
     6.6268   6.6268   7.8294   7.8299   7.8299  13.1996  13.1998  13.1998
    18.9922  18.9936

     occupation numbers 
     1.0000   1.0000   1.0000   1.0000   1.0000   1.0000   1.0000   1.0000
     1.0000   1.0000   1.0000   1.0000   1.0000   0.0000   0.0000   0.0000
     0.0000   0.0000

          k = 0.2500 0.0000 0.2500 (  3031 PWs)   bands (ev):

    -9.1941  -5.0691  -4.2779  -1.2440  -0.2022   1.9079   1.9765   4.1259
     4.4941   4.6299   5.2893   6.7305   7.5426  11.0641  12.2031  13.3289
    17.3575  17.4361

     occupation numbers 
     1.0000   1.0000   1.0000   1.0000   1.0000   1.0000   1.0000   1.0000
     1.0000   1.0000   1.0000   1.0000   1.0000   1.0000   0.1526   0.0000
     0.0000   0.0000

          k = 0.2500-0.2500 0.2500 (  3058 PWs)   bands (ev):

    -8.6994  -4.7539  -4.7539  -2.7936   0.8107   0.8107   2.2410   3.6075
     3.6075   5.7658   6.8653   6.8653   7.6797   9.9783  13.0574  13.0574
    17.6101  17.6101

     occupation numbers 
     1.0000   1.0000   1.0000   1.0000   1.0000   1.0000   1.0000   1.0000
     1.0000   1.0000   1.0000   1.0000   1.0000   1.0000   0.0000   0.0000
     0.0000   0.0000

          k = 0.2500-0.2500-0.5000 (  3050 PWs)   bands (ev):

    -7.7527  -6.2303  -4.3429  -2.6078  -0.2568   0.3018   1.7136   3.7704
     5.3944   6.2091   6.5694   6.7443   7.2733  11.0639  12.2987  12.8432
    17.9951  19.7677

     occupation numbers 
     1.0000   1.0000   1.0000   1.0000   1.0000   1.0000   1.0000   1.0000
     1.0000   1.0000   1.0000   1.0000   1.0000   1.0000   0.0218   0.0000
     0.0000   0.0000

     the Fermi energy is    12.1045 ev

!    total energy              =    -132.55315310 Ry
     total all-electron energy =      -536.901833 Ry
     estimated scf accuracy    <          6.2E-10 Ry
     smearing contrib. (-TS)   =      -0.00212829 Ry
     internal energy E=F+TS    =    -132.55102481 Ry

     The total energy is F=E-TS. E is the sum of the following terms:
     one-electron contribution =      17.32530151 Ry
     hartree contribution      =      10.60535377 Ry
     xc contribution           =     -33.66571523 Ry
     ewald contribution        =     -80.98866917 Ry
     one-center paw contrib.   =     -45.82729570 Ry
      -> PAW hartree energy AE =       8.24262502 Ry
      -> PAW hartree energy PS =      -8.23381006 Ry
      -> PAW xc energy AE      =     -10.93924767 Ry
      -> PAW xc energy PS      =       4.37956217 Ry
      -> total E_H with PAW    =      10.61416873 Ry
      -> total E_XC with PAW   =     -40.22540072 Ry

     convergence has been achieved in   1 iterations


     -----------------------------------------------
     Non-local corr. energy    =       0.25190701 Ry
     -----------------------------------------------


     Forces acting on atoms (cartesian axes, Ry/au):

     atom    1 type  1   force =     0.00000061   -0.00000061   -0.00005211
     atom    2 type  1   force =    -0.00006351    0.00000661   -0.00000661
     atom    3 type  1   force =     0.00000061    0.00005211    0.00000061
     atom    4 type  1   force =    -0.00000661    0.00006351   -0.00000661
     atom    5 type  1   force =    -0.00005211   -0.00000061    0.00000061
     atom    6 type  1   force =    -0.00000661    0.00000661   -0.00006351
     atom    7 type  1   force =     0.00012762   -0.00012762    0.00012762
     The non-local contrib.  to forces
     atom    1 type  1   force =    -0.19799337    0.19799337    0.19814935
     atom    2 type  1   force =    -0.00002934   -0.00001444    0.00001444
     atom    3 type  1   force =    -0.19799337   -0.19814935   -0.19799337
     atom    4 type  1   force =     0.00001444    0.00002934    0.00001444
     atom    5 type  1   force =     0.19814935    0.19799337   -0.19799337
     atom    6 type  1   force =     0.00001444   -0.00001444   -0.00002934
     atom    7 type  1   force =     0.19819158   -0.19819158    0.19819158
     The ionic contribution  to forces
     atom    1 type  1   force =     1.92219193   -1.92219208   -1.92228234
     atom    2 type  1   force =    -0.00021653   -0.00043431    0.00043433
     atom    3 type  1   force =     1.92219197    1.92228244    1.92219197
     atom    4 type  1   force =     0.00043433    0.00021658    0.00043433
     atom    5 type  1   force =    -1.92228234   -1.92219208    1.92219193
     atom    6 type  1   force =     0.00043433   -0.00043431   -0.00021653
     atom    7 type  1   force =    -1.92275370    1.92275376   -1.92275370
     The local contribution  to forces
     atom    1 type  1   force =    -1.72750518    1.72750518    1.72732801
     atom    2 type  1   force =     0.00008634    0.00031940   -0.00031920
     atom    3 type  1   force =    -1.72750513   -1.72732785   -1.72750513
     atom    4 type  1   force =    -0.00031920   -0.00008624   -0.00031920
     atom    5 type  1   force =     1.72732801    1.72750518   -1.72750518
     atom    6 type  1   force =    -0.00031920    0.00031940    0.00008634
     atom    7 type  1   force =     1.72778120   -1.72778109    1.72778120
     The core correction contribution to forces
     atom    1 type  1   force =     0.00336939   -0.00336939   -0.00318732
     atom    2 type  1   force =     0.00017004    0.00008504   -0.00008505
     atom    3 type  1   force =     0.00336939    0.00318731    0.00336939
     atom    4 type  1   force =    -0.00008505   -0.00017005   -0.00008505
     atom    5 type  1   force =    -0.00318732   -0.00336939    0.00336939
     atom    6 type  1   force =    -0.00008505    0.00008504    0.00017004
     atom    7 type  1   force =    -0.00303292    0.00303291   -0.00303292
     The Hubbard contrib.    to forces
     atom    1 type  1   force =     0.00000000    0.00000000    0.00000000
     atom    2 type  1   force =     0.00000000    0.00000000    0.00000000
     atom    3 type  1   force =     0.00000000    0.00000000    0.00000000
     atom    4 type  1   force =     0.00000000    0.00000000    0.00000000
     atom    5 type  1   force =     0.00000000    0.00000000    0.00000000
     atom    6 type  1   force =     0.00000000    0.00000000    0.00000000
     atom    7 type  1   force =     0.00000000    0.00000000    0.00000000
     The SCF correction term to forces
     atom    1 type  1   force =    -0.00000030    0.00000030    0.00000221
     atom    2 type  1   force =    -0.00001203   -0.00001088    0.00001088
     atom    3 type  1   force =    -0.00000030   -0.00000221   -0.00000030
     atom    4 type  1   force =     0.00001088    0.00001203    0.00001088
     atom    5 type  1   force =     0.00000221    0.00000030   -0.00000030
     atom    6 type  1   force =     0.00001088   -0.00001088   -0.00001203
     atom    7 type  1   force =     0.00000345   -0.00000345    0.00000345

     Total force =     0.000263     Total SCF correction =     0.000035
     SCF correction compared to forces is large: reduce conv_thr to get better values


     Computing stress (Cartesian axis) and pressure



     -----------------------------------------------
     Non-local corr. energy    =       0.25190701 Ry
     -----------------------------------------------

          total   stress  (Ry/bohr**3)                   (kbar)     P=        8.07
   0.00005489  -0.00000026   0.00000026            8.07       -0.04        0.04
  -0.00000026   0.00005489  -0.00000026           -0.04        8.07       -0.04
   0.00000026  -0.00000026   0.00005489            0.04       -0.04        8.07

     kinetic stress (kbar)  16234.00     -0.04      0.04
                               -0.04  16234.00     -0.04
                                0.04     -0.04  16234.00

     local   stress (kbar)  -4858.00     -0.72      0.72
                               -0.72  -4858.00     -0.72
                                0.72     -0.72  -4858.00

     nonloc. stress (kbar)   3999.64      0.03     -0.03
                                0.03   3999.64      0.03
                               -0.03      0.03   3999.64

     hartree stress (kbar)   1690.40      0.11     -0.11
                                0.11   1690.40      0.11
                               -0.11      0.11   1690.40

     exc-cor stress (kbar)   -300.70      0.06     -0.06
                                0.06   -300.70      0.06
                               -0.06      0.06   -300.70

     corecor stress (kbar)  -3872.23     -0.14      0.14
                               -0.14  -3872.23     -0.14
                                0.14     -0.14  -3872.23

     ewald   stress (kbar) -12908.90      0.66     -0.66
                                0.66 -12908.90      0.66
                               -0.66      0.66 -12908.90

     hubbard stress (kbar)      0.00      0.00      0.00
                                0.00      0.00      0.00
                                0.00      0.00      0.00

     DFT-D   stress (kbar)      0.00      0.00      0.00
                                0.00      0.00      0.00
                                0.00      0.00      0.00

     XDM     stress (kbar)      0.00      0.00      0.00
                                0.00      0.00      0.00
                                0.00      0.00      0.00

     dft-nl  stress (kbar)     23.86     -0.00      0.00
                               -0.00     23.86     -0.00
                                0.00     -0.00     23.86

     TS-vdW  stress (kbar)      0.00      0.00      0.00
                                0.00      0.00      0.00
                                0.00      0.00      0.00

     MDB     stress (kbar)      0.00      0.00      0.00
                                0.00      0.00      0.00
                                0.00      0.00      0.00

     3D-RISM stress (kbar)      0.00      0.00      0.00
                                0.00      0.00      0.00
                                0.00      0.00      0.00



     -----------------------------------------------
     Non-local corr. energy    =       0.25190701 Ry
     -----------------------------------------------



     -----------------------------------------------
     Non-local corr. energy    =       0.25190701 Ry
     -----------------------------------------------



     -----------------------------------------------
     Non-local corr. energy    =       0.25190701 Ry
     -----------------------------------------------



     -----------------------------------------------
     Non-local corr. energy    =       0.25190701 Ry
     -----------------------------------------------



     -----------------------------------------------
     Non-local corr. energy    =       0.25190701 Ry
     -----------------------------------------------



     -----------------------------------------------
     Non-local corr. energy    =       0.25190701 Ry
     -----------------------------------------------



     -----------------------------------------------
     Non-local corr. energy    =       0.25190701 Ry
     -----------------------------------------------



     -----------------------------------------------
     Non-local corr. energy    =       0.25190701 Ry
     -----------------------------------------------



     -----------------------------------------------
     Non-local corr. energy    =       0.25190701 Ry
     -----------------------------------------------



     -----------------------------------------------
     Non-local corr. energy    =       0.25190701 Ry
     -----------------------------------------------



     -----------------------------------------------
     Non-local corr. energy    =       0.25190701 Ry
     -----------------------------------------------



     -----------------------------------------------
     Non-local corr. energy    =       0.25190701 Ry
     -----------------------------------------------



     -----------------------------------------------
     Non-local corr. energy    =       0.25190701 Ry
     -----------------------------------------------



     -----------------------------------------------
     Non-local corr. energy    =       0.25190701 Ry
     -----------------------------------------------



     -----------------------------------------------
     Non-local corr. energy    =       0.25190701 Ry
     -----------------------------------------------



     -----------------------------------------------
     Non-local corr. energy    =       0.25190701 Ry
     -----------------------------------------------



     -----------------------------------------------
     Non-local corr. energy    =       0.25190701 Ry
     -----------------------------------------------



     -----------------------------------------------
     Non-local corr. energy    =       0.25190701 Ry
     -----------------------------------------------



     -----------------------------------------------
     Non-local corr. energy    =       0.25190701 Ry
     -----------------------------------------------



     -----------------------------------------------
     Non-local corr. energy    =       0.25190701 Ry
     -----------------------------------------------



     -----------------------------------------------
     Non-local corr. energy    =       0.25190701 Ry
     -----------------------------------------------



     -----------------------------------------------
     Non-local corr. energy    =       0.25190701 Ry
     -----------------------------------------------



     -----------------------------------------------
     Non-local corr. energy    =       0.25190701 Ry
     -----------------------------------------------



     -----------------------------------------------
     Non-local corr. energy    =       0.25190701 Ry
     -----------------------------------------------



     -----------------------------------------------
     Non-local corr. energy    =       0.25190701 Ry
     -----------------------------------------------



     -----------------------------------------------
     Non-local corr. energy    =       0.25190701 Ry
     -----------------------------------------------



     -----------------------------------------------
     Non-local corr. energy    =       0.25190701 Ry
     -----------------------------------------------



     -----------------------------------------------
     Non-local corr. energy    =       0.25190701 Ry
     -----------------------------------------------



     -----------------------------------------------
     Non-local corr. energy    =       0.25190701 Ry
     -----------------------------------------------



     -----------------------------------------------
     Non-local corr. energy    =       0.25190701 Ry
     -----------------------------------------------



     -----------------------------------------------
     Non-local corr. energy    =       0.25190701 Ry
     -----------------------------------------------



     -----------------------------------------------
     Non-local corr. energy    =       0.25190701 Ry
     -----------------------------------------------



     -----------------------------------------------
     Non-local corr. energy    =       0.25190701 Ry
     -----------------------------------------------



     -----------------------------------------------
     Non-local corr. energy    =       0.25190701 Ry
     -----------------------------------------------

 BEEFens 2000 ensemble energies
             -0.247140008519175E+01
             -0.165208802601930E+00
             -0.543985794407500E+00
              0.170130204481744E+01
             -0.746962785609551E+00
             -0.619497062387603E+00
             -0.173774002600264E+01
             -0.370025495274757E+01
             -0.133225151555994E+01
             -0.140851818313282E+01
             -0.148381336845281E+01
              0.225091624423089E+00
              0.213157384419739E+00
             -0.217958952103291E+00
              0.163274953931852E+00
              0.182409844363957E+01
             -0.717348640413176E+00
             -0.434911079552149E+00
              0.950768416228875E+00
             -0.420314296162855E+01
              0.220736926007221E+01
             -0.759622076814356E+00
             -0.228585604398834E+00
             -0.296646068164657E+00
              0.263547628114864E-01
             -0.205584877113389E+00
              0.329686765572830E+01
             -0.946546221838325E+00
             -0.325964059561475E+00
             -0.221966708645847E+01
              0.263330331658298E+01
             -0.200396340560163E+00
             -0.160539133869953E+01
              0.740416046006585E+00
             -0.953270464956422E-01
              0.112832088477949E+01
              0.100720151436310E+00
             -0.167417609806257E-01
              0.144814704593897E+01
             -0.380456455300040E+01
              0.203629810791303E+01
              0.497191051929908E+00
             -0.435736569461163E+00
             -0.121406091176459E+01
              0.449813707825404E+00
             -0.671724436532685E+00
              0.194067646106723E+01
              0.132916238012210E+01
             -0.711365662941891E+00
             -0.127245237452974E+01
             -0.124329583238856E+01
             -0.137943513661695E+01
              0.762479258566811E+00
             -0.202658322767948E+01
              0.607209394272726E+00
              0.234278093443374E+01
              0.290461553797140E+01
              0.115863243428984E+01
              0.592961635311557E+00
              0.122127348362406E+01
              0.339011632647215E+01
              0.626303528505836E+00
             -0.208396161697311E+01
             -0.323910549581225E+00
             -0.107403800466953E+01
              0.243706044645077E+01
             -0.268582729163523E+01
             -0.224509529510019E+01
             -0.122859774477224E+01
             -0.657721750091277E+00
             -0.156234795304179E+01
              0.101284772660757E+01
              0.441029151278375E+00
              0.627771943868773E+00
             -0.139726514831630E+01
             -0.138656716109809E+01
             -0.228033176518072E+01
              0.122365699085477E+01
             -0.131518668686577E+01
              0.112939475393910E+01
             -0.273019536065799E+00
             -0.105787123445530E+01
             -0.196191012328138E+01
             -0.648062840919764E+00
             -0.670906474864911E+00
             -0.579967764162623E+00
              0.140659120729406E+01
              0.295615740685817E+01
             -0.176378364709922E+01
             -0.308285764433907E+01
             -0.695864238231241E+00
              0.414372626058512E+01
             -0.208811151332432E+01
              0.120143414823623E+01
             -0.535649432513779E+00
             -0.223182582077789E+01
              0.996259201201451E+00
              0.116282755562019E+01
             -0.640189526371094E+00
              0.111434940670341E+01
             -0.939459208204170E+00
             -0.235405361963407E+01
              0.384259257697951E+01
              0.182191680299628E+01
              0.788150047110012E+00
              0.589964936339348E+00
              0.100588301541732E+01
              0.312017329930679E+01
             -0.923767494803038E+00
              0.102556975686106E+00
             -0.526846224834639E+01
              0.611291312250819E+00
             -0.255048999599498E+01
              0.460519870167115E+00
              0.824328157885668E+00
             -0.145390244416703E+01
             -0.189683276355804E+01
              0.135037389266230E+00
             -0.116710936022966E+01
              0.171426124782635E+01
             -0.178709128573182E+01
             -0.297906075217821E+00
             -0.145319064775766E+01
             -0.207688276037318E+00
              0.208947226570455E+00
              0.911734069316953E+00
             -0.680432299986222E-02
             -0.190730640913785E+00
              0.251801774985951E+01
              0.350239680107194E+01
              0.190785599095171E+01
              0.249914543322351E+01
             -0.424103250513114E+00
              0.450323441989752E+00
              0.194519031383871E+01
              0.179446639309840E+00
             -0.283266526229921E+01
             -0.162589155408906E+01
             -0.183282575870289E+01
             -0.108092606361485E+01
              0.987877839482280E+00
             -0.468328846564246E+01
             -0.496117660717706E+00
              0.184709157358982E+01
             -0.149535758321491E+01
             -0.110448414280486E+01
              0.227183275680614E+01
              0.179937390320917E+01
             -0.104931998188451E+01
              0.120861580545825E+01
             -0.912048364712303E+00
              0.140394240892009E+01
              0.240963690896177E+00
              0.408448920407487E+00
             -0.308210863288690E+01
             -0.179105809344679E+01
             -0.242749159636460E+00
              0.184312655069805E-01
             -0.161905743648416E+01
              0.423580253608510E+01
             -0.466881582500019E+00
             -0.100006682025034E+01
              0.149035219472218E+01
             -0.174204491746589E+01
             -0.147325346110359E+01
              0.129097975461095E+01
              0.524587520043464E+00
              0.418910248013031E+00
              0.654480541041147E+00
             -0.421045433266411E+00
              0.379361971193608E+00
              0.220485532268080E+01
             -0.101733299210385E+01
              0.870991093040924E+00
              0.334704387949969E+01
              0.122681647841402E+01
             -0.183187276180874E+00
             -0.855956345236394E+00
              0.597680523031197E+01
             -0.949337058104005E+00
              0.145740690409567E+01
              0.115253106992275E+01
              0.106141936699146E+01
              0.352569341494963E+01
              0.184198828890585E+01
             -0.255155751736694E+00
              0.101753817930062E+01
              0.202056165375733E+01
              0.152207512257586E+01
             -0.227896574312700E+01
              0.356618580969073E+01
             -0.312856352593952E+01
             -0.430965701530190E+00
              0.216331386317145E+01
              0.685999111964216E+00
              0.340792027865401E+00
              0.103859283016430E+01
              0.627836112406825E+00
              0.126742746726040E+01
             -0.244703122383773E+01
              0.142922992454682E+00
             -0.910536787874044E+00
             -0.316027326187415E+00
             -0.179743233703260E+00
             -0.486368117585598E+00
             -0.229262463251176E+00
              0.308807977490116E+01
             -0.221639874088665E+00
             -0.106287619203154E+01
             -0.306448596237440E-01
              0.577484638099828E+00
             -0.248893143070778E+01
             -0.211114566000329E+01
             -0.134128982190980E+01
             -0.244853058629918E+01
             -0.801710228594150E+00
             -0.157225371974175E+01
              0.693163404393736E+00
              0.100452977622605E+00
             -0.463788791676704E+00
             -0.310455244853697E+00
              0.166223110831181E+00
             -0.440926913086373E+00
              0.248901272762382E+01
             -0.331093915769756E+01
             -0.557178007935137E+00
             -0.500535233876922E+00
              0.523803232500970E+00
              0.899411376286628E+00
             -0.199971057514303E+01
             -0.548446845052528E+00
              0.166236655555475E+01
             -0.685873065139042E+00
              0.556166131831196E+00
              0.121698451414296E+01
             -0.904539412847392E-01
              0.444588234514725E+01
             -0.494280596511359E+00
             -0.126744691899428E+01
              0.549200164079338E-01
             -0.101338644532290E+01
              0.220706514477653E+01
             -0.176282101836378E+01
              0.504455261126715E+00
              0.202298187796123E+01
             -0.421149275794416E+00
              0.451828078167864E+01
              0.488693020165822E+01
             -0.259456722015327E+01
              0.221033717298241E+01
              0.933628328116782E+00
             -0.214747751689537E+01
              0.637264211687737E+00
              0.161519009124113E+01
              0.177848488854043E+01
              0.159365640479662E+00
              0.627148552990324E+00
              0.279545144477439E+01
             -0.899187959232735E+00
              0.362595983417104E+00
              0.260263905849628E+01
             -0.139057616826218E+01
             -0.895018433511967E+00
              0.222488629854300E+01
              0.116461933565014E+01
              0.301104327843217E+01
              0.122881495609707E+01
              0.471755691909404E+00
              0.101111647899095E+01
              0.157185962104349E+01
             -0.200043505323595E+01
              0.314928083385956E+00
              0.101729743967920E+01
              0.526502711783987E+00
              0.900231837925540E+00
             -0.229087194451328E+01
              0.125684107896396E+01
             -0.169076914191219E+01
             -0.118134939411732E+01
              0.739275882103507E+00
             -0.305897505877143E+00
              0.234674516161854E+01
             -0.528568999456288E+00
              0.116397782145300E+01
              0.124428526149902E+01
              0.297119354832826E+01
              0.196318511056078E+01
              0.184490331652279E+01
             -0.525483673541931E-01
             -0.471489962390022E+00
             -0.105661418318984E+01
              0.312253188797881E+01
              0.316682850356541E+01
              0.155475117663476E+01
             -0.106565967065753E+01
              0.192385949722133E+01
              0.151433498177589E-02
              0.583202247143149E+00
              0.261797401111815E+01
             -0.810206869545826E-02
             -0.339039400438072E+00
             -0.760506249490216E+00
             -0.229264978518146E+01
              0.368222992962946E+01
              0.194472269919185E+01
             -0.247335881733704E+01
             -0.839908568762682E+00
              0.975501701732647E+00
             -0.316278101492306E+00
              0.255458208765911E+01
              0.596780225671479E+00
              0.319705233424119E+01
              0.121566643923345E+01
             -0.960663946391371E+00
              0.791737018265600E+00
             -0.277374176365901E+00
             -0.103597961498887E+01
              0.636773564040100E+00
              0.606720808604866E+00
              0.347126996720706E+01
              0.296026050267048E+01
              0.214452826453141E+01
              0.255047908363096E+01
              0.184539534011725E+00
             -0.925570881741525E+00
              0.565929655554708E+00
             -0.127612895119877E+01
             -0.214610934935982E+01
             -0.217256476724482E+01
             -0.120847880982730E+01
             -0.408281115983536E+01
             -0.140755608351991E+01
             -0.330688756621124E+01
              0.848696417138002E+00
             -0.168077317058673E+01
              0.192080368168066E+01
             -0.380168554736308E+01
             -0.117158776927028E+01
              0.152182386765948E+01
              0.880508076059455E+00
             -0.351090132974110E+01
              0.212503311666975E+01
             -0.106093405348666E+01
              0.209671489661118E+01
             -0.101537229006888E+01
             -0.304320843179584E+01
              0.653399237751739E+00
             -0.257592633261199E+01
             -0.118624714618162E+00
             -0.390110612782211E-01
              0.158022041183875E+01
              0.484398292895274E+01
             -0.164181207726281E+01
             -0.149790954313558E+01
             -0.173483069750667E+00
             -0.257296756156000E+00
             -0.313803094915912E+01
             -0.210688023639195E+01
              0.187439870288190E+01
             -0.711559926634404E+00
              0.929243793866359E+00
             -0.191477174155689E+01
             -0.659035421895746E+00
             -0.159278846374830E+01
              0.192693878399928E+01
              0.502912506955330E+00
             -0.919792881069970E+00
             -0.703970686529036E+00
              0.480732461553402E+00
             -0.250832442271648E+00
              0.162054478125176E+01
             -0.984342922165869E+00
              0.369820099786196E+00
              0.125856351987898E+01
              0.516696544614867E+00
             -0.851208889441256E+00
              0.594334291199729E+01
              0.222787188962070E+01
              0.399289255549661E+00
              0.364456352114267E+00
             -0.226873497179481E+01
              0.131051928890852E+01
             -0.307023427289446E+01
             -0.131572983327481E+01
             -0.222123035502881E+01
             -0.714549813385688E+00
              0.225620219785621E+01
             -0.217032011511130E+01
              0.101502250750164E+01
             -0.132829687349254E+00
              0.914529882132040E-01
             -0.124263114597378E+01
             -0.163850493385685E+01
             -0.182240371355032E+00
             -0.126703852012545E+01
             -0.892218951169260E+00
             -0.159880106258226E+01
             -0.251681194772159E+00
             -0.125117048228610E+01
             -0.188047574596934E+01
              0.724565224842769E+00
             -0.504801737240729E+00
              0.910413776785182E+00
              0.254445817676952E+00
             -0.289889684687154E+01
             -0.194690013797226E+01
             -0.186690877153614E+01
              0.120306240703822E+01
             -0.255148610784880E+00
             -0.235331716515638E+01
              0.215255920829050E+01
             -0.158873365912563E+01
              0.232271601881469E+01
             -0.116454374070929E+01
             -0.185100583245125E+01
              0.100745093460888E+01
             -0.280493526595477E+01
             -0.116975694667240E+01
              0.214728886852160E+01
              0.706814768437145E+00
             -0.165009205271256E+01
              0.199989514575141E+01
             -0.600212286618479E+00
             -0.138444185692700E+01
             -0.111250996920289E+01
             -0.196416104720911E+01
              0.966839765240384E+00
             -0.329125136796261E+01
             -0.289708704898722E+01
             -0.330181889245232E+00
             -0.114798776927739E+01
             -0.225098718806736E+01
              0.297120834632024E+01
              0.527579909080953E+01
             -0.840144165899477E+00
             -0.201738544660337E+00
             -0.220905297826235E+01
              0.260159234003315E+01
              0.804107850700442E+00
             -0.763301757359081E+00
             -0.137639340795353E+01
              0.609861002023532E+00
             -0.229948692021939E+01
             -0.454222796035227E+00
             -0.330190716954234E+01
              0.134897414938624E+01
              0.367918457808379E+00
             -0.234851851842571E+00
             -0.437162510633993E+00
             -0.156133883015050E+01
             -0.447249024569800E+00
              0.511140460138082E+01
             -0.681067314547104E+00
             -0.178677671307650E+01
             -0.268797920218044E+01
              0.495998224757923E+00
             -0.146137287167668E+01
              0.403484994872709E+00
              0.126006322122121E+01
              0.176329277036325E+00
              0.128809010817494E+01
              0.636004935842601E+00
              0.226626701773720E+01
              0.971711751457015E+00
             -0.139843274853127E+01
              0.208376942973161E+01
              0.130938553263936E+01
              0.489682804618427E+00
              0.135362944232746E+01
             -0.123594418737941E+01
              0.278296415362072E+01
              0.102230639600388E+01
             -0.132851083586627E+01
             -0.109022626073470E+00
             -0.633873665385760E+00
              0.641148856207645E+00
             -0.100989212147729E+01
             -0.426664499072199E+00
             -0.449122557969133E+00
              0.320821270526270E+01
              0.216695030820617E+01
             -0.246059826912045E+01
             -0.285104614551625E+00
             -0.190836734153779E+01
             -0.566631550421882E+00
             -0.742684480177985E+00
              0.412600334130399E+00
             -0.131712882858783E+00
             -0.104599292615184E+01
              0.680189314452322E+00
             -0.361542699106090E+00
             -0.232639126970789E+00
              0.342342453684629E+01
              0.586127573446364E+00
             -0.318826050829412E+01
             -0.139795234604103E+01
              0.369878331277731E+01
              0.937711029998827E+00
             -0.341070254253026E+00
              0.415470564800333E+01
             -0.687856604351309E+00
             -0.319673358518621E+00
             -0.371534204356866E+00
              0.548712660525659E+00
              0.126493797680808E+01
              0.924404651502400E-01
              0.109675554012927E+01
             -0.478837035879303E+00
             -0.148815382510855E+01
             -0.151702077580178E+01
             -0.180046183304818E+01
              0.149636147506557E+01
              0.544727922568606E+00
              0.141936986797410E+01
              0.541237883411471E+00
              0.345158492452099E+01
              0.843682029651427E+00
             -0.303452612959531E+01
             -0.123547941966090E+01
              0.142970747661808E+00
             -0.108404583024320E+01
              0.245879102285271E+01
             -0.608106391600650E+00
              0.727064642184158E+00
              0.214022272195334E+01
             -0.309986916652670E+01
              0.567682448009248E+01
              0.707096838212158E+00
              0.967544039657280E+00
              0.142356392217972E+01
              0.105991099080320E+00
             -0.849578431029592E-01
              0.127625161458107E+01
             -0.127272417137051E+01
              0.331204608650503E+01
              0.284699482939471E+01
             -0.150002941472643E+01
              0.527547721913827E+00
              0.279365223755105E+01
             -0.851469247173161E+00
              0.788917858657380E+00
              0.129129836911825E+01
              0.158211613564602E+01
             -0.284508741463403E+01
             -0.229272620886313E+00
             -0.107682217517241E+01
             -0.149600369499275E+00
             -0.178110408384232E+00
              0.178118390485622E+00
             -0.458081817298350E+00
             -0.112558285149048E+01
              0.560099550921689E+00
              0.235678144685144E+00
              0.201070100492166E+01
             -0.175537415940017E+01
              0.173908183533027E+01
              0.182746580087573E+01
             -0.415823594717686E+00
              0.297883691834842E+01
             -0.263440743766357E+01
             -0.398654909024463E+01
             -0.379043847265465E+00
             -0.236095418063712E+00
             -0.694731341381534E-01
              0.300668542371825E+01
             -0.776618828028535E-01
              0.163482574186636E+01
              0.220816219336434E+01
              0.150643802076608E+01
             -0.327662763958639E+00
              0.229575341395485E+01
             -0.617637617653651E+00
             -0.147625094033662E+01
             -0.129355437103259E+01
              0.445218964776803E+00
              0.130699156708689E+01
             -0.987891333899151E-01
              0.132518609728054E+01
             -0.681764614120191E-01
              0.222209067233069E+01
              0.677720137036966E+00
              0.342421296604209E+00
              0.801723530542695E-01
              0.114954665488000E+01
              0.161562830399181E+01
              0.615320098378794E+00
             -0.145358009966441E+00
             -0.211075458307931E+01
              0.119586458408107E+01
              0.814797514693128E+00
              0.127369271507359E+01
              0.115711701308906E+01
              0.146417976801335E+01
             -0.435783026386809E+00
              0.125802337309574E+01
             -0.108770423214562E+01
             -0.137848343378622E-01
             -0.201537079217690E+01
             -0.139900673448049E+01
              0.163939919543316E+01
             -0.335647087441311E+01
              0.930178927285008E+00
              0.513518718591254E+00
              0.324460224979703E+01
             -0.546619980764937E+00
              0.122217628761205E+01
             -0.428864566872011E+00
             -0.192649955371851E+01
             -0.258971398717748E+01
             -0.527949794884497E+00
             -0.338692264795229E+01
              0.337283515859845E+00
             -0.779231986690232E+00
              0.126703685267283E+01
              0.894743389606717E+00
             -0.106518383928950E+01
             -0.106026583011422E+01
              0.162236500330161E+01
             -0.220995212144804E+01
             -0.471640465113168E+00
             -0.667240384412074E+00
              0.103093188953411E+01
              0.171165069383779E+00
              0.173895215348931E+00
             -0.597078958300142E+00
              0.210184266911915E+01
             -0.217409095350774E+01
              0.181327332643423E+00
              0.226204697794138E+01
             -0.144397926280864E+01
              0.143249432366822E+00
              0.830247559845816E-01
             -0.245245589403573E+01
             -0.148395477750792E+01
             -0.992589786436334E-01
              0.116110988041014E+01
              0.135085682487676E+01
              0.916612475431329E-01
             -0.526605408096255E+00
              0.659525048179919E+00
             -0.155892745517518E+01
             -0.142150162945779E+00
             -0.197629298834003E+01
             -0.104466734900072E+01
              0.194224008909517E+01
             -0.118197511660814E+01
              0.264658195675736E+01
             -0.823501756036917E+00
              0.130776527151647E+01
              0.922243701965511E+00
             -0.231283062677723E+01
             -0.980089705569504E+00
              0.439827255164089E+00
             -0.162800270765396E+01
             -0.152238824410050E+01
             -0.347784312317459E+01
             -0.207768761144490E+01
             -0.191066098861544E+01
             -0.177928477423614E+01
              0.207958792920060E-02
              0.895253758240045E+00
              0.342532325203638E+00
              0.104512311603350E+01
             -0.222317850269763E+01
              0.492475565975933E+00
              0.980531415310621E+00
             -0.262628500569917E+01
             -0.225050737965737E+01
             -0.150683347129884E+01
             -0.120560393356170E+01
              0.553715923802931E+00
             -0.133133094160215E+00
             -0.172689025099068E+01
              0.111323656659836E+01
             -0.926355851550655E+00
              0.197401000024169E+01
             -0.345909255916600E+01
              0.247512631325336E+01
             -0.431087857569428E+00
             -0.153158361887409E+01
             -0.112150893642753E+01
              0.574234494215631E-01
              0.194741723092454E+01
             -0.268678427371889E+01
             -0.541667933990501E+00
             -0.633184293631848E+00
              0.158359415833799E+01
              0.312067500634934E+01
             -0.379328593523724E+01
              0.355602070718201E+01
              0.158666912736265E+01
             -0.292749293650293E+01
             -0.121358868596919E+01
              0.301308469735414E+01
              0.219768204761733E+01
             -0.670170894047537E+00
             -0.273226288522956E+00
              0.653317424735266E+00
              0.295742287671002E+01
             -0.226517782732582E+01
              0.474766603890480E+00
             -0.339325000770792E+00
              0.102647201302134E+01
             -0.271165984081800E+01
             -0.117932307645228E+00
             -0.102834370113669E+01
              0.188881935328694E+01
              0.157320967098905E+01
             -0.339225362772328E+01
             -0.182380303826389E+01
             -0.803416779263898E+00
             -0.169070716377314E+01
             -0.480979097340748E+00
             -0.727471909549529E+00
              0.168479856915508E+01
              0.171033596858246E+01
             -0.367820596715482E-01
             -0.175258923585906E+01
             -0.326102629363460E+01
              0.195065592644993E+01
             -0.178641135741750E+01
             -0.145819518383429E+01
              0.267912650044980E+00
             -0.140818524249519E+01
             -0.158805357377051E+01
             -0.110395499195726E+01
             -0.185012167669693E+01
             -0.101299793768375E+01
             -0.194339873377225E+01
              0.210665787387287E+01
              0.226241780764850E+01
             -0.430536352900965E+00
             -0.828284630962482E+00
              0.170272826635639E+00
              0.162061219709402E+01
             -0.323404937680200E+01
             -0.867010118011054E+00
              0.188461031794017E+01
              0.271728421898666E+01
             -0.386580392924262E+00
              0.396779537248989E+00
              0.195631484055221E+01
              0.562893040346143E+00
             -0.517196930316235E-01
             -0.154795543598040E+01
              0.555656537652585E+00
             -0.123721588362744E+01
             -0.215741150163218E+00
             -0.850537709677695E+00
             -0.561522192072740E+00
              0.925584568028338E+00
              0.295701210167115E+01
             -0.215197689742652E+00
              0.954298061388341E-01
             -0.344047807296547E+01
             -0.600008310326874E+00
             -0.139678639534038E+01
             -0.788035351176397E-02
             -0.187477921755130E+01
              0.345545160139966E+01
              0.331158499144529E+01
              0.677318809684325E+00
             -0.800287273329804E+00
              0.723641791082439E+00
              0.749130369063446E+00
             -0.179973674800146E+01
             -0.334122560502490E+00
              0.709620086554981E+00
              0.541381699532749E+00
              0.198732661276132E+01
              0.153424955332637E+01
             -0.828327351866143E+00
              0.859836478741534E+00
             -0.362778798733663E+01
             -0.408328311389066E-01
              0.345760690603169E+01
              0.691072653509590E+00
             -0.101819041751504E+00
              0.983760909872560E+00
             -0.984367895885091E+00
              0.337570516614431E+01
             -0.729817734152860E+00
              0.296662261183785E+01
              0.146534783563672E+01
             -0.161093090378703E+01
              0.127627629967389E+01
             -0.115635835470036E+01
             -0.261966849591555E+01
             -0.333718565394909E+00
             -0.207122674077875E+01
             -0.196104221810881E+01
             -0.119776707818882E+00
              0.137309994343306E+01
             -0.523106783267860E+00
             -0.116688442778353E+01
              0.292074434030978E+00
             -0.257706460561212E+01
             -0.171342930802665E+00
             -0.333533794295060E+01
              0.203455192395023E+01
             -0.169206099120370E+00
             -0.184427218252937E+01
             -0.545739441179819E+00
              0.725994235494900E+00
             -0.142833028954251E+01
             -0.175075833768699E+01
              0.345644191751974E+01
             -0.103577131986802E+01
             -0.148642778673555E+01
              0.113229510408312E+01
             -0.742606575635641E+00
              0.223405349185978E+01
             -0.522755607904557E-01
              0.248652917577402E+00
              0.422571074104378E+01
             -0.346979255253085E+00
             -0.148682672128574E+01
             -0.176137611550467E+01
             -0.196413183528964E+01
             -0.144418663896134E+01
              0.116281856490007E+01
              0.112795565369824E+01
              0.103982742138817E+01
              0.297508907025521E+01
              0.271130901883364E+00
              0.851145262030914E+00
             -0.222754112725474E+01
              0.103826575827515E+00
             -0.571309490581569E+00
             -0.989180148708627E+00
             -0.233154482125308E+00
              0.124051965688193E+01
              0.145189913292123E+01
             -0.307208390173601E-01
              0.551718444449254E+00
              0.101038147998594E+01
              0.134886975340442E+01
             -0.103035098872403E+01
             -0.428204435239248E+00
              0.447103544997445E-01
             -0.988542928726652E+00
             -0.970364156780281E-01
             -0.145221510345426E+01
              0.305719175253025E+01
              0.237753961052630E+01
             -0.613309956343073E+00
              0.572395548313219E+00
             -0.192161906707455E+00
             -0.110071833506741E+01
              0.141121440359161E+01
             -0.405473935064514E+00
              0.150349529039032E+01
             -0.191311383273064E+01
              0.759915802321627E+00
             -0.306381348733087E+00
             -0.218598032821539E+01
             -0.101035438449074E+01
              0.100407260152397E+01
             -0.367606608767572E+01
              0.155445427997117E+01
              0.185208205254563E+01
             -0.389651441808739E+00
             -0.330438926083361E+00
             -0.205633591873424E+00
              0.106172521492713E+01
             -0.130472309472304E+01
              0.116606681448634E+01
              0.124517984651890E+01
             -0.354180900392794E+01
             -0.145578169402704E+01
              0.932314022289554E+00
             -0.481645764353747E+00
              0.179880855484115E+01
             -0.232947034025029E+01
             -0.366182552540138E+00
             -0.158832171756700E+01
             -0.495029887788457E+01
              0.307277214808983E+01
             -0.231575114682284E+01
             -0.256902459123622E+01
              0.223104846812218E+00
              0.493895916253002E+01
              0.294406672665516E+00
             -0.114350016895685E+01
             -0.373406928593205E-01
             -0.198888742425508E+00
             -0.334939487681162E+01
             -0.215862923932997E+01
              0.328067255284356E+01
             -0.353516452936960E+00
             -0.146674383363008E+01
              0.191809216084897E+01
             -0.127336713113839E+01
              0.127589907083959E+01
              0.187435601559589E+01
             -0.211030756068927E+01
             -0.102255686885114E+01
             -0.133531010897005E+01
             -0.619673374681071E+00
             -0.671844435609405E+00
             -0.610120712560281E+00
              0.833701831742111E+00
             -0.134192389671069E+01
              0.105247080864532E+01
              0.215817370639228E+01
             -0.359437854212598E+00
             -0.789608064955893E+00
              0.522030833748508E+00
              0.211862841677415E+01
              0.216048757646932E+01
              0.306728233168984E+00
             -0.322532619802244E+00
             -0.348666721664352E+00
             -0.199371068015620E+01
              0.147500900295048E+01
             -0.930697807939532E+00
              0.817151310731074E+00
             -0.509044254037047E+00
              0.108688766698072E+01
              0.654178254169385E+00
             -0.308634993084664E+01
             -0.972879786435325E+00
             -0.301164292608372E+01
             -0.151545381143982E+01
              0.188254675511936E+00
             -0.786765742580348E+00
              0.138443538972187E+01
             -0.113830519931662E+01
              0.150967163147638E+00
              0.299210701446857E+00
              0.276857594272686E+01
              0.143522927627212E+01
             -0.121787773937048E+01
              0.164736263453307E-01
              0.513192345563789E+00
              0.143180906476311E+01
             -0.529363196733552E-01
              0.211295453929795E+01
              0.102371014717670E+01
              0.347761223327102E+01
              0.116918928395754E+00
              0.236740914888234E+01
             -0.116615155442759E+01
             -0.154521103501558E+01
              0.877965734190163E-01
              0.406468721412125E+00
              0.901959513891276E+00
             -0.626026354770421E+00
             -0.425199477302644E+00
              0.868831386724427E+00
             -0.170870824185749E+01
             -0.230394314745889E+01
              0.311845863986670E+01
             -0.291721629704092E+00
             -0.140837348470526E+01
             -0.164485255760176E+00
             -0.539283912520506E+00
              0.160930426593144E+01
              0.137631907707243E+01
             -0.806529649158115E+00
             -0.111006475947528E-01
             -0.996512700874259E+00
             -0.133772355810381E+01
             -0.100037925344756E+01
             -0.382526323588642E+01
             -0.364868834385561E-01
             -0.251750247775460E+01
             -0.228964305629194E+01
             -0.151346438243261E+01
              0.818000832345469E+00
             -0.151431815975658E+01
              0.873433401429570E+00
             -0.246424288678717E+01
             -0.464938031489766E-01
             -0.167208680116797E+01
              0.366774678456809E+00
              0.270345575536434E+00
              0.122420489448711E+01
             -0.731475053855393E+00
             -0.670238305221943E+00
              0.122272099663892E+01
              0.220824589821599E+01
              0.124620637166361E+01
              0.420799722482442E+00
             -0.284308730159517E+01
             -0.538668542078788E+00
             -0.114074509558909E+01
             -0.234719544038802E+01
              0.165194805803984E+01
             -0.129975825316484E+01
             -0.301147190101700E+00
             -0.947624354669824E+00
             -0.383126869554005E+01
              0.211868705497191E+01
             -0.596505384196700E+00
              0.151661955849728E+01
             -0.287647787607399E+01
              0.248249000298652E+01
              0.269262174901481E+00
             -0.102581681905906E+01
              0.420562796136011E+00
             -0.831880984948487E+00
             -0.243167805078468E+01
              0.633419209310377E+00
              0.137968582253570E+01
             -0.329631367502898E-01
             -0.132659780579686E+01
             -0.576071076751315E+00
              0.697685241629255E+00
              0.140755304561366E+01
              0.237888062938672E+01
              0.877055611872731E+00
             -0.885265807660556E+00
              0.376872473618733E+01
              0.923156108331580E+00
              0.171083003525294E+01
             -0.686520095918553E+00
              0.118433986006084E+01
              0.857889270412804E+00
             -0.231305093639943E+01
             -0.900572804236663E+00
             -0.156501421054159E+01
             -0.151328022401177E+01
             -0.449631778303978E+00
             -0.376545014393411E+00
             -0.165591934225712E+01
             -0.423094579305428E+01
             -0.104876589667129E+01
              0.521687911836796E+00
              0.227504631416213E+00
              0.548207808631417E+00
              0.166756452849098E+01
              0.438949794606676E+00
              0.130041079396450E+01
             -0.159628242594824E+01
              0.165931485407727E+01
             -0.158658173131337E+01
             -0.264542772227349E+01
              0.799160026236549E+00
             -0.160436810871129E+01
             -0.149786035901616E+01
             -0.612175162765127E+01
             -0.258280134585205E+00
              0.323089576916626E+01
              0.163576345920857E+01
             -0.362927504733889E+00
             -0.430876359955670E+00
              0.167295620953339E+01
              0.246370821792115E+01
             -0.148994201982089E+01
             -0.540731023982090E+00
             -0.141060466947415E+01
             -0.131457726772909E+01
             -0.109564767390651E+01
              0.465354248899212E+00
              0.279411741774465E+01
             -0.241964649035347E+01
             -0.206882153951128E+01
              0.106502594261528E+00
             -0.561100177436360E+00
             -0.579109111743010E+00
             -0.352771737791958E+01
              0.232631532134089E+01
              0.797175193842737E+00
              0.409335127877524E+00
              0.205629009833267E+01
             -0.127553596653940E+01
              0.125633566180661E+01
              0.113583925369860E+01
              0.532103789381324E-01
             -0.273339018646346E+00
              0.327180639021647E+00
             -0.561194183395745E+00
              0.209255633644145E+01
             -0.156245302401925E+01
              0.180032114146559E+01
              0.291939457128025E+00
              0.581871168868174E+00
              0.807243443394277E+00
             -0.315287033656887E+01
              0.380755292229168E+00
             -0.251794129274018E+01
             -0.184162815688782E+01
             -0.185582385758464E+01
             -0.200812998400257E+01
             -0.268810832679662E-01
              0.694645219358820E+00
              0.196692554261730E+01
              0.305883852140715E+00
              0.555759267494143E+00
             -0.271345780318632E+01
             -0.107386973449446E+01
              0.121949367887123E+01
             -0.742080582447850E-01
             -0.861583131270347E-01
             -0.332944270467049E+00
              0.143141359540649E+01
             -0.348815782295034E+01
              0.515567719125110E+00
              0.831252189462571E+00
              0.149437640084558E+01
              0.143690240255808E+01
             -0.221460754759237E+01
              0.539411953562468E+00
              0.172512423808283E+00
              0.200822262623301E+00
              0.203658476203110E+00
             -0.627081309746302E+00
             -0.159145050333237E+01
              0.704855733108307E+00
              0.227318156742216E+01
             -0.507395870287795E-01
              0.498919616819128E+00
              0.500322720527647E+00
             -0.112707043877514E+01
             -0.124676722063117E+01
             -0.471074043540800E+01
             -0.140612003334417E+01
             -0.210814027668657E+01
             -0.181532404331062E+00
             -0.256483861635568E+01
              0.291323674217247E+01
             -0.126080576007158E+01
             -0.216157559580062E+01
             -0.604363833999686E+01
              0.258295199948409E+01
              0.535790570652072E+00
              0.332194396748662E+00
             -0.239907590091437E+01
              0.931404517658976E-01
             -0.647377822625779E+00
             -0.125245736730716E+01
              0.424897770750500E+00
              0.124120612826390E+01
              0.156867930667668E+00
             -0.753906775359216E+00
              0.795059742756941E-01
              0.116655262402006E-01
              0.589108740137242E+00
             -0.245630751585467E+01
              0.280397966270507E+01
             -0.165883785294611E+01
             -0.101098365135671E+01
             -0.186634461665825E+01
             -0.412064652764769E+01
              0.246779165325373E+00
             -0.224058393980353E+01
             -0.747475269001109E+00
              0.119989410436456E+01
             -0.104442113019058E+01
             -0.380995663151360E+00
             -0.507890515619202E+00
             -0.776552209996467E+00
              0.136978098930622E+00
              0.190733511358923E+01
             -0.190584142250959E+01
              0.388890624822004E+01
             -0.902929742667068E+00
              0.128078428020502E+01
             -0.631951183093002E+00
              0.467489409767597E+00
             -0.515592352256350E+00
              0.176045585994584E+01
              0.242105976272090E+01
              0.690321446862063E+00
              0.165446997398350E+01
             -0.122749514411892E+01
             -0.290650325339506E+00
             -0.880981508463748E+00
              0.247105090546989E+01
              0.204104545562441E+01
              0.154517931859495E+01
             -0.406797175223197E+00
             -0.101370513545694E+01
              0.924265776689194E+00
             -0.113956366719347E+01
             -0.524734541683937E+00
             -0.241449333649943E+00
             -0.126351439468870E+01
              0.192149618799372E+01
             -0.351213563573340E+00
              0.145018214869994E+01
              0.833583371700025E+00
              0.631993951207187E+00
             -0.133611291898637E+01
              0.964377078749996E+00
             -0.599641302917103E+00
             -0.238589980903475E+00
             -0.599882078917755E-01
             -0.184506498370533E+01
              0.303250643293809E+01
             -0.106484160434585E+01
             -0.654536982564906E-01
              0.905602829313386E+00
              0.816713622712836E+00
              0.297651151038773E+01
             -0.752250257140878E+00
              0.288894317271474E+01
              0.249373639473318E+01
             -0.348181958018542E+01
              0.370805978003321E+00
             -0.786553704334580E+00
              0.431380098712113E+00
              0.141358125335963E+00
              0.813221693292288E+00
              0.246494200870274E+01
              0.378462529064218E+01
             -0.280012605313273E+01
              0.293986402719726E+01
             -0.385887683371341E+01
             -0.327043342250209E+01
[...]
             -0.928414309260846E+00
              0.200281075242802E+01
              0.514864858762127E+00
             -0.311842341709276E+01
              0.122104351270772E+01
              0.204270746623951E+00
              0.364583601263512E+00
             -0.185406169375149E+01
              0.302894152987768E+00
              0.133631967361099E+01
              0.174841998474427E+01
              0.251553234547427E+01
              0.126026694927170E+01
              0.353768022363371E+00
             -0.209164976685735E+01
             -0.162597208618154E+01
             -0.252869638275041E+01
             -0.512571122089181E+00
              0.122868147198201E+01
              0.914251439595564E-01
              0.199777188594209E+01
             -0.122800596628722E+01
              0.748048040874828E+00
             -0.771565730009950E+00
             -0.101425723840172E+01
              0.224058722845885E+01
              0.206810894017801E+00
              0.239882895693808E+01
              0.167238998595749E+00
              0.752633182622365E+00
             -0.694591035575741E+00
              0.235532647925721E+01
             -0.568303762516808E+00
             -0.482735728655703E-01
             -0.300273308911132E+01
             -0.265666350200446E+00
              0.267363589072182E+01
              0.244301910865755E+01
              0.103239575117099E+01
             -0.722992090949265E+00
              0.194761723916518E+00
             -0.894873628885069E+00
             -0.735653610620001E+00
              0.348098833223677E+01
              0.281520817230856E+00
             -0.113024229615554E+01
             -0.412123562028655E+01
             -0.169155899160732E+01
             -0.143304254619259E+01
             -0.243316779722754E+01
             -0.220618062922183E+01
             -0.267899701227687E+01
             -0.170219033032053E+01
             -0.109512842313857E+01
             -0.191586625795820E+01
              0.167584885812866E+01
             -0.694856509570155E+00
             -0.327707908176426E+01
              0.150936987938863E+01
             -0.120271343504952E+01
             -0.312208043995600E+01
              0.383326771886144E+01
             -0.974105933572149E+00
              0.604731533385969E+00
              0.142103833782873E+01
              0.398564885999624E+00
              0.103260116282546E+01
              0.622446782126582E-01
              0.657744930712859E-01
             -0.431998129045373E+00
             -0.276068386967358E+01
              0.398127962643339E+00
             -0.461354487621271E+01
              0.272225806380186E+01
             -0.155532187146309E+01
             -0.794749320992072E+00
             -0.881793666904116E+00
              0.743468279663499E+00
             -0.589655469592856E+00
              0.111171364993192E+01
             -0.229934004898157E+01
              0.132188450912150E+01
              0.154862940916963E+01
              0.377003510456169E+00
              0.279975300071969E+00
              0.823442733796545E+00
              0.414885700371562E+00
              0.111610672257012E+01
             -0.124463076771821E+00
             -0.283080145847777E+01
              0.341165527157219E+00
             -0.121774570262617E+01
             -0.123593722239153E+00
              0.209613158714731E+01
             -0.299647587816902E+01
             -0.180550380670237E-01
              0.144537986801614E+00
              0.357727527231924E+00
              0.120221217425253E+01
             -0.439838545245229E+00
              0.327951326036210E+01
              0.146684343972570E+01
             -0.607074364329556E+00
             -0.371177583083231E+00
              0.228934917018814E+00
              0.302002201204211E+01
             -0.198112572369245E+01
             -0.388165789243261E+01
              0.105686498171487E+01
             -0.344487360796801E+00
             -0.499437888877022E+00
              0.762478512527449E+00
              0.292043866623489E+01
              0.161815737045152E+01
             -0.632488359074863E+00
             -0.206205322980642E+01
             -0.464466075504320E+00
              0.106789375381990E+01
             -0.662026205122856E+00
             -0.293295743141615E+01
             -0.321049584226997E+00
             -0.376170862683450E+01
             -0.205976423330639E+01
              0.329688704002881E+01
             -0.198669449609932E+01
             -0.272346434965206E+01
             -0.193893821017684E+01
             -0.151484783540657E+01
              0.122188218006476E+01
              0.327759233083104E+01
             -0.313768350696364E+00
              0.103039061224736E+01
             -0.796326022914308E+00
             -0.268069112199784E+01
              0.185065953217136E+01
             -0.183954565961156E+01
              0.944996750840753E+00
              0.117574392542564E+01
             -0.576845976195630E+00
              0.143922569960875E+01
              0.152178874047872E+01
              0.458519039719025E+01
             -0.375217197708714E+00
             -0.215686268532092E+01
             -0.255495919986695E+01
             -0.814472315866646E+00
             -0.151150595792919E+01
              0.352866675386799E+01
             -0.160580457131055E+01
              0.470166245996548E+00
              0.126451868493998E+00
             -0.769216212041583E+00
             -0.327678452020168E+01
             -0.208894886582975E+00
              0.383655898933953E+01
              0.840355837383548E+00
              0.297183520949810E+00
             -0.230493176410323E+01
             -0.221867510262052E+01
             -0.711346905869577E+00
              0.177697936040546E+01
             -0.975543371411781E+00
              0.391871243334687E+01
             -0.174625916940287E+01
              0.788380232959643E+00
             -0.544069870248361E+00
             -0.241732218384224E+01
              0.264589266220932E+00
             -0.214019295977112E+01
             -0.288495367210056E+01
              0.447078266296799E+00
              0.114575467240968E+00
              0.192952911366329E+01
              0.103951228016672E+01
             -0.129170090472149E+01
              0.822065968450232E+00
             -0.339083875230377E+01
             -0.187052298155112E+01
              0.353211775106297E+01
              0.269116200784359E+00
             -0.215929265001964E+00
             -0.101123619582766E+01
             -0.392598209126120E-01
             -0.485351846619650E+00
              0.339325141126188E+01
              0.151822637599159E+01
             -0.380319148670186E+00
             -0.327248307747752E-02
             -0.146820530488758E+01
             -0.543764916345310E+00
             -0.244137438621934E+01
              0.188195772243941E+01
              0.210198339939210E+00
              0.292602006519974E+00
              0.749963041338024E+00
             -0.481421209652155E+00
             -0.852263622176573E+00
              0.342195099065819E+00
             -0.432232432684888E+01
             -0.397266895795763E+00
             -0.329312098645429E+00
             -0.248450622351468E+00
              0.195440943400797E+01
              0.247468132834703E+01
              0.712764080611556E+00
             -0.362084491791164E+01
              0.249888911055005E+01
             -0.901131897134611E+00
             -0.146706117953968E+01
             -0.340244429383396E+01
             -0.100981121603034E+01
              0.243218728610677E+01
              0.115356756398296E+01
              0.471748629171646E+00
              0.135831465272958E+01
             -0.217517147636348E+01
             -0.192536755277694E+01
              0.230615868679222E+01
              0.161018274011924E+01
              0.185738805136663E+01
              0.266660929478490E+00
              0.335444462872767E+00
              0.206845329147558E+01
              0.380206423510278E+01
             -0.703748958289573E+00
              0.152795830635025E+01
             -0.109085488978990E+01
             -0.166487372497462E+01
             -0.130434980852809E+01
             -0.128323916682653E+01
             -0.566569682637386E+00
             -0.192344283468510E+01
             -0.738950182237350E+00
             -0.502660754270789E+01
              0.112097876767748E+01
              0.109044392110134E+01
             -0.147935474077177E+00
             -0.147534850555347E+01
             -0.755327088343568E+00
             -0.219532268922118E+01
              0.160601609338578E+00
              0.305584524446489E+01
             -0.751725672516894E+00
             -0.697386061031935E+00
              0.816347770535614E+00
             -0.187807173206856E+01
              0.326743566149719E+01
              0.575454992786365E+00
              0.325030662619326E+00
              0.203698930934160E+01
             -0.153014798306353E+00
              0.229554897681228E+01
              0.774777131145992E+00
             -0.496382814396092E-01
              0.533341481885158E+00
             -0.244881294572068E+00
              0.257720310802424E+01
              0.217171241562092E+00
              0.769240253932450E+00
             -0.306608812032842E+00
              0.397690219369052E+00
             -0.363952466382408E+01
             -0.134188932590786E+01
             -0.193515696687209E+01
              0.193841477838589E+01
             -0.133860795496500E+01
             -0.217357531674366E+01
              0.233589013191721E+01
             -0.516283846617510E+00
              0.156209612828210E+01
             -0.346956964200823E+01
              0.633119534970961E+00
              0.223763144584542E+00
              0.290085743786513E+00
             -0.533055782977474E+00
             -0.273190361918775E+00
              0.189091766448317E+01
              0.990334906964403E-01
             -0.208945853010528E+01
             -0.754439386624042E+00
              0.786446416715957E+00
             -0.435242975722607E+01
             -0.334175598265785E+01
              0.302400462546260E-01
              0.649996572225900E+00
             -0.186589148238944E+01
              0.608282631687516E-01
              0.397990517955577E+01
              0.118643902535006E+01
             -0.204855056015093E+01
              0.350790661452656E+00
             -0.471576992426047E+00
              0.409742342361538E+00
             -0.135966729462909E+01
              0.864233942069511E+00
              0.941909454142802E+00
             -0.405738452309972E+00
              0.438902204449869E+01
             -0.106475467990891E+00
             -0.120904101771368E+01
              0.120836250789568E+01
              0.162353204011402E+01
             -0.118287205350270E+01
             -0.837753697054238E-01
              0.372054789523209E+01
             -0.625131031999793E-01
              0.210200799819479E+01
              0.600107969829404E+00
             -0.315727408446391E+00
             -0.674452044308165E+00
              0.193410190253210E+01
             -0.233218153472401E+01
             -0.279995494130727E-01
             -0.774137547601370E+00
             -0.151410250259687E+01
              0.443205661811990E+00
              0.914355571106323E+00
             -0.302671717990570E-01
             -0.303515755133787E-01
             -0.165936704007644E+01
              0.683593094137406E+00
             -0.280166128897097E-01
             -0.915705927421382E+00
             -0.782360371788210E+00
              0.665948276243325E+00
              0.748801063186768E-01
             -0.148038489358514E+01
             -0.411090747321621E+01
              0.324286720955492E+00
              0.550230109211399E+00
             -0.191170427139312E+01
             -0.946570863805785E+00
              0.315424358017982E+01
              0.490019321731341E+00
              0.173173499718681E+01
              0.449895696130326E+00
              0.160524443345231E+01
              0.730011560522605E-01
             -0.154906868885263E+01
             -0.434185841945436E+00
              0.209466249279766E+00
              0.124583859443242E+01
              0.292310309035955E+01
              0.193528361092665E+01
              0.130199853289962E+00
              0.399357749830093E+00
              0.231519736711642E+01
              0.111623601025176E+01
             -0.266246415142059E+01
             -0.105384273544768E+01
              0.338887211151661E+00
              0.408759574094624E+00
              0.103584444955821E+01
             -0.197390990896429E+01
              0.260340374972864E+00
              0.157951975984347E+01
              0.192316188873447E+01
             -0.170333920312290E+01
              0.124896754996604E+00
             -0.125938937329968E+00
             -0.819731860848307E+00
             -0.108593633697807E+01
             -0.489319514800293E+00
             -0.457301145487557E+00
              0.417538190500284E+00
              0.161945744292397E+01
             -0.136078165271726E+01
              0.309044479771925E+01
              0.136654682057419E+01
              0.986333818013993E+00
              0.132876095772927E+01
              0.962876162046281E+00
              0.132984933201276E+01
              0.215605230683830E+01
             -0.180018996952391E+01
              0.239166316950110E+01
             -0.435326244043436E+01
              0.123439952134486E+01
             -0.410098243255222E+01
              0.319924692537294E+01
              0.299130707981433E+01
             -0.358202286024298E+00
             -0.182401396736958E+01
             -0.161689005605655E+01
             -0.207608924051822E+01
             -0.251705462614930E+01
              0.210974675598385E+01
              0.166908297473479E+01
              0.990155031361795E+00
              0.989933892912337E+00
              0.180619165913331E+01
             -0.158151109138234E+01
             -0.609935078295280E+00
              0.198124954061793E+01
             -0.402623559177388E+00
              0.188922559353669E+01
              0.299731360505031E+01
             -0.125812840958439E+00
             -0.289884934777704E+01
              0.114475196145143E+00
              0.298004543500593E-01
             -0.436011062930877E+00
              0.182742926032603E+00
             -0.247369641161718E+01
             -0.378678163257833E+00
              0.448530397432797E+00
              0.498395955639536E+00
              0.194792598149067E+01
             -0.169701926623629E+01
              0.197102710023876E+01
             -0.149602928313502E+01
              0.102700350329588E+01
              0.167427599404546E+01
 
 BEEF-vdW xc energy contributions
            1 :    -28.21736598919016     
            2 :     24.75311055670002     
            3 :    -18.81290574931104     
            4 :     11.98879851120855     
            5 :    -5.881867929478712     
            6 :     1.559770049888300     
            7 :    0.7105860335534508     
            8 :    -1.374467362822255     
            9 :     1.233054859541692     
           10 :    -1.018568951457450     
           11 :     1.103161768554084     
           12 :    -1.449001943768604     
           13 :     1.772461573900838     
           14 :    -1.794213799792299     
           15 :     1.426796827698393     
           16 :   -0.8111539269758019     
           17 :    0.2107298505180530     
           18 :    0.1515099637300779     
           19 :   -0.2100392805414728     
           20 :    6.7075831434475930E-002
           21 :    9.4144295767065955E-002
           22 :   -0.1290227865298306     
           23 :    1.0171167001626458E-002
           24 :    0.1749331685765902     
           25 :   -0.2944505187204349     
           26 :    0.2600158200462488     
           27 :   -7.7741558564337510E-002
           28 :   -0.1630104809844575     
           29 :    0.3486236390819570     
           30 :   -0.4073671601555127     
           31 :    -3.719230969571004     
           32 :    -2.667023801307444     

     Writing all to output data dir ./diamond.save/
 
     init_run     :      2.45s CPU      2.49s WALL (       1 calls)
     electrons    :      0.46s CPU      0.53s WALL (       1 calls)
     forces       :      0.05s CPU      0.06s WALL (       1 calls)
     stress       :      0.23s CPU      0.24s WALL (       1 calls)

     Called by init_run:
     wfcinit      :      0.05s CPU      0.06s WALL (       1 calls)
     potinit      :      2.32s CPU      2.33s WALL (       1 calls)
     hinit0       :      0.04s CPU      0.05s WALL (       1 calls)

     Called by electrons:
     c_bands      :      0.32s CPU      0.37s WALL (       2 calls)
     sum_band     :      0.04s CPU      0.04s WALL (       2 calls)
     v_of_rho     :      2.29s CPU      2.30s WALL (       2 calls)
     v_h          :      0.00s CPU      0.00s WALL (       2 calls)
     v_xc         :      3.35s CPU      3.42s WALL (      38 calls)
     newd         :      0.00s CPU      0.00s WALL (       2 calls)
     PAW_pot      :      0.11s CPU      0.11s WALL (       2 calls)
     mix_rho      :      0.00s CPU      0.00s WALL (       2 calls)
     vdW_kernel   :      2.23s CPU      2.24s WALL (       1 calls)

     Called by c_bands:
     init_us_2    :      0.00s CPU      0.00s WALL (      78 calls)
     init_us_2:cp :      0.00s CPU      0.00s WALL (      78 calls)
     cegterg      :      0.29s CPU      0.30s WALL (      26 calls)

     Called by sum_band:
     sum_band:wei :      0.00s CPU      0.00s WALL (       2 calls)
     sum_band:loo :      0.04s CPU      0.04s WALL (       2 calls)
     sum_band:buf :      0.00s CPU      0.00s WALL (      26 calls)
     sum_band:ini :      0.00s CPU      0.00s WALL (      26 calls)
     sum_band:cal :      0.00s CPU      0.00s WALL (      26 calls)
     sum_band:bec :      0.00s CPU      0.00s WALL (      26 calls)
     addusdens    :      0.00s CPU      0.00s WALL (       2 calls)
                                        0.00s GPU  (       2 calls)
     addusd:skk   :      0.00s CPU      0.00s WALL (       2 calls)
                                        0.00s GPU  (       2 calls)

     Called by *egterg:
     cdiaghg      :      0.07s CPU      0.07s WALL (      96 calls)
     cegterg:over :      0.02s CPU      0.02s WALL (      96 calls)
     cegterg:upda :      0.00s CPU      0.01s WALL (      96 calls)
     cegterg:last :      0.00s CPU      0.00s WALL (      26 calls)
     h_psi        :      0.18s CPU      0.19s WALL (     122 calls)
     s_psi        :      0.01s CPU      0.01s WALL (     122 calls)
     g_psi        :      0.00s CPU      0.00s WALL (      96 calls)

     Called by h_psi:
     h_psi:calbec :      0.01s CPU      0.01s WALL (     122 calls)
     vloc_psi     :      0.16s CPU      0.16s WALL (     122 calls)
     add_vuspsi   :      0.01s CPU      0.01s WALL (     122 calls)

     General routines
     calbec       :      0.03s CPU      0.03s WALL (     213 calls)
     fft          :      0.46s CPU      0.48s WALL (    2232 calls)
     ffts         :      0.00s CPU      0.00s WALL (       4 calls)
     fftw         :      0.17s CPU      0.18s WALL (    2906 calls)
     interpolate  :      0.00s CPU      0.00s WALL (       2 calls)
 
     Parallel routines

     PAW routines
     PAW_pot      :      0.11s CPU      0.11s WALL (       2 calls)
     PAW_symme    :      0.00s CPU      0.00s WALL (       3 calls)
 
     PWSCF        :      4.39s CPU      4.80s WALL

 
   This run was terminated on:  22:22:10  27Mar2024            

=------------------------------------------------------------------------------=
   JOB DONE.
=------------------------------------------------------------------------------=
