
     Program PWSCF v.7.1 starts on 29Sep2023 at  8: 6:53 

     This program is part of the open-source Quantum ESPRESSO suite
     for quantum simulation of materials; please cite
         "P. Giannozzi et al., J. Phys.:Condens. Matter 21 395502 (2009);
         "P. Giannozzi et al., J. Phys.:Condens. Matter 29 465901 (2017);
         "P. Giannozzi et al., J. Chem. Phys. 152 154105 (2020);
          URL http://www.quantum-espresso.org", 
     in publications or presentations arising from this work. More details at
     http://www.quantum-espresso.org/quote

     Parallel version (MPI & OpenMP), running on     128 processor cores
     Number of MPI processes:               128
     Threads/MPI process:                     1

     MPI processes distributed on     1 nodes
     1172792 MiB available memory on the printing compute node when the environment starts
 
     Reading input from espresso.pwi
Warning: card &CELL ignored
Warning: card    CELL_DYNAMICS    = 'BFGS' ignored
Warning: card / ignored

     Current dimensions of program PWSCF are:
     Max number of different atomic species (ntypx) = 10
     Max number of k-points (npk) =  40000
     Max angular momentum in pseudopotentials (lmaxx) =  4
     file Ga.pbe-dn-kjpaw_psl.1.0.0.UPF: wavefunction(s)  4S renormalized
     file N.pbe-n-kjpaw_psl.1.0.0.UPF: wavefunction(s)  2S renormalized

     **************************************************************************
     Initializing libbeef V0.1.2 with the BEEF-vdW functional.
     Citation: Wellendorff et al., PRB 85, 235149 (2012).
     **************************************************************************


     IMPORTANT: XC functional enforced from input :
     Exchange-correlation= BEEF-VDW
                           (   1   4  43  14   2   0   0)
     Any further DFT definition will be discarded
     Please, verify this is what you really want

     Found identity + (  0.0000  0.0000  0.5000) symmetry
     This is a supercell, fractional translations are disabled
 
     K-points division:     npool     =       4
     R & G space division:  proc/nbgrp/npool/nimage =      32
     Subspace diagonalization in iterative solution of the eigenvalue problem:
     a serial algorithm will be used

 
     Parallelization info
     --------------------
     sticks:   dense  smooth     PW     G-vecs:    dense   smooth      PW
     Min         253     203     54                20226    14477    1979
     Max         255     204     56                20235    14484    1982
     Sum        8137    6505   1735               647327   463355   63361
 
     Using Slab Decomposition
 


     bravais-lattice index     =            4
     lattice parameter (alat)  =      18.3939  a.u.
     unit-cell volume          =    5856.2271 (a.u.)^3
     number of atoms/cell      =           72
     number of atomic types    =            2
     number of electrons       =       648.00
     number of Kohn-Sham states=          389
     kinetic-energy cutoff     =      70.0000  Ry
     charge density cutoff     =     350.0000  Ry
     scf convergence threshold =      1.0E-09
     mixing beta               =       0.7000
     number of iterations used =            8  plain     mixing
     energy convergence thresh.=      1.0E-04
     force convergence thresh. =      1.0E-03
     Exchange-correlation= BEEF-VDW
                           (   1   4  43  14   2   0   0)
     nstep                     =           50


     celldm(1)=  18.393924  celldm(2)=   0.000000  celldm(3)=   1.086586
     celldm(4)=   0.000000  celldm(5)=   0.000000  celldm(6)=   0.000000

     crystal axes: (cart. coord. in units of alat)
               a(1) = (   1.000000   0.000000   0.000000 )  
               a(2) = (  -0.500000   0.866025   0.000000 )  
               a(3) = (   0.000000   0.000000   1.086586 )  

     reciprocal axes: (cart. coord. in units 2 pi/alat)
               b(1) = (  1.000000  0.577350 -0.000000 )  
               b(2) = (  0.000000  1.154701  0.000000 )  
               b(3) = (  0.000000 -0.000000  0.920314 )  


     PseudoPot. # 1 for Ga read from file:
     //group///packages/espresso/pseudo/psl_1.0.0/pslibrary.1.0.0/pbe/PSEUDOPOTENTIALS/Ga.pbe-dn-kjpaw_psl.1.0.0.UPF
     MD5 check sum: cd2a01e492f15b435d17032472d8505c
     Pseudo is Projector augmented-wave + core cor, Zval = 13.0
     Generated using 'atomic' code by A. Dal Corso  v.7.1
     Shape of augmentation charge: PSQ
     Using radial grid of 1205 points,  6 beta functions with: 
                l(1) =   0
                l(2) =   0
                l(3) =   1
                l(4) =   1
                l(5) =   2
                l(6) =   2
     Q(r) pseudized with 0 coefficients 


     PseudoPot. # 2 for N  read from file:
     //group///packages/espresso/pseudo/psl_1.0.0/pslibrary.1.0.0/pbe/PSEUDOPOTENTIALS/N.pbe-n-kjpaw_psl.1.0.0.UPF
     MD5 check sum: f77f775694dac7e2c3fe1c82443d1a16
     Pseudo is Projector augmented-wave + core cor, Zval =  5.0
     Generated using 'atomic' code by A. Dal Corso  v.7.1
     Shape of augmentation charge: PSQ
     Using radial grid of 1085 points,  4 beta functions with: 
                l(1) =   0
                l(2) =   0
                l(3) =   1
                l(4) =   1
     Q(r) pseudized with 0 coefficients 


     atomic species   valence    mass     pseudopotential
        Ga            13.00    69.72300     Ga( 1.00)
        N              5.00    14.00700     N ( 1.00)

      6 Sym. Ops. (no inversion) found


                                    s                        frac. trans.

      isym =  1     identity                                     

 cryst.   s( 1) = (     1          0          0      )
                  (     0          1          0      )
                  (     0          0          1      )

 cart.    s( 1) = (  1.0000000  0.0000000  0.0000000 )
                  (  0.0000000  1.0000000  0.0000000 )
                  (  0.0000000  0.0000000  1.0000000 )


      isym =  2     120 deg rotation - cryst. axis [0,0,1]       

 cryst.   s( 2) = (     0          1          0      )
                  (    -1         -1          0      )
                  (     0          0          1      )

 cart.    s( 2) = ( -0.5000000 -0.8660254  0.0000000 )
                  (  0.8660254 -0.5000000  0.0000000 )
                  (  0.0000000  0.0000000  1.0000000 )


      isym =  3     120 deg rotation - cryst. axis [0,0,-1]      

 cryst.   s( 3) = (    -1         -1          0      )
                  (     1          0          0      )
                  (     0          0          1      )

 cart.    s( 3) = ( -0.5000000  0.8660254  0.0000000 )
                  ( -0.8660254 -0.5000000  0.0000000 )
                  (  0.0000000  0.0000000  1.0000000 )


      isym =  4     inv. 180 deg rotation - cart. axis [1,0,0]   

 cryst.   s( 4) = (    -1          0          0      )
                  (     1          1          0      )
                  (     0          0          1      )

 cart.    s( 4) = ( -1.0000000  0.0000000  0.0000000 )
                  (  0.0000000  1.0000000  0.0000000 )
                  (  0.0000000  0.0000000  1.0000000 )


      isym =  5     inv. 180 deg rotation - cryst. axis [0,1,0]  

 cryst.   s( 5) = (     1          1          0      )
                  (     0         -1          0      )
                  (     0          0          1      )

 cart.    s( 5) = (  0.5000000  0.8660254  0.0000000 )
                  (  0.8660254 -0.5000000  0.0000000 )
                  (  0.0000000  0.0000000  1.0000000 )


      isym =  6     inv. 180 deg rotation - cryst. axis [1,1,0]  

 cryst.   s( 6) = (     0         -1          0      )
                  (    -1          0          0      )
                  (     0          0          1      )

 cart.    s( 6) = (  0.5000000 -0.8660254  0.0000000 )
                  ( -0.8660254 -0.5000000  0.0000000 )
                  (  0.0000000  0.0000000  1.0000000 )


     point group C_3v (3m)  
     there are  3 classes
     the character table:

       E     2C3   3s_v 
A_1    1.00  1.00  1.00
A_2    1.00  1.00 -1.00
E      2.00 -1.00  0.00

     the symmetry operations in each class and the name of the first element:

     E        1
          identity                                               
     2C3      2    3
          120 deg rotation - cryst. axis [0,0,1]                 
     3s_v     4    5    6
          inv. 180 deg rotation - cart. axis [1,0,0]             

   Cartesian axes

     site n.     atom                  positions (alat units)
         1           Ga  tau(   1) = (   0.1666668   0.0962250   0.2711914  )
         2           Ga  tau(   2) = (   0.1666668   0.0962250   0.8144844  )
         3           Ga  tau(   3) = (   0.0000001   0.3849001   0.2711914  )
         4           Ga  tau(   4) = (   0.0000001   0.3849001   0.8144844  )
         5           Ga  tau(   5) = (  -0.1666665   0.6735752   0.2711914  )
         6           Ga  tau(   6) = (  -0.1666665   0.6735752   0.8144844  )
         7           Ga  tau(   7) = (   0.5000001   0.0962250   0.2711914  )
         8           Ga  tau(   8) = (   0.5000001   0.0962250   0.8144844  )
         9           Ga  tau(   9) = (   0.3333335   0.3849001   0.2711914  )
        10           Ga  tau(  10) = (   0.3333335   0.3849001   0.8144844  )
        11           Ga  tau(  11) = (   0.1666668   0.6735752   0.2711914  )
        12           Ga  tau(  12) = (   0.1666668   0.6735752   0.8144844  )
        13           Ga  tau(  13) = (   0.8333335   0.0962250   0.2711914  )
        14           Ga  tau(  14) = (   0.8333335   0.0962250   0.8144844  )
        15           Ga  tau(  15) = (   0.6666668   0.3849001   0.2711914  )
        16           Ga  tau(  16) = (   0.6666668   0.3849001   0.8144844  )
        17           Ga  tau(  17) = (   0.5000001   0.6735752   0.2711914  )
        18           Ga  tau(  18) = (   0.5000001   0.6735752   0.8144844  )
        19           Ga  tau(  19) = (  -0.0000002   0.1924502   0.5428379  )
        20           Ga  tau(  20) = (  -0.0000002   0.1924502   1.0861309  )
        21           Ga  tau(  21) = (  -0.1666669   0.4811254   0.5428379  )
        22           Ga  tau(  22) = (  -0.1666669   0.4811254   1.0861309  )
        23           Ga  tau(  23) = (  -0.3333335   0.7698005   0.5428379  )
        24           Ga  tau(  24) = (  -0.3333335   0.7698005   1.0861309  )
        25           Ga  tau(  25) = (   0.3333331   0.1924502   0.5428379  )
        26           Ga  tau(  26) = (   0.3333331   0.1924502   1.0861309  )
        27           Ga  tau(  27) = (   0.1666665   0.4811254   0.5428379  )
        28           Ga  tau(  28) = (   0.1666665   0.4811254   1.0861309  )
        29           Ga  tau(  29) = (  -0.0000002   0.7698005   0.5428379  )
        30           Ga  tau(  30) = (  -0.0000002   0.7698005   1.0861309  )
        31           Ga  tau(  31) = (   0.6666665   0.1924502   0.5428379  )
        32           Ga  tau(  32) = (   0.6666665   0.1924502   1.0861309  )
        33           Ga  tau(  33) = (   0.4999998   0.4811254   0.5428379  )
        34           Ga  tau(  34) = (   0.4999998   0.4811254   1.0861309  )
        35           Ga  tau(  35) = (   0.3333331   0.7698005   0.5428379  )
        36           Ga  tau(  36) = (   0.3333331   0.7698005   1.0861309  )
        37           N   tau(  37) = (   0.1666668   0.0962250   0.4758365  )
        38           N   tau(  38) = (   0.1666668   0.0962250   1.0191295  )
        39           N   tau(  39) = (   0.0000001   0.3849001   0.4758365  )
        40           N   tau(  40) = (   0.0000001   0.3849001   1.0191295  )
        41           N   tau(  41) = (  -0.1666665   0.6735752   0.4758365  )
        42           N   tau(  42) = (  -0.1666665   0.6735752   1.0191295  )
        43           N   tau(  43) = (   0.5000001   0.0962250   0.4758365  )
        44           N   tau(  44) = (   0.5000001   0.0962250   1.0191295  )
        45           N   tau(  45) = (   0.3333335   0.3849001   0.4758365  )
        46           N   tau(  46) = (   0.3333335   0.3849001   1.0191295  )
        47           N   tau(  47) = (   0.1666668   0.6735752   0.4758365  )
        48           N   tau(  48) = (   0.1666668   0.6735752   1.0191295  )
        49           N   tau(  49) = (   0.8333335   0.0962250   0.4758365  )
        50           N   tau(  50) = (   0.8333335   0.0962250   1.0191295  )
        51           N   tau(  51) = (   0.6666668   0.3849001   0.4758365  )
        52           N   tau(  52) = (   0.6666668   0.3849001   1.0191295  )
        53           N   tau(  53) = (   0.5000001   0.6735752   0.4758365  )
        54           N   tau(  54) = (   0.5000001   0.6735752   1.0191295  )
        55           N   tau(  55) = (  -0.0000002   0.1924502   0.2041900  )
        56           N   tau(  56) = (  -0.0000002   0.1924502   0.7474830  )
        57           N   tau(  57) = (  -0.1666669   0.4811254   0.2041900  )
        58           N   tau(  58) = (  -0.1666669   0.4811254   0.7474830  )
        59           N   tau(  59) = (  -0.3333335   0.7698005   0.2041900  )
        60           N   tau(  60) = (  -0.3333335   0.7698005   0.7474830  )
        61           N   tau(  61) = (   0.3333331   0.1924502   0.2041900  )
        62           N   tau(  62) = (   0.3333331   0.1924502   0.7474830  )
        63           N   tau(  63) = (   0.1666665   0.4811254   0.2041900  )
        64           N   tau(  64) = (   0.1666665   0.4811254   0.7474830  )
        65           N   tau(  65) = (  -0.0000002   0.7698005   0.2041900  )
        66           N   tau(  66) = (  -0.0000002   0.7698005   0.7474830  )
        67           N   tau(  67) = (   0.6666665   0.1924502   0.2041900  )
        68           N   tau(  68) = (   0.6666665   0.1924502   0.7474830  )
        69           N   tau(  69) = (   0.4999998   0.4811254   0.2041900  )
        70           N   tau(  70) = (   0.4999998   0.4811254   0.7474830  )
        71           N   tau(  71) = (   0.3333331   0.7698005   0.2041900  )
        72           N   tau(  72) = (   0.3333331   0.7698005   0.7474830  )

   Crystallographic axes

     site n.     atom                  positions (cryst. coord.)
         1           Ga  tau(   1) = (  0.2222223  0.1111110  0.2495811  )
         2           Ga  tau(   2) = (  0.2222223  0.1111110  0.7495811  )
         3           Ga  tau(   3) = (  0.2222223  0.4444444  0.2495811  )
         4           Ga  tau(   4) = (  0.2222223  0.4444444  0.7495811  )
         5           Ga  tau(   5) = (  0.2222223  0.7777777  0.2495811  )
         6           Ga  tau(   6) = (  0.2222223  0.7777777  0.7495811  )
         7           Ga  tau(   7) = (  0.5555557  0.1111110  0.2495811  )
         8           Ga  tau(   8) = (  0.5555557  0.1111110  0.7495811  )
         9           Ga  tau(   9) = (  0.5555557  0.4444444  0.2495811  )
        10           Ga  tau(  10) = (  0.5555557  0.4444444  0.7495811  )
        11           Ga  tau(  11) = (  0.5555557  0.7777777  0.2495811  )
        12           Ga  tau(  12) = (  0.5555557  0.7777777  0.7495811  )
        13           Ga  tau(  13) = (  0.8888890  0.1111110  0.2495811  )
        14           Ga  tau(  14) = (  0.8888890  0.1111110  0.7495811  )
        15           Ga  tau(  15) = (  0.8888890  0.4444444  0.2495811  )
        16           Ga  tau(  16) = (  0.8888890  0.4444444  0.7495811  )
        17           Ga  tau(  17) = (  0.8888890  0.7777777  0.2495811  )
        18           Ga  tau(  18) = (  0.8888890  0.7777777  0.7495811  )
        19           Ga  tau(  19) = (  0.1111110  0.2222224  0.4995811  )
        20           Ga  tau(  20) = (  0.1111110  0.2222224  0.9995811  )
        21           Ga  tau(  21) = (  0.1111110  0.5555557  0.4995811  )
        22           Ga  tau(  22) = (  0.1111110  0.5555557  0.9995811  )
        23           Ga  tau(  23) = (  0.1111110  0.8888891  0.4995811  )
        24           Ga  tau(  24) = (  0.1111110  0.8888891  0.9995811  )
        25           Ga  tau(  25) = (  0.4444443  0.2222224  0.4995811  )
        26           Ga  tau(  26) = (  0.4444443  0.2222224  0.9995811  )
        27           Ga  tau(  27) = (  0.4444443  0.5555557  0.4995811  )
        28           Ga  tau(  28) = (  0.4444443  0.5555557  0.9995811  )
        29           Ga  tau(  29) = (  0.4444443  0.8888891  0.4995811  )
        30           Ga  tau(  30) = (  0.4444443  0.8888891  0.9995811  )
        31           Ga  tau(  31) = (  0.7777777  0.2222224  0.4995811  )
        32           Ga  tau(  32) = (  0.7777777  0.2222224  0.9995811  )
        33           Ga  tau(  33) = (  0.7777777  0.5555557  0.4995811  )
        34           Ga  tau(  34) = (  0.7777777  0.5555557  0.9995811  )
        35           Ga  tau(  35) = (  0.7777777  0.8888891  0.4995811  )
        36           Ga  tau(  36) = (  0.7777777  0.8888891  0.9995811  )
        37           N   tau(  37) = (  0.2222223  0.1111110  0.4379189  )
        38           N   tau(  38) = (  0.2222223  0.1111110  0.9379189  )
        39           N   tau(  39) = (  0.2222223  0.4444444  0.4379189  )
        40           N   tau(  40) = (  0.2222223  0.4444444  0.9379189  )
        41           N   tau(  41) = (  0.2222223  0.7777777  0.4379189  )
        42           N   tau(  42) = (  0.2222223  0.7777777  0.9379189  )
        43           N   tau(  43) = (  0.5555557  0.1111110  0.4379189  )
        44           N   tau(  44) = (  0.5555557  0.1111110  0.9379189  )
        45           N   tau(  45) = (  0.5555557  0.4444444  0.4379189  )
        46           N   tau(  46) = (  0.5555557  0.4444444  0.9379189  )
        47           N   tau(  47) = (  0.5555557  0.7777777  0.4379189  )
        48           N   tau(  48) = (  0.5555557  0.7777777  0.9379189  )
        49           N   tau(  49) = (  0.8888890  0.1111110  0.4379189  )
        50           N   tau(  50) = (  0.8888890  0.1111110  0.9379189  )
        51           N   tau(  51) = (  0.8888890  0.4444444  0.4379189  )
        52           N   tau(  52) = (  0.8888890  0.4444444  0.9379189  )
        53           N   tau(  53) = (  0.8888890  0.7777777  0.4379189  )
        54           N   tau(  54) = (  0.8888890  0.7777777  0.9379189  )
        55           N   tau(  55) = (  0.1111110  0.2222224  0.1879189  )
        56           N   tau(  56) = (  0.1111110  0.2222224  0.6879189  )
        57           N   tau(  57) = (  0.1111110  0.5555557  0.1879189  )
        58           N   tau(  58) = (  0.1111110  0.5555557  0.6879189  )
        59           N   tau(  59) = (  0.1111110  0.8888891  0.1879189  )
        60           N   tau(  60) = (  0.1111110  0.8888891  0.6879189  )
        61           N   tau(  61) = (  0.4444443  0.2222224  0.1879189  )
        62           N   tau(  62) = (  0.4444443  0.2222224  0.6879189  )
        63           N   tau(  63) = (  0.4444443  0.5555557  0.1879189  )
        64           N   tau(  64) = (  0.4444443  0.5555557  0.6879189  )
        65           N   tau(  65) = (  0.4444443  0.8888891  0.1879189  )
        66           N   tau(  66) = (  0.4444443  0.8888891  0.6879189  )
        67           N   tau(  67) = (  0.7777777  0.2222224  0.1879189  )
        68           N   tau(  68) = (  0.7777777  0.2222224  0.6879189  )
        69           N   tau(  69) = (  0.7777777  0.5555557  0.1879189  )
        70           N   tau(  70) = (  0.7777777  0.5555557  0.6879189  )
        71           N   tau(  71) = (  0.7777777  0.8888891  0.1879189  )
        72           N   tau(  72) = (  0.7777777  0.8888891  0.6879189  )

     number of k points=     4  Gaussian smearing, width (Ry)=  0.0100
                       cart. coord. in units 2pi/alat
        k(    1) = (   0.0000000   0.0000000   0.0000000), wk =   0.2500000
        k(    2) = (   0.0000000   0.0000000  -0.4601568), wk =   0.2500000
        k(    3) = (   0.0000000  -0.5773503   0.0000000), wk =   0.7500000
        k(    4) = (   0.0000000  -0.5773503  -0.4601568), wk =   0.7500000

                       cryst. coord.
        k(    1) = (   0.0000000   0.0000000   0.0000000), wk =   0.2500000
        k(    2) = (   0.0000000   0.0000000  -0.5000000), wk =   0.2500000
        k(    3) = (   0.0000000  -0.5000000   0.0000000), wk =   0.7500000
        k(    4) = (   0.0000000  -0.5000000  -0.5000000), wk =   0.7500000

     Dense  grid:   647327 G-vectors     FFT dimensions: ( 120, 120, 120)

     Smooth grid:   463355 G-vectors     FFT dimensions: ( 100, 100, 108)

     Dynamical RAM for                 wfc:      10.74 MB

     Dynamical RAM for     wfc (w. buffer):      10.74 MB

     Dynamical RAM for           str. fact:       0.62 MB

     Dynamical RAM for           local pot:       0.00 MB

     Dynamical RAM for          nlocal pot:      25.84 MB

     Dynamical RAM for                qrad:       3.00 MB

     Dynamical RAM for          rho,v,vnew:       2.24 MB

     Dynamical RAM for               rhoin:       0.75 MB

     Dynamical RAM for            rho*nmix:       4.94 MB

     Dynamical RAM for           G-vectors:       1.27 MB

     Dynamical RAM for          h,s,v(r/c):     110.83 MB

     Dynamical RAM for          <psi|beta>:       5.56 MB

     Dynamical RAM for                 psi:      42.95 MB

     Dynamical RAM for                hpsi:      42.95 MB

     Dynamical RAM for                spsi:      42.95 MB

     Dynamical RAM for      wfcinit/wfcrot:      24.94 MB

     Dynamical RAM for           addusdens:      17.37 MB

     Dynamical RAM for          addusforce:      22.83 MB

     Dynamical RAM for         addusstress:      15.63 MB

     Estimated static dynamical RAM per process >      47.58 MB

     Estimated max dynamical RAM per process >     297.76 MB

     Estimated total dynamical RAM >      36.76 GB

     Atomic positions and unit cell read from directory:
     ./GaN.save/
     Message from routine qexsd_readschema :
     xml data file ./GaN.save/data-file-schema.xml not found
     Nothing found: using input atomic positions and unit cell


     Check: negative core charge=   -0.000003
     Cannot read rho : file not found

     Initial potential from superposition of free atoms

     starting charge     647.8934, renormalised to     648.0000


     %%%%%%%%%%%%%%%%%%%%%%%%%%%%%%%%%%%%%%%%%%%%%%%%%%%%%%%%%%%%%%%%%%%%%%%%
     %                                                                      %
     % You are using vdW-DF, which was implemented by the Thonhauser group. %
     % Please cite the following two papers that made this development      %
     % possible and the two reviews that describe the various versions:     %
     %                                                                      %
     %   T. Thonhauser et al., PRL 115, 136402 (2015).                      %
     %   T. Thonhauser et al., PRB 76, 125112 (2007).                       %
     %   K. Berland et al., Rep. Prog. Phys. 78, 066501 (2015).             %
     %   D.C. Langreth et al., J. Phys.: Condens. Matter 21, 084203 (2009). %
     %                                                                      %
     % If you are calculating stress with vdW-DF, please also cite:         %
     %                                                                      %
     %   R. Sabatini et al., J. Phys.: Condens. Matter 24, 424209 (2012).   %
     %                                                                      %
     %%%%%%%%%%%%%%%%%%%%%%%%%%%%%%%%%%%%%%%%%%%%%%%%%%%%%%%%%%%%%%%%%%%%%%%%

     %%%%%%%%%%%%%%%%%%%%%%%%%%%%%%%%%%%%%%%%%%%%%%%%%%%%%%%%%%%%%%%%%%%%%%%%
     %                                                                      %
     %  vdW-DF NEWS:                                                        %
     %                                                                      %
     %  * vdW-DF3 is now available. DOI: 10.1021/acs.jctc.0c00471           %
     %    use with input_dft = 'vdW-DF3-opt1' or 'vdW-DF3-opt2'             %
     %                                                                      %
     %  * Unscreened and range-separated vdW-DF hybrid functionals          %
     %    DOI: 10.1063/1.4986522 and 10.1088/1361-648X/ac2ad2               %
     %    use with input_dft = 'vdW-DF-cx0' (etc) and 'vdW-DF-ahcx'         %
     %                                                                      %
     %%%%%%%%%%%%%%%%%%%%%%%%%%%%%%%%%%%%%%%%%%%%%%%%%%%%%%%%%%%%%%%%%%%%%%%%


     Carrying out vdW-DF run using the following parameters:
     Nqs    =  20  Npoints =  1024  r_max =  100.000
     q_mesh =  0.00001000  0.04494208  0.09755937  0.15916263
               0.23128650  0.31572767  0.41458969  0.53033537
               0.66584808  0.82450364  1.01025438  1.22772762
               1.48234092  1.78043706  2.12944203  2.53805004
               3.01644009  3.57652955  4.23227104  5.00000000


     -----------------------------------------------
     Non-local corr. energy    =      18.62120724 Ry
     -----------------------------------------------

     Message from routine qexsd_readschema :
     xml data file ./GaN.save/data-file-schema.xml not found
     Cannot read wfcs: file not found
     Starting wfcs are  468 randomized atomic wfcs
     Checking if some PAW data can be deallocated... 
       PAW data deallocated on   56 nodes for type:  1
       PAW data deallocated on   72 nodes for type:  2

     total cpu time spent up to now is        5.4 secs

     Self-consistent Calculation

     iteration #  1     ecut=    70.00 Ry     beta= 0.70
     Davidson diagonalization with overlap

---- Real-time Memory Report at c_bands before calling an iterative solver
           247 MiB given to the printing process from OS
             0 MiB allocation reported by mallinfo(arena+hblkhd)
       1161981 MiB available memory on the node where the printing process lives
------------------
     ethr =  1.00E-05,  avg # of iterations = 15.3


     -----------------------------------------------
     Non-local corr. energy    =      19.57789685 Ry
     -----------------------------------------------


     total cpu time spent up to now is       45.4 secs

     total energy              =  -11232.17347807 Ry
     estimated scf accuracy    <      21.90981329 Ry

     iteration #  2     ecut=    70.00 Ry     beta= 0.70
     Davidson diagonalization with overlap

---- Real-time Memory Report at c_bands before calling an iterative solver
           435 MiB given to the printing process from OS
             0 MiB allocation reported by mallinfo(arena+hblkhd)
       1158717 MiB available memory on the node where the printing process lives
------------------
     ethr =  3.38E-03,  avg # of iterations =  8.0


     -----------------------------------------------
     Non-local corr. energy    =      19.31996230 Ry
     -----------------------------------------------


     total cpu time spent up to now is       64.1 secs

     total energy              =  -11237.72538346 Ry
     estimated scf accuracy    <      24.77743138 Ry

     iteration #  3     ecut=    70.00 Ry     beta= 0.70
     Davidson diagonalization with overlap

---- Real-time Memory Report at c_bands before calling an iterative solver
           435 MiB given to the printing process from OS
             0 MiB allocation reported by mallinfo(arena+hblkhd)
       1158797 MiB available memory on the node where the printing process lives
------------------
     ethr =  3.38E-03,  avg # of iterations =  3.8


     -----------------------------------------------
     Non-local corr. energy    =      19.65727743 Ry
     -----------------------------------------------


     total cpu time spent up to now is       76.1 secs

     total energy              =  -11242.35042669 Ry
     estimated scf accuracy    <       0.13178206 Ry

     iteration #  4     ecut=    70.00 Ry     beta= 0.70
     Davidson diagonalization with overlap

---- Real-time Memory Report at c_bands before calling an iterative solver
           435 MiB given to the printing process from OS
             0 MiB allocation reported by mallinfo(arena+hblkhd)
       1158634 MiB available memory on the node where the printing process lives
------------------
     ethr =  2.03E-05,  avg # of iterations =  8.3


     -----------------------------------------------
     Non-local corr. energy    =      19.58659136 Ry
     -----------------------------------------------


     total cpu time spent up to now is      114.2 secs

     total energy              =  -11242.44125942 Ry
     estimated scf accuracy    <       0.01316145 Ry

     iteration #  5     ecut=    70.00 Ry     beta= 0.70
     Davidson diagonalization with overlap

---- Real-time Memory Report at c_bands before calling an iterative solver
           435 MiB given to the printing process from OS
             0 MiB allocation reported by mallinfo(arena+hblkhd)
       1158663 MiB available memory on the node where the printing process lives
------------------
     ethr =  2.03E-06,  avg # of iterations =  4.3


     -----------------------------------------------
     Non-local corr. energy    =      19.64265167 Ry
     -----------------------------------------------


     total cpu time spent up to now is      126.4 secs

     total energy              =  -11242.44400500 Ry
     estimated scf accuracy    <       0.00429034 Ry

     iteration #  6     ecut=    70.00 Ry     beta= 0.70
     Davidson diagonalization with overlap

---- Real-time Memory Report at c_bands before calling an iterative solver
           435 MiB given to the printing process from OS
             0 MiB allocation reported by mallinfo(arena+hblkhd)
       1158617 MiB available memory on the node where the printing process lives
------------------
     ethr =  6.62E-07,  avg # of iterations = 12.0


     -----------------------------------------------
     Non-local corr. energy    =      19.62884185 Ry
     -----------------------------------------------


     total cpu time spent up to now is      165.0 secs

     total energy              =  -11242.44406101 Ry
     estimated scf accuracy    <       0.00569910 Ry

     iteration #  7     ecut=    70.00 Ry     beta= 0.70
     Davidson diagonalization with overlap

---- Real-time Memory Report at c_bands before calling an iterative solver
           435 MiB given to the printing process from OS
             0 MiB allocation reported by mallinfo(arena+hblkhd)
       1157673 MiB available memory on the node where the printing process lives
------------------
     ethr =  6.62E-07,  avg # of iterations =  6.0


     -----------------------------------------------
     Non-local corr. energy    =      19.62663826 Ry
     -----------------------------------------------


     total cpu time spent up to now is      176.7 secs

     total energy              =  -11242.44415602 Ry
     estimated scf accuracy    <       0.00163723 Ry

     iteration #  8     ecut=    70.00 Ry     beta= 0.70
     Davidson diagonalization with overlap

---- Real-time Memory Report at c_bands before calling an iterative solver
           435 MiB given to the printing process from OS
             0 MiB allocation reported by mallinfo(arena+hblkhd)
       1158502 MiB available memory on the node where the printing process lives
------------------
     ethr =  2.53E-07,  avg # of iterations =  3.3


     -----------------------------------------------
     Non-local corr. energy    =      19.62510183 Ry
     -----------------------------------------------


     total cpu time spent up to now is      185.0 secs

     total energy              =  -11242.44411392 Ry
     estimated scf accuracy    <       0.00099447 Ry

     iteration #  9     ecut=    70.00 Ry     beta= 0.70
     Davidson diagonalization with overlap

---- Real-time Memory Report at c_bands before calling an iterative solver
           435 MiB given to the printing process from OS
             0 MiB allocation reported by mallinfo(arena+hblkhd)
       1158479 MiB available memory on the node where the printing process lives
------------------
     ethr =  1.53E-07,  avg # of iterations =  4.5


     -----------------------------------------------
     Non-local corr. energy    =      19.62263225 Ry
     -----------------------------------------------


     total cpu time spent up to now is      197.0 secs

     total energy              =  -11242.44414925 Ry
     estimated scf accuracy    <       0.00028860 Ry

     iteration # 10     ecut=    70.00 Ry     beta= 0.70
     Davidson diagonalization with overlap

---- Real-time Memory Report at c_bands before calling an iterative solver
           435 MiB given to the printing process from OS
             0 MiB allocation reported by mallinfo(arena+hblkhd)
       1158384 MiB available memory on the node where the printing process lives
------------------
     ethr =  4.45E-08,  avg # of iterations =  5.5


     -----------------------------------------------
     Non-local corr. energy    =      19.62269107 Ry
     -----------------------------------------------


     total cpu time spent up to now is      213.7 secs

     total energy              =  -11242.44424748 Ry
     estimated scf accuracy    <       0.00000483 Ry

     iteration # 11     ecut=    70.00 Ry     beta= 0.70
     Davidson diagonalization with overlap

---- Real-time Memory Report at c_bands before calling an iterative solver
           435 MiB given to the printing process from OS
             0 MiB allocation reported by mallinfo(arena+hblkhd)
       1158416 MiB available memory on the node where the printing process lives
------------------
     ethr =  7.45E-10,  avg # of iterations =  7.8


     -----------------------------------------------
     Non-local corr. energy    =      19.62196969 Ry
     -----------------------------------------------


     total cpu time spent up to now is      230.8 secs

     total energy              =  -11242.44425963 Ry
     estimated scf accuracy    <       0.00000405 Ry

     iteration # 12     ecut=    70.00 Ry     beta= 0.70
     Davidson diagonalization with overlap

---- Real-time Memory Report at c_bands before calling an iterative solver
           435 MiB given to the printing process from OS
             0 MiB allocation reported by mallinfo(arena+hblkhd)
       1158413 MiB available memory on the node where the printing process lives
------------------
     ethr =  6.25E-10,  avg # of iterations = 12.3


     -----------------------------------------------
     Non-local corr. energy    =      19.62244849 Ry
     -----------------------------------------------


     total cpu time spent up to now is      251.6 secs

     total energy              =  -11242.44425764 Ry
     estimated scf accuracy    <       0.00000757 Ry

     iteration # 13     ecut=    70.00 Ry     beta= 0.70
     Davidson diagonalization with overlap

---- Real-time Memory Report at c_bands before calling an iterative solver
           435 MiB given to the printing process from OS
             0 MiB allocation reported by mallinfo(arena+hblkhd)
       1157642 MiB available memory on the node where the printing process lives
------------------
     ethr =  6.25E-10,  avg # of iterations =  4.5


     -----------------------------------------------
     Non-local corr. energy    =      19.62260874 Ry
     -----------------------------------------------


     total cpu time spent up to now is      264.2 secs

     total energy              =  -11242.44425723 Ry
     estimated scf accuracy    <       0.00000304 Ry

     iteration # 14     ecut=    70.00 Ry     beta= 0.70
     Davidson diagonalization with overlap

---- Real-time Memory Report at c_bands before calling an iterative solver
           435 MiB given to the printing process from OS
             0 MiB allocation reported by mallinfo(arena+hblkhd)
       1158368 MiB available memory on the node where the printing process lives
------------------
     ethr =  4.69E-10,  avg # of iterations =  3.0


     -----------------------------------------------
     Non-local corr. energy    =      19.62272079 Ry
     -----------------------------------------------


     total cpu time spent up to now is      271.8 secs

     total energy              =  -11242.44425703 Ry
     estimated scf accuracy    <       0.00000138 Ry

     iteration # 15     ecut=    70.00 Ry     beta= 0.70
     Davidson diagonalization with overlap

---- Real-time Memory Report at c_bands before calling an iterative solver
           435 MiB given to the printing process from OS
             0 MiB allocation reported by mallinfo(arena+hblkhd)
       1158364 MiB available memory on the node where the printing process lives
------------------
     ethr =  2.13E-10,  avg # of iterations =  4.8


     -----------------------------------------------
     Non-local corr. energy    =      19.62272340 Ry
     -----------------------------------------------


     total cpu time spent up to now is      285.5 secs

     total energy              =  -11242.44425727 Ry
     estimated scf accuracy    <       0.00000015 Ry

     iteration # 16     ecut=    70.00 Ry     beta= 0.70
     Davidson diagonalization with overlap

---- Real-time Memory Report at c_bands before calling an iterative solver
           435 MiB given to the printing process from OS
             0 MiB allocation reported by mallinfo(arena+hblkhd)
       1158341 MiB available memory on the node where the printing process lives
------------------
     c_bands:  5 eigenvalues not converged
     ethr =  2.37E-11,  avg # of iterations = 16.0


     -----------------------------------------------
     Non-local corr. energy    =      19.62271085 Ry
     -----------------------------------------------


     total cpu time spent up to now is      318.2 secs

     total energy              =  -11242.44425730 Ry
     estimated scf accuracy    <       0.00000006 Ry

     iteration # 17     ecut=    70.00 Ry     beta= 0.70
     Davidson diagonalization with overlap

---- Real-time Memory Report at c_bands before calling an iterative solver
           435 MiB given to the printing process from OS
             0 MiB allocation reported by mallinfo(arena+hblkhd)
       1158335 MiB available memory on the node where the printing process lives
------------------
     c_bands:  5 eigenvalues not converged
     ethr =  8.88E-12,  avg # of iterations = 17.0


     -----------------------------------------------
     Non-local corr. energy    =      19.62274978 Ry
     -----------------------------------------------


     total cpu time spent up to now is      340.5 secs

     total energy              =  -11242.44425728 Ry
     estimated scf accuracy    <       0.00000005 Ry

     iteration # 18     ecut=    70.00 Ry     beta= 0.70
     Davidson diagonalization with overlap

---- Real-time Memory Report at c_bands before calling an iterative solver
           435 MiB given to the printing process from OS
             0 MiB allocation reported by mallinfo(arena+hblkhd)
       1158338 MiB available memory on the node where the printing process lives
------------------
     c_bands:  3 eigenvalues not converged
     ethr =  7.41E-12,  avg # of iterations = 16.0


     -----------------------------------------------
     Non-local corr. energy    =      19.62273850 Ry
     -----------------------------------------------


     total cpu time spent up to now is      365.4 secs

     total energy              =  -11242.44425728 Ry
     estimated scf accuracy    <          4.6E-09 Ry

     iteration # 19     ecut=    70.00 Ry     beta= 0.70
     Davidson diagonalization with overlap

---- Real-time Memory Report at c_bands before calling an iterative solver
           435 MiB given to the printing process from OS
             0 MiB allocation reported by mallinfo(arena+hblkhd)
       1158320 MiB available memory on the node where the printing process lives
------------------
     c_bands:  1 eigenvalues not converged
     ethr =  7.09E-13,  avg # of iterations = 16.0


     -----------------------------------------------
     Non-local corr. energy    =      19.62273694 Ry
     -----------------------------------------------


     total cpu time spent up to now is      415.8 secs

     End of self-consistent calculation

          k = 0.0000 0.0000 0.0000 ( 57971 PWs)   bands (ev):

    -6.8440  -6.4924  -6.4924  -6.4317  -6.4317  -6.4316  -6.4316  -6.4316
    -6.4316  -6.3814  -6.3251  -6.3251  -6.3251  -6.3251  -6.3250  -6.3250
    -6.3250  -6.3250  -6.3250  -6.3250  -6.3250  -6.3250  -6.3206  -6.3206
    -6.3205  -6.3205  -6.3204  -6.3204  -6.3204  -6.3204  -6.3204  -6.3204
    -6.2871  -6.2871  -6.2871  -6.2871  -5.2601  -5.2468  -5.2468  -5.2463
    -5.2463  -5.2307  -5.2307  -5.2307  -5.2307  -5.2037  -5.2037  -5.2037
    -5.2037  -5.2037  -5.2037  -5.1994  -5.1994  -5.1924  -5.1923  -5.1923
    -5.1923  -5.1923  -5.1923  -5.1923  -5.1923  -5.1923  -5.1923  -5.1923
    -5.1923  -5.1913  -5.1913  -5.1913  -5.1913  -5.1913  -5.1913  -5.1486
    -5.1486  -5.1486  -5.1486  -5.1393  -5.1393  -5.1393  -5.1393  -5.1323
    -5.1323  -5.1323  -5.1323  -5.1323  -5.1323  -5.1323  -5.1323  -5.1323
    -5.1323  -5.1323  -5.1323  -5.1216  -5.1216  -5.1216  -5.1216  -5.1216
    -5.1216  -5.0836  -5.0836  -5.0836  -5.0836  -5.0796  -5.0796  -5.0796
    -5.0796  -5.0796  -5.0795  -5.0794  -5.0794  -5.0794  -5.0794  -5.0794
    -5.0794  -5.0743  -5.0743  -5.0634  -5.0634  -5.0634  -5.0634  -5.0558
    -5.0558  -5.0530  -5.0530  -5.0530  -5.0530  -5.0530  -5.0530  -5.0491
    -5.0491  -5.0491  -5.0491  -5.0491  -5.0491  -5.0490  -5.0490  -5.0490
    -5.0490  -5.0490  -5.0490  -5.0346  -5.0346  -5.0346  -5.0346  -5.0262
    -5.0262  -5.0169  -5.0169  -5.0169  -5.0169  -5.0169  -5.0169  -5.0146
    -5.0146  -5.0146  -5.0146  -5.0092  -5.0092  -5.0092  -5.0091  -4.9953
    -4.9953  -4.9953  -4.9953  -4.9953  -4.9953  -4.9953  -4.9953  -4.9953
    -4.9953  -4.9953  -4.9953  -4.9907  -4.9907  -4.9766  -4.9766  -4.9636
    -4.9636  -4.9636  -4.9636  -4.9636  -4.9636  -4.7677  -4.7677  -4.3991
    -4.3991  -4.3991  -4.3991  -4.3991  -4.3991  -3.8401  -3.8401  -3.8401
    -3.8401  -3.8401  -3.8401  -3.8401  -3.8401  -3.8401  -3.8401  -3.8400
    -3.8400  -3.4912  -3.0452  -3.0452  -3.0452  -3.0452  -3.0393  -3.0393
    -3.0393  -3.0393  -2.9363  -2.9363  -2.9363  -2.9363  -2.9363  -2.9363
     2.0972   2.8383   2.8383   2.8383   2.8383   3.0244   3.0244   3.0244
     3.0244   3.0245   3.0245   3.4728   3.4728   3.4728   3.4728   3.4728
     3.4728   3.4728   3.4728   3.4729   3.4729   3.4729   3.4729   3.5525
     3.5525   3.5526   3.5526   3.9002   3.9002   4.2072   4.2072   4.2072
     4.2072   4.2073   4.2073   4.9039   4.9039   4.9039   4.9039   4.9690
     4.9690   4.9690   4.9690   4.9691   4.9691   5.0178   5.0178   6.0119
     6.0119   6.0120   6.0120   6.2491   6.2491   6.5504   6.5504   6.5505
     6.5505   6.5505   6.5505   6.8171   6.8171   6.8171   6.8171   6.8171
     6.8171   6.8171   6.8171   6.8171   6.8171   6.8171   6.8171   7.2529
     7.2529   7.2529   7.2529   7.2529   7.2529   7.2529   7.2529   7.2529
     7.2529   7.2529   7.2529   7.3779   7.3779   7.3779   7.3779   7.6136
     7.6136   7.6136   7.6136   7.6136   7.6136   7.8075   7.8076   8.0706
     8.0706   8.0706   8.0706   8.0706   8.0706   8.2872   8.2872   8.2873
     8.2873   8.7556   8.7962   8.7963  10.3065  12.6662  12.6662  12.6968
    13.3775  13.3775  13.3776  13.3776  13.3776  13.3776  13.5425  13.5425
    13.5426  13.5426  13.5426  13.5426  13.5426  13.5426  13.5426  13.5426
    13.5426  13.5426  14.2541  14.2541  14.3104  14.3104  14.3106  14.3106
    14.3106  14.3106  14.9072  14.9072  14.9072  14.9072  15.5237  15.5237
    15.5237  15.5237  15.5237  15.5237  16.0244  16.0244  16.0244  16.0244
    16.2133  16.2133  16.2133  16.2133  16.2567  16.2567  16.2567  16.2567
    16.2567  16.2568  16.2568  16.2568  16.2568  16.2568  16.2568  16.2568
    16.9285  16.9285  16.9285  16.9285  16.9285

     occupation numbers 
     1.0000   1.0000   1.0000   1.0000   1.0000   1.0000   1.0000   1.0000
     1.0000   1.0000   1.0000   1.0000   1.0000   1.0000   1.0000   1.0000
     1.0000   1.0000   1.0000   1.0000   1.0000   1.0000   1.0000   1.0000
     1.0000   1.0000   1.0000   1.0000   1.0000   1.0000   1.0000   1.0000
     1.0000   1.0000   1.0000   1.0000   1.0000   1.0000   1.0000   1.0000
     1.0000   1.0000   1.0000   1.0000   1.0000   1.0000   1.0000   1.0000
     1.0000   1.0000   1.0000   1.0000   1.0000   1.0000   1.0000   1.0000
     1.0000   1.0000   1.0000   1.0000   1.0000   1.0000   1.0000   1.0000
     1.0000   1.0000   1.0000   1.0000   1.0000   1.0000   1.0000   1.0000
     1.0000   1.0000   1.0000   1.0000   1.0000   1.0000   1.0000   1.0000
     1.0000   1.0000   1.0000   1.0000   1.0000   1.0000   1.0000   1.0000
     1.0000   1.0000   1.0000   1.0000   1.0000   1.0000   1.0000   1.0000
     1.0000   1.0000   1.0000   1.0000   1.0000   1.0000   1.0000   1.0000
     1.0000   1.0000   1.0000   1.0000   1.0000   1.0000   1.0000   1.0000
     1.0000   1.0000   1.0000   1.0000   1.0000   1.0000   1.0000   1.0000
     1.0000   1.0000   1.0000   1.0000   1.0000   1.0000   1.0000   1.0000
     1.0000   1.0000   1.0000   1.0000   1.0000   1.0000   1.0000   1.0000
     1.0000   1.0000   1.0000   1.0000   1.0000   1.0000   1.0000   1.0000
     1.0000   1.0000   1.0000   1.0000   1.0000   1.0000   1.0000   1.0000
     1.0000   1.0000   1.0000   1.0000   1.0000   1.0000   1.0000   1.0000
     1.0000   1.0000   1.0000   1.0000   1.0000   1.0000   1.0000   1.0000
     1.0000   1.0000   1.0000   1.0000   1.0000   1.0000   1.0000   1.0000
     1.0000   1.0000   1.0000   1.0000   1.0000   1.0000   1.0000   1.0000
     1.0000   1.0000   1.0000   1.0000   1.0000   1.0000   1.0000   1.0000
     1.0000   1.0000   1.0000   1.0000   1.0000   1.0000   1.0000   1.0000
     1.0000   1.0000   1.0000   1.0000   1.0000   1.0000   1.0000   1.0000
     1.0000   1.0000   1.0000   1.0000   1.0000   1.0000   1.0000   1.0000
     1.0000   1.0000   1.0000   1.0000   1.0000   1.0000   1.0000   1.0000
     1.0000   1.0000   1.0000   1.0000   1.0000   1.0000   1.0000   1.0000
     1.0000   1.0000   1.0000   1.0000   1.0000   1.0000   1.0000   1.0000
     1.0000   1.0000   1.0000   1.0000   1.0000   1.0000   1.0000   1.0000
     1.0000   1.0000   1.0000   1.0000   1.0000   1.0000   1.0000   1.0000
     1.0000   1.0000   1.0000   1.0000   1.0000   1.0000   1.0000   1.0000
     1.0000   1.0000   1.0000   1.0000   1.0000   1.0000   1.0000   1.0000
     1.0000   1.0000   1.0000   1.0000   1.0000   1.0000   1.0000   1.0000
     1.0000   1.0000   1.0000   1.0000   1.0000   1.0000   1.0000   1.0000
     1.0000   1.0000   1.0000   1.0000   1.0000   1.0000   1.0000   1.0000
     1.0000   1.0000   1.0000   1.0000   1.0000   1.0000   1.0000   1.0000
     1.0000   1.0000   1.0000   1.0000   1.0000   1.0000   1.0000   1.0000
     1.0000   1.0000   1.0000   1.0000   1.0000   1.0000   1.0000   1.0000
     1.0000   1.0000   1.0000   1.0000   0.0000   0.0000   0.0000   0.0000
     0.0000   0.0000   0.0000   0.0000   0.0000   0.0000   0.0000   0.0000
     0.0000   0.0000   0.0000   0.0000   0.0000   0.0000   0.0000   0.0000
     0.0000   0.0000   0.0000   0.0000   0.0000   0.0000   0.0000   0.0000
     0.0000   0.0000   0.0000   0.0000   0.0000   0.0000   0.0000   0.0000
     0.0000   0.0000   0.0000   0.0000   0.0000   0.0000   0.0000   0.0000
     0.0000   0.0000   0.0000   0.0000   0.0000   0.0000   0.0000   0.0000
     0.0000   0.0000   0.0000   0.0000   0.0000   0.0000   0.0000   0.0000
     0.0000   0.0000   0.0000   0.0000   0.0000

          k = 0.0000 0.0000-0.4602 ( 58014 PWs)   bands (ev):

    -6.7161  -6.7161  -6.3950  -6.3950  -6.3880  -6.3880  -6.3880  -6.3880
    -6.3880  -6.3880  -6.3880  -6.3880  -6.3880  -6.3880  -6.3880  -6.3880
    -6.3136  -6.3136  -6.3136  -6.3136  -6.3135  -6.3135  -6.3135  -6.3135
    -6.3135  -6.3135  -6.3135  -6.3135  -6.3040  -6.3040  -6.3040  -6.3040
    -6.3040  -6.3040  -6.3040  -6.3040  -5.2439  -5.2439  -5.2439  -5.2439
    -5.2151  -5.2151  -5.2151  -5.2151  -5.2101  -5.2101  -5.2101  -5.2101
    -5.2079  -5.2079  -5.2079  -5.2079  -5.2079  -5.2079  -5.2079  -5.2079
    -5.2079  -5.2079  -5.2079  -5.2079  -5.1738  -5.1738  -5.1738  -5.1738
    -5.1738  -5.1738  -5.1738  -5.1738  -5.1738  -5.1738  -5.1738  -5.1738
    -5.1708  -5.1708  -5.1470  -5.1470  -5.1470  -5.1470  -5.1470  -5.1470
    -5.1470  -5.1470  -5.1470  -5.1470  -5.1470  -5.1470  -5.1249  -5.1249
    -5.1249  -5.1249  -5.1249  -5.1249  -5.1249  -5.1249  -5.0937  -5.0937
    -5.0937  -5.0937  -5.0937  -5.0937  -5.0937  -5.0937  -5.0937  -5.0937
    -5.0937  -5.0937  -5.0814  -5.0814  -5.0814  -5.0814  -5.0775  -5.0775
    -5.0775  -5.0775  -5.0775  -5.0775  -5.0775  -5.0775  -5.0775  -5.0775
    -5.0775  -5.0775  -5.0405  -5.0405  -5.0405  -5.0405  -5.0376  -5.0376
    -5.0376  -5.0376  -5.0376  -5.0376  -5.0376  -5.0376  -5.0376  -5.0376
    -5.0376  -5.0376  -5.0300  -5.0300  -5.0300  -5.0300  -5.0300  -5.0300
    -5.0300  -5.0300  -5.0295  -5.0295  -5.0295  -5.0295  -5.0167  -5.0167
    -5.0167  -5.0167  -5.0115  -5.0115  -5.0115  -5.0115  -5.0115  -5.0115
    -5.0115  -5.0115  -5.0115  -5.0115  -5.0115  -5.0115  -4.9848  -4.9848
    -4.9848  -4.9848  -4.9743  -4.9743  -4.9743  -4.9743  -4.9743  -4.9743
    -4.9743  -4.9743  -4.9743  -4.9743  -4.9743  -4.9743  -4.2636  -4.2636
    -4.2636  -4.2636  -4.2636  -4.2636  -4.2636  -4.2636  -4.2635  -4.2635
    -4.2635  -4.2635  -3.9903  -3.9903  -3.2484  -3.2484  -3.2484  -3.2484
    -3.2484  -3.2484  -3.2484  -3.2484  -3.2484  -3.2484  -3.2484  -3.2484
    -3.0423  -3.0423  -3.0423  -3.0423  -3.0423  -3.0423  -3.0423  -3.0423
     3.0186   3.0186   3.0395   3.0395   3.0395   3.0395   3.0395   3.0395
     3.0395   3.0395   3.0396   3.0396   3.0396   3.0396   3.1404   3.1404
     3.1405   3.1405   3.1405   3.1405   3.1405   3.1405   4.1726   4.1726
     4.1726   4.1726   4.1993   4.1993   4.1993   4.1993   4.1993   4.1993
     4.1993   4.1993   4.1993   4.1993   4.1994   4.1994   5.3260   5.3260
     5.3260   5.3260   5.3260   5.3260   5.3260   5.3260   5.3260   5.3260
     5.3260   5.3260   5.7976   5.7976   5.7976   5.7976   6.7242   6.7242
     6.7242   6.7242   6.7242   6.7242   6.7242   6.7242   6.7470   6.7470
     6.7470   6.7470   6.7470   6.7470   6.7470   6.7470   6.7470   6.7470
     6.7470   6.7470   7.2227   7.2227   7.6825   7.6825   7.6825   7.6825
     7.6825   7.6825   7.6825   7.6825   7.6825   7.6825   7.6825   7.6825
     7.8156   7.8156   7.8156   7.8156   7.8156   7.8156   7.8156   7.8156
     7.8156   7.8156   7.8156   7.8156   7.9450   7.9450   7.9451   7.9451
     8.6439   8.6439   8.6440   8.6440  11.5577  11.5577  12.7911  12.7911
    13.0382  13.0382  13.0382  13.0382  13.0382  13.0382  13.0382  13.0382
    13.0382  13.0382  13.0383  13.0383  14.3528  14.3528  14.3528  14.3528
    14.3529  14.3529  14.3529  14.3529  14.3529  14.3529  14.3529  14.3529
    14.9284  14.9284  14.9284  14.9284  15.5457  15.5457  15.5457  15.5457
    15.5457  15.5457  15.5457  15.5457  15.7738  15.7738  15.7738  15.7738
    15.7738  15.7738  15.7738  15.7738  15.7738  15.7738  15.7738  15.7739
    16.6515  16.6515  16.6515  16.6515  16.6515  16.6515  16.6515  16.6515
    16.6515  16.6515  16.6515  16.6515  17.0270

     occupation numbers 
     1.0000   1.0000   1.0000   1.0000   1.0000   1.0000   1.0000   1.0000
     1.0000   1.0000   1.0000   1.0000   1.0000   1.0000   1.0000   1.0000
     1.0000   1.0000   1.0000   1.0000   1.0000   1.0000   1.0000   1.0000
     1.0000   1.0000   1.0000   1.0000   1.0000   1.0000   1.0000   1.0000
     1.0000   1.0000   1.0000   1.0000   1.0000   1.0000   1.0000   1.0000
     1.0000   1.0000   1.0000   1.0000   1.0000   1.0000   1.0000   1.0000
     1.0000   1.0000   1.0000   1.0000   1.0000   1.0000   1.0000   1.0000
     1.0000   1.0000   1.0000   1.0000   1.0000   1.0000   1.0000   1.0000
     1.0000   1.0000   1.0000   1.0000   1.0000   1.0000   1.0000   1.0000
     1.0000   1.0000   1.0000   1.0000   1.0000   1.0000   1.0000   1.0000
     1.0000   1.0000   1.0000   1.0000   1.0000   1.0000   1.0000   1.0000
     1.0000   1.0000   1.0000   1.0000   1.0000   1.0000   1.0000   1.0000
     1.0000   1.0000   1.0000   1.0000   1.0000   1.0000   1.0000   1.0000
     1.0000   1.0000   1.0000   1.0000   1.0000   1.0000   1.0000   1.0000
     1.0000   1.0000   1.0000   1.0000   1.0000   1.0000   1.0000   1.0000
     1.0000   1.0000   1.0000   1.0000   1.0000   1.0000   1.0000   1.0000
     1.0000   1.0000   1.0000   1.0000   1.0000   1.0000   1.0000   1.0000
     1.0000   1.0000   1.0000   1.0000   1.0000   1.0000   1.0000   1.0000
     1.0000   1.0000   1.0000   1.0000   1.0000   1.0000   1.0000   1.0000
     1.0000   1.0000   1.0000   1.0000   1.0000   1.0000   1.0000   1.0000
     1.0000   1.0000   1.0000   1.0000   1.0000   1.0000   1.0000   1.0000
     1.0000   1.0000   1.0000   1.0000   1.0000   1.0000   1.0000   1.0000
     1.0000   1.0000   1.0000   1.0000   1.0000   1.0000   1.0000   1.0000
     1.0000   1.0000   1.0000   1.0000   1.0000   1.0000   1.0000   1.0000
     1.0000   1.0000   1.0000   1.0000   1.0000   1.0000   1.0000   1.0000
     1.0000   1.0000   1.0000   1.0000   1.0000   1.0000   1.0000   1.0000
     1.0000   1.0000   1.0000   1.0000   1.0000   1.0000   1.0000   1.0000
     1.0000   1.0000   1.0000   1.0000   1.0000   1.0000   1.0000   1.0000
     1.0000   1.0000   1.0000   1.0000   1.0000   1.0000   1.0000   1.0000
     1.0000   1.0000   1.0000   1.0000   1.0000   1.0000   1.0000   1.0000
     1.0000   1.0000   1.0000   1.0000   1.0000   1.0000   1.0000   1.0000
     1.0000   1.0000   1.0000   1.0000   1.0000   1.0000   1.0000   1.0000
     1.0000   1.0000   1.0000   1.0000   1.0000   1.0000   1.0000   1.0000
     1.0000   1.0000   1.0000   1.0000   1.0000   1.0000   1.0000   1.0000
     1.0000   1.0000   1.0000   1.0000   1.0000   1.0000   1.0000   1.0000
     1.0000   1.0000   1.0000   1.0000   1.0000   1.0000   1.0000   1.0000
     1.0000   1.0000   1.0000   1.0000   1.0000   1.0000   1.0000   1.0000
     1.0000   1.0000   1.0000   1.0000   1.0000   1.0000   1.0000   1.0000
     1.0000   1.0000   1.0000   1.0000   1.0000   1.0000   1.0000   1.0000
     1.0000   1.0000   1.0000   1.0000   1.0000   1.0000   1.0000   1.0000
     1.0000   1.0000   1.0000   1.0000   0.0000   0.0000   0.0000   0.0000
     0.0000   0.0000   0.0000   0.0000   0.0000   0.0000   0.0000   0.0000
     0.0000   0.0000   0.0000   0.0000   0.0000   0.0000   0.0000   0.0000
     0.0000   0.0000   0.0000   0.0000   0.0000   0.0000   0.0000   0.0000
     0.0000   0.0000   0.0000   0.0000   0.0000   0.0000   0.0000   0.0000
     0.0000   0.0000   0.0000   0.0000   0.0000   0.0000   0.0000   0.0000
     0.0000   0.0000   0.0000   0.0000   0.0000   0.0000   0.0000   0.0000
     0.0000   0.0000   0.0000   0.0000   0.0000   0.0000   0.0000   0.0000
     0.0000   0.0000   0.0000   0.0000   0.0000

          k = 0.0000-0.5774 0.0000 ( 57942 PWs)   bands (ev):

    -6.6664  -6.6664  -6.4700  -6.4700  -6.4131  -6.4131  -6.4131  -6.4131
    -6.3784  -6.3632  -6.3632  -6.3631  -6.3631  -6.3522  -6.3522  -6.3371
    -6.3371  -6.3371  -6.3371  -6.3253  -6.3253  -6.3126  -6.3126  -6.3126
    -6.3126  -6.3121  -6.3080  -6.3079  -6.2999  -6.2999  -6.2999  -6.2999
    -6.2999  -6.2999  -6.2999  -6.2999  -5.2347  -5.2347  -5.2239  -5.2239
    -5.2239  -5.2239  -5.2193  -5.2193  -5.2087  -5.2087  -5.2074  -5.2074
    -5.2074  -5.2074  -5.2044  -5.2029  -5.2029  -5.1941  -5.1941  -5.1941
    -5.1941  -5.1912  -5.1912  -5.1901  -5.1784  -5.1784  -5.1784  -5.1784
    -5.1765  -5.1765  -5.1765  -5.1765  -5.1765  -5.1765  -5.1765  -5.1765
    -5.1754  -5.1754  -5.1601  -5.1601  -5.1601  -5.1601  -5.1586  -5.1586
    -5.1558  -5.1558  -5.1558  -5.1558  -5.1370  -5.1370  -5.1280  -5.1280
    -5.1280  -5.1280  -5.1280  -5.1280  -5.1280  -5.1280  -5.1125  -5.1125
    -5.1120  -5.1120  -5.1115  -5.0978  -5.0978  -5.0921  -5.0921  -5.0921
    -5.0921  -5.0852  -5.0852  -5.0788  -5.0786  -5.0786  -5.0786  -5.0786
    -5.0713  -5.0713  -5.0705  -5.0705  -5.0705  -5.0705  -5.0634  -5.0634
    -5.0634  -5.0634  -5.0543  -5.0543  -5.0541  -5.0540  -5.0540  -5.0540
    -5.0513  -5.0513  -5.0513  -5.0513  -5.0455  -5.0455  -5.0455  -5.0455
    -5.0455  -5.0455  -5.0455  -5.0455  -5.0448  -5.0388  -5.0356  -5.0356
    -5.0279  -5.0279  -5.0237  -5.0237  -5.0091  -5.0091  -5.0091  -5.0091
    -5.0004  -5.0004  -5.0004  -5.0004  -4.9994  -4.9994  -4.9994  -4.9994
    -4.9991  -4.9991  -4.9895  -4.9895  -4.9895  -4.9895  -4.9895  -4.9895
    -4.9895  -4.9895  -4.9813  -4.9813  -4.9812  -4.9760  -4.9760  -4.9758
    -4.9758  -4.9758  -4.9758  -4.9724  -4.9724  -4.9560  -4.6326  -4.6326
    -4.5168  -4.5168  -4.5168  -4.5168  -4.0409  -4.0409  -4.0409  -4.0409
    -3.7153  -3.7153  -3.7153  -3.7153  -3.5873  -3.3389  -3.3389  -3.3389
    -3.3389  -3.3389  -3.3389  -3.3389  -3.3389  -3.3273  -3.3273  -3.3026
    -3.3026  -3.0068  -3.0068  -2.9936  -2.8434  -2.8434  -2.8434  -2.8434
     2.4458   2.4458   2.4669   2.4669   2.5762   2.8636   2.8636   2.8636
     2.8636   2.8637   2.8637   2.8637   2.8637   2.9782   2.9782   2.9783
     2.9783   2.9892   2.9892   3.6413   3.8635   3.8635   3.8637   3.8637
     4.0486   4.0486   4.0486   4.0486   4.8326   4.8326   4.8326   4.8326
     4.8339   4.8419   4.8419   4.8419   4.8419   4.9857   4.9857   5.1988
     5.1988   5.4023   5.4023   5.4024   5.4024   5.9312   5.9312   5.9313
     5.9313   5.9313   5.9313   5.9313   5.9313   6.1975   6.1975   6.2103
     6.4730   6.4730   6.7610   6.8073   6.8073   6.8073   6.8073   6.9324
     6.9324   6.9324   6.9324   6.9552   6.9552   6.9843   6.9843   7.0284
     7.0284   7.0812   7.0812   7.0812   7.0812   7.1072   7.1072   7.1072
     7.1072   7.2151   7.2151   7.2151   7.2151   7.2151   7.2151   7.2152
     7.2152   7.2402   7.2402   7.2402   7.2402   7.3323   7.3323   7.8245
     7.8245   7.8335   7.9133   7.9133   7.9133   7.9133   7.9518   7.9518
     8.4857   8.4857   8.5593   8.5593  11.8815  11.8815  13.1295  13.1295
    13.3378  13.3378  13.5889  13.5889  13.5889  13.5889  13.8585  13.9492
    13.9492  14.0085  14.0915  14.0915  14.0915  14.0915  14.0915  14.0915
    14.0915  14.0915  14.2183  14.2183  14.2183  14.2183  14.7094  14.7094
    14.7095  14.7095  14.8163  14.8163  14.8163  14.8163  14.9197  15.2460
    15.2460  15.3848  15.3848  15.3849  15.3849  16.1370  16.1370  16.1705
    16.1705  16.1705  16.1705  16.2866  16.2866  16.3353  16.3353  16.3674
    16.3674  16.3674  16.3674  16.5369  16.5369  16.5369  16.5369  16.5370
    16.5370  16.5370  16.5370  16.7737  16.7737

     occupation numbers 
     1.0000   1.0000   1.0000   1.0000   1.0000   1.0000   1.0000   1.0000
     1.0000   1.0000   1.0000   1.0000   1.0000   1.0000   1.0000   1.0000
     1.0000   1.0000   1.0000   1.0000   1.0000   1.0000   1.0000   1.0000
     1.0000   1.0000   1.0000   1.0000   1.0000   1.0000   1.0000   1.0000
     1.0000   1.0000   1.0000   1.0000   1.0000   1.0000   1.0000   1.0000
     1.0000   1.0000   1.0000   1.0000   1.0000   1.0000   1.0000   1.0000
     1.0000   1.0000   1.0000   1.0000   1.0000   1.0000   1.0000   1.0000
     1.0000   1.0000   1.0000   1.0000   1.0000   1.0000   1.0000   1.0000
     1.0000   1.0000   1.0000   1.0000   1.0000   1.0000   1.0000   1.0000
     1.0000   1.0000   1.0000   1.0000   1.0000   1.0000   1.0000   1.0000
     1.0000   1.0000   1.0000   1.0000   1.0000   1.0000   1.0000   1.0000
     1.0000   1.0000   1.0000   1.0000   1.0000   1.0000   1.0000   1.0000
     1.0000   1.0000   1.0000   1.0000   1.0000   1.0000   1.0000   1.0000
     1.0000   1.0000   1.0000   1.0000   1.0000   1.0000   1.0000   1.0000
     1.0000   1.0000   1.0000   1.0000   1.0000   1.0000   1.0000   1.0000
     1.0000   1.0000   1.0000   1.0000   1.0000   1.0000   1.0000   1.0000
     1.0000   1.0000   1.0000   1.0000   1.0000   1.0000   1.0000   1.0000
     1.0000   1.0000   1.0000   1.0000   1.0000   1.0000   1.0000   1.0000
     1.0000   1.0000   1.0000   1.0000   1.0000   1.0000   1.0000   1.0000
     1.0000   1.0000   1.0000   1.0000   1.0000   1.0000   1.0000   1.0000
     1.0000   1.0000   1.0000   1.0000   1.0000   1.0000   1.0000   1.0000
     1.0000   1.0000   1.0000   1.0000   1.0000   1.0000   1.0000   1.0000
     1.0000   1.0000   1.0000   1.0000   1.0000   1.0000   1.0000   1.0000
     1.0000   1.0000   1.0000   1.0000   1.0000   1.0000   1.0000   1.0000
     1.0000   1.0000   1.0000   1.0000   1.0000   1.0000   1.0000   1.0000
     1.0000   1.0000   1.0000   1.0000   1.0000   1.0000   1.0000   1.0000
     1.0000   1.0000   1.0000   1.0000   1.0000   1.0000   1.0000   1.0000
     1.0000   1.0000   1.0000   1.0000   1.0000   1.0000   1.0000   1.0000
     1.0000   1.0000   1.0000   1.0000   1.0000   1.0000   1.0000   1.0000
     1.0000   1.0000   1.0000   1.0000   1.0000   1.0000   1.0000   1.0000
     1.0000   1.0000   1.0000   1.0000   1.0000   1.0000   1.0000   1.0000
     1.0000   1.0000   1.0000   1.0000   1.0000   1.0000   1.0000   1.0000
     1.0000   1.0000   1.0000   1.0000   1.0000   1.0000   1.0000   1.0000
     1.0000   1.0000   1.0000   1.0000   1.0000   1.0000   1.0000   1.0000
     1.0000   1.0000   1.0000   1.0000   1.0000   1.0000   1.0000   1.0000
     1.0000   1.0000   1.0000   1.0000   1.0000   1.0000   1.0000   1.0000
     1.0000   1.0000   1.0000   1.0000   1.0000   1.0000   1.0000   1.0000
     1.0000   1.0000   1.0000   1.0000   1.0000   1.0000   1.0000   1.0000
     1.0000   1.0000   1.0000   1.0000   1.0000   1.0000   1.0000   1.0000
     1.0000   1.0000   1.0000   1.0000   1.0000   1.0000   1.0000   1.0000
     1.0000   1.0000   1.0000   1.0000   0.0000   0.0000   0.0000   0.0000
     0.0000   0.0000   0.0000   0.0000   0.0000   0.0000   0.0000   0.0000
     0.0000   0.0000   0.0000   0.0000   0.0000   0.0000   0.0000   0.0000
     0.0000   0.0000   0.0000   0.0000   0.0000   0.0000   0.0000   0.0000
     0.0000   0.0000   0.0000   0.0000   0.0000   0.0000   0.0000   0.0000
     0.0000   0.0000   0.0000   0.0000   0.0000   0.0000   0.0000   0.0000
     0.0000   0.0000   0.0000   0.0000   0.0000   0.0000   0.0000   0.0000
     0.0000   0.0000   0.0000   0.0000   0.0000   0.0000   0.0000   0.0000
     0.0000   0.0000   0.0000   0.0000   0.0000

          k = 0.0000-0.5774-0.4602 ( 57848 PWs)   bands (ev):

    -6.5691  -6.5691  -6.5691  -6.5691  -6.4157  -6.4157  -6.4157  -6.4157
    -6.3560  -6.3560  -6.3560  -6.3560  -6.3496  -6.3496  -6.3362  -6.3361
    -6.3361  -6.3361  -6.3361  -6.3361  -6.3361  -6.3361  -6.3196  -6.3196
    -6.3196  -6.3196  -6.3040  -6.3039  -6.3020  -6.3020  -6.3020  -6.3020
    -6.3020  -6.3020  -6.3020  -6.3020  -5.2269  -5.2269  -5.2269  -5.2269
    -5.2132  -5.2132  -5.2131  -5.2131  -5.2131  -5.2131  -5.1991  -5.1991
    -5.1991  -5.1991  -5.1991  -5.1991  -5.1991  -5.1991  -5.1944  -5.1944
    -5.1944  -5.1944  -5.1922  -5.1922  -5.1922  -5.1922  -5.1863  -5.1863
    -5.1863  -5.1863  -5.1728  -5.1728  -5.1728  -5.1728  -5.1728  -5.1728
    -5.1728  -5.1727  -5.1700  -5.1700  -5.1700  -5.1700  -5.1673  -5.1673
    -5.1482  -5.1482  -5.1482  -5.1482  -5.1432  -5.1432  -5.1324  -5.1324
    -5.1324  -5.1324  -5.1290  -5.1290  -5.1290  -5.1290  -5.1290  -5.1290
    -5.1290  -5.1290  -5.0892  -5.0892  -5.0891  -5.0891  -5.0824  -5.0824
    -5.0824  -5.0824  -5.0824  -5.0824  -5.0824  -5.0824  -5.0792  -5.0792
    -5.0645  -5.0645  -5.0645  -5.0645  -5.0635  -5.0635  -5.0635  -5.0635
    -5.0635  -5.0635  -5.0635  -5.0635  -5.0620  -5.0620  -5.0588  -5.0588
    -5.0588  -5.0588  -5.0401  -5.0401  -5.0401  -5.0401  -5.0328  -5.0328
    -5.0328  -5.0328  -5.0328  -5.0328  -5.0328  -5.0328  -5.0273  -5.0273
    -5.0273  -5.0273  -5.0102  -5.0102  -5.0102  -5.0102  -5.0077  -5.0077
    -4.9948  -4.9947  -4.9947  -4.9947  -4.9947  -4.9947  -4.9947  -4.9947
    -4.9926  -4.9926  -4.9926  -4.9926  -4.9875  -4.9875  -4.9875  -4.9875
    -4.9875  -4.9875  -4.9875  -4.9875  -4.9824  -4.9824  -4.9824  -4.9824
    -4.9802  -4.9802  -4.9650  -4.9650  -4.9413  -4.9413  -4.9413  -4.9413
    -4.4931  -4.4931  -4.4931  -4.4931  -3.7634  -3.7634  -3.7634  -3.7634
    -3.6178  -3.6178  -3.6178  -3.6178  -3.6178  -3.6178  -3.6178  -3.6178
    -3.5205  -3.5205  -3.3756  -3.3756  -3.3756  -3.3756  -3.0956  -3.0956
    -2.9995  -2.9995  -2.9995  -2.9995  -2.9995  -2.9995  -2.9994  -2.9994
     2.3586   2.3586   2.7563   2.7563   2.7563   2.7563   2.7564   2.7564
     2.7564   2.7564   3.1225   3.1225   3.2321   3.2321   3.2321   3.2321
     3.3278   3.3278   3.3278   3.3278   3.4547   3.4547   3.4547   3.4547
     3.4548   3.4548   3.4548   3.4548   4.8419   4.8419   4.8419   4.8419
     5.2610   5.2610   5.2610   5.2610   5.2611   5.2611   5.2611   5.2611
     5.5750   5.5750   5.5750   5.5750   5.6698   5.6698   5.9905   5.9905
     5.9905   5.9905   5.9905   5.9905   5.9905   5.9905   6.2183   6.2183
     6.2183   6.2183   6.4182   6.4182   6.4919   6.4919   6.4919   6.4919
     6.5869   6.5869   6.5869   6.5869   6.7119   6.7119   6.7119   6.7119
     6.7119   6.7119   6.7120   6.7120   7.2132   7.2132   7.3838   7.3838
     7.3838   7.3838   7.3839   7.3839   7.3839   7.3839   7.4968   7.4968
     7.4968   7.4968   7.5434   7.5434   7.5434   7.5434   7.5578   7.5578
     7.9153   7.9153   7.9153   7.9153   8.1239   8.1239   8.1239   8.1239
     8.3621   8.3621   8.3621   8.3621  12.4778  12.4778  12.4778  12.4778
    13.0139  13.0139  13.4260  13.4260  13.4260  13.4260  13.8564  13.8564
    13.9335  13.9335  13.9335  13.9335  13.9335  13.9335  13.9335  13.9335
    14.0014  14.0014  14.0014  14.0014  15.1248  15.1248  15.1248  15.1249
    15.1249  15.1249  15.1249  15.1249  15.1431  15.1431  15.1432  15.1432
    15.8072  15.8072  15.8072  15.8072  15.8072  15.8072  15.8072  15.8072
    15.9308  15.9308  15.9308  15.9308  16.0855  16.0855  16.2999  16.2999
    16.4258  16.4258  16.4258  16.4258  16.5650  16.5650  16.5650  16.5650
    16.5690  16.5691  16.5691  16.5691  16.5691

     occupation numbers 
     1.0000   1.0000   1.0000   1.0000   1.0000   1.0000   1.0000   1.0000
     1.0000   1.0000   1.0000   1.0000   1.0000   1.0000   1.0000   1.0000
     1.0000   1.0000   1.0000   1.0000   1.0000   1.0000   1.0000   1.0000
     1.0000   1.0000   1.0000   1.0000   1.0000   1.0000   1.0000   1.0000
     1.0000   1.0000   1.0000   1.0000   1.0000   1.0000   1.0000   1.0000
     1.0000   1.0000   1.0000   1.0000   1.0000   1.0000   1.0000   1.0000
     1.0000   1.0000   1.0000   1.0000   1.0000   1.0000   1.0000   1.0000
     1.0000   1.0000   1.0000   1.0000   1.0000   1.0000   1.0000   1.0000
     1.0000   1.0000   1.0000   1.0000   1.0000   1.0000   1.0000   1.0000
     1.0000   1.0000   1.0000   1.0000   1.0000   1.0000   1.0000   1.0000
     1.0000   1.0000   1.0000   1.0000   1.0000   1.0000   1.0000   1.0000
     1.0000   1.0000   1.0000   1.0000   1.0000   1.0000   1.0000   1.0000
     1.0000   1.0000   1.0000   1.0000   1.0000   1.0000   1.0000   1.0000
     1.0000   1.0000   1.0000   1.0000   1.0000   1.0000   1.0000   1.0000
     1.0000   1.0000   1.0000   1.0000   1.0000   1.0000   1.0000   1.0000
     1.0000   1.0000   1.0000   1.0000   1.0000   1.0000   1.0000   1.0000
     1.0000   1.0000   1.0000   1.0000   1.0000   1.0000   1.0000   1.0000
     1.0000   1.0000   1.0000   1.0000   1.0000   1.0000   1.0000   1.0000
     1.0000   1.0000   1.0000   1.0000   1.0000   1.0000   1.0000   1.0000
     1.0000   1.0000   1.0000   1.0000   1.0000   1.0000   1.0000   1.0000
     1.0000   1.0000   1.0000   1.0000   1.0000   1.0000   1.0000   1.0000
     1.0000   1.0000   1.0000   1.0000   1.0000   1.0000   1.0000   1.0000
     1.0000   1.0000   1.0000   1.0000   1.0000   1.0000   1.0000   1.0000
     1.0000   1.0000   1.0000   1.0000   1.0000   1.0000   1.0000   1.0000
     1.0000   1.0000   1.0000   1.0000   1.0000   1.0000   1.0000   1.0000
     1.0000   1.0000   1.0000   1.0000   1.0000   1.0000   1.0000   1.0000
     1.0000   1.0000   1.0000   1.0000   1.0000   1.0000   1.0000   1.0000
     1.0000   1.0000   1.0000   1.0000   1.0000   1.0000   1.0000   1.0000
     1.0000   1.0000   1.0000   1.0000   1.0000   1.0000   1.0000   1.0000
     1.0000   1.0000   1.0000   1.0000   1.0000   1.0000   1.0000   1.0000
     1.0000   1.0000   1.0000   1.0000   1.0000   1.0000   1.0000   1.0000
     1.0000   1.0000   1.0000   1.0000   1.0000   1.0000   1.0000   1.0000
     1.0000   1.0000   1.0000   1.0000   1.0000   1.0000   1.0000   1.0000
     1.0000   1.0000   1.0000   1.0000   1.0000   1.0000   1.0000   1.0000
     1.0000   1.0000   1.0000   1.0000   1.0000   1.0000   1.0000   1.0000
     1.0000   1.0000   1.0000   1.0000   1.0000   1.0000   1.0000   1.0000
     1.0000   1.0000   1.0000   1.0000   1.0000   1.0000   1.0000   1.0000
     1.0000   1.0000   1.0000   1.0000   1.0000   1.0000   1.0000   1.0000
     1.0000   1.0000   1.0000   1.0000   1.0000   1.0000   1.0000   1.0000
     1.0000   1.0000   1.0000   1.0000   1.0000   1.0000   1.0000   1.0000
     1.0000   1.0000   1.0000   1.0000   0.0000   0.0000   0.0000   0.0000
     0.0000   0.0000   0.0000   0.0000   0.0000   0.0000   0.0000   0.0000
     0.0000   0.0000   0.0000   0.0000   0.0000   0.0000   0.0000   0.0000
     0.0000   0.0000   0.0000   0.0000   0.0000   0.0000   0.0000   0.0000
     0.0000   0.0000   0.0000   0.0000   0.0000   0.0000   0.0000   0.0000
     0.0000   0.0000   0.0000   0.0000   0.0000   0.0000   0.0000   0.0000
     0.0000   0.0000   0.0000   0.0000   0.0000   0.0000   0.0000   0.0000
     0.0000   0.0000   0.0000   0.0000   0.0000   0.0000   0.0000   0.0000
     0.0000   0.0000   0.0000   0.0000   0.0000

     the Fermi energy is     9.6620 ev

!    total energy              =  -11242.44425728 Ry
     total all-electron energy =   -144135.128791 Ry
     estimated scf accuracy    <          1.5E-10 Ry
     smearing contrib. (-TS)   =      -0.00000000 Ry
     internal energy E=F+TS    =  -11242.44425728 Ry

     The total energy is F=E-TS. E is the sum of the following terms:
     one-electron contribution =   -3376.97999272 Ry
     hartree contribution      =    2370.27239432 Ry
     xc contribution           =   -1638.51065059 Ry
     ewald contribution        =   -4123.85194859 Ry
     one-center paw contrib.   =   -4473.37405970 Ry
      -> PAW hartree energy AE =     144.69521362 Ry
      -> PAW hartree energy PS =    -143.29022986 Ry
      -> PAW xc energy AE      =    -156.95365655 Ry
      -> PAW xc energy PS      =      39.74240533 Ry
      -> total E_H with PAW    =    2371.67737808 Ry
      -> total E_XC with PAW   =   -1755.72190181 Ry

     convergence has been achieved in  19 iterations


     -----------------------------------------------
     Non-local corr. energy    =      19.62273694 Ry
     -----------------------------------------------


     Forces acting on atoms (cartesian axes, Ry/au):

     atom    1 type  1   force =     0.00000142    0.00000082    0.00016194
     atom    2 type  1   force =    -0.00000060   -0.00000034    0.00015857
     atom    3 type  1   force =     0.00000000   -0.00000291    0.00016169
     atom    4 type  1   force =     0.00000000   -0.00000251    0.00016136
     atom    5 type  1   force =    -0.00000252    0.00000145    0.00016169
     atom    6 type  1   force =    -0.00000217    0.00000125    0.00016136
     atom    7 type  1   force =     0.00000000    0.00000473    0.00016133
     atom    8 type  1   force =     0.00000000    0.00000244    0.00015950
     atom    9 type  1   force =     0.00000409   -0.00000236    0.00016133
     atom   10 type  1   force =     0.00000211   -0.00000122    0.00015950
     atom   11 type  1   force =     0.00000252    0.00000145    0.00016169
     atom   12 type  1   force =     0.00000217    0.00000125    0.00016136
     atom   13 type  1   force =    -0.00000142    0.00000082    0.00016194
     atom   14 type  1   force =     0.00000060   -0.00000034    0.00015857
     atom   15 type  1   force =    -0.00000409   -0.00000236    0.00016133
     atom   16 type  1   force =    -0.00000211   -0.00000122    0.00015950
     atom   17 type  1   force =     0.00000000   -0.00000164    0.00016194
     atom   18 type  1   force =     0.00000000    0.00000069    0.00015857
     atom   19 type  1   force =     0.00000000    0.00000041    0.00015964
     atom   20 type  1   force =     0.00000000    0.00000118    0.00016142
     atom   21 type  1   force =    -0.00000294   -0.00000170    0.00015909
     atom   22 type  1   force =    -0.00000158   -0.00000091    0.00015993
     atom   23 type  1   force =     0.00000036   -0.00000021    0.00015964
     atom   24 type  1   force =     0.00000102   -0.00000059    0.00016142
     atom   25 type  1   force =     0.00000273    0.00000157    0.00015742
     atom   26 type  1   force =     0.00000313    0.00000181    0.00016096
     atom   27 type  1   force =     0.00000294   -0.00000170    0.00015909
     atom   28 type  1   force =     0.00000158   -0.00000091    0.00015993
     atom   29 type  1   force =     0.00000000    0.00000339    0.00015909
     atom   30 type  1   force =     0.00000000    0.00000182    0.00015993
     atom   31 type  1   force =    -0.00000273    0.00000157    0.00015742
     atom   32 type  1   force =    -0.00000313    0.00000181    0.00016096
     atom   33 type  1   force =     0.00000000   -0.00000315    0.00015742
     atom   34 type  1   force =     0.00000000   -0.00000361    0.00016096
     atom   35 type  1   force =    -0.00000036   -0.00000021    0.00015964
     atom   36 type  1   force =    -0.00000102   -0.00000059    0.00016142
     atom   37 type  2   force =    -0.00000001   -0.00000001   -0.00016043
     atom   38 type  2   force =    -0.00000005   -0.00000003   -0.00016008
     atom   39 type  2   force =     0.00000000    0.00000003   -0.00016035
     atom   40 type  2   force =     0.00000000    0.00000000   -0.00016005
     atom   41 type  2   force =     0.00000003   -0.00000002   -0.00016035
     atom   42 type  2   force =     0.00000000   -0.00000000   -0.00016005
     atom   43 type  2   force =     0.00000000   -0.00000010   -0.00016033
     atom   44 type  2   force =     0.00000000   -0.00000007   -0.00016015
     atom   45 type  2   force =    -0.00000009    0.00000005   -0.00016033
     atom   46 type  2   force =    -0.00000006    0.00000003   -0.00016015
     atom   47 type  2   force =    -0.00000003   -0.00000002   -0.00016035
     atom   48 type  2   force =    -0.00000000   -0.00000000   -0.00016005
     atom   49 type  2   force =     0.00000001   -0.00000001   -0.00016043
     atom   50 type  2   force =     0.00000005   -0.00000003   -0.00016008
     atom   51 type  2   force =     0.00000009    0.00000005   -0.00016033
     atom   52 type  2   force =     0.00000006    0.00000003   -0.00016015
     atom   53 type  2   force =     0.00000000    0.00000001   -0.00016043
     atom   54 type  2   force =     0.00000000    0.00000006   -0.00016008
     atom   55 type  2   force =    -0.00000000   -0.00000002   -0.00016020
     atom   56 type  2   force =     0.00000000    0.00000002   -0.00016030
     atom   57 type  2   force =     0.00000005    0.00000003   -0.00016018
     atom   58 type  2   force =     0.00000008    0.00000004   -0.00016030
     atom   59 type  2   force =    -0.00000002    0.00000001   -0.00016020
     atom   60 type  2   force =     0.00000002   -0.00000001   -0.00016030
     atom   61 type  2   force =    -0.00000005   -0.00000003   -0.00016023
     atom   62 type  2   force =    -0.00000003   -0.00000002   -0.00016025
     atom   63 type  2   force =    -0.00000005    0.00000003   -0.00016018
     atom   64 type  2   force =    -0.00000008    0.00000004   -0.00016030
     atom   65 type  2   force =    -0.00000000   -0.00000005   -0.00016018
     atom   66 type  2   force =     0.00000000   -0.00000009   -0.00016030
     atom   67 type  2   force =     0.00000005   -0.00000003   -0.00016023
     atom   68 type  2   force =     0.00000003   -0.00000002   -0.00016025
     atom   69 type  2   force =    -0.00000000    0.00000005   -0.00016023
     atom   70 type  2   force =    -0.00000000    0.00000003   -0.00016025
     atom   71 type  2   force =     0.00000002    0.00000001   -0.00016020
     atom   72 type  2   force =    -0.00000002   -0.00000001   -0.00016030
     The non-local contrib.  to forces
     atom    1 type  1   force =     0.00000048    0.00000027   -0.00002036
     atom    2 type  1   force =    -0.00000048   -0.00000028   -0.00002188
     atom    3 type  1   force =    -0.00000000   -0.00000181   -0.00002053
     atom    4 type  1   force =     0.00000000   -0.00000148   -0.00002045
     atom    5 type  1   force =    -0.00000156    0.00000090   -0.00002053
     atom    6 type  1   force =    -0.00000128    0.00000074   -0.00002045
     atom    7 type  1   force =     0.00000000    0.00000239   -0.00002097
     atom    8 type  1   force =     0.00000000    0.00000118   -0.00002178
     atom    9 type  1   force =     0.00000207   -0.00000120   -0.00002097
     atom   10 type  1   force =     0.00000103   -0.00000059   -0.00002178
     atom   11 type  1   force =     0.00000156    0.00000090   -0.00002053
     atom   12 type  1   force =     0.00000128    0.00000074   -0.00002045
     atom   13 type  1   force =    -0.00000048    0.00000027   -0.00002036
     atom   14 type  1   force =     0.00000048   -0.00000028   -0.00002188
     atom   15 type  1   force =    -0.00000207   -0.00000120   -0.00002097
     atom   16 type  1   force =    -0.00000103   -0.00000059   -0.00002178
     atom   17 type  1   force =     0.00000000   -0.00000055   -0.00002036
     atom   18 type  1   force =     0.00000000    0.00000056   -0.00002188
     atom   19 type  1   force =     0.00000000    0.00000012   -0.00002065
     atom   20 type  1   force =    -0.00000000    0.00000092   -0.00002188
     atom   21 type  1   force =    -0.00000131   -0.00000075   -0.00002106
     atom   22 type  1   force =    -0.00000074   -0.00000042   -0.00002152
     atom   23 type  1   force =     0.00000010   -0.00000006   -0.00002065
     atom   24 type  1   force =     0.00000080   -0.00000046   -0.00002188
     atom   25 type  1   force =     0.00000148    0.00000085   -0.00002173
     atom   26 type  1   force =     0.00000172    0.00000099   -0.00002161
     atom   27 type  1   force =     0.00000131   -0.00000075   -0.00002106
     atom   28 type  1   force =     0.00000074   -0.00000042   -0.00002152
     atom   29 type  1   force =    -0.00000000    0.00000151   -0.00002106
     atom   30 type  1   force =     0.00000000    0.00000085   -0.00002152
     atom   31 type  1   force =    -0.00000148    0.00000085   -0.00002173
     atom   32 type  1   force =    -0.00000172    0.00000099   -0.00002161
     atom   33 type  1   force =     0.00000000   -0.00000171   -0.00002173
     atom   34 type  1   force =     0.00000000   -0.00000198   -0.00002161
     atom   35 type  1   force =    -0.00000010   -0.00000006   -0.00002065
     atom   36 type  1   force =    -0.00000080   -0.00000046   -0.00002188
     atom   37 type  2   force =    -0.00000027   -0.00000016    0.01415923
     atom   38 type  2   force =    -0.00000040   -0.00000023    0.01416024
     atom   39 type  2   force =     0.00000000    0.00000049    0.01415944
     atom   40 type  2   force =     0.00000000    0.00000010    0.01415993
     atom   41 type  2   force =     0.00000043   -0.00000025    0.01415944
     atom   42 type  2   force =     0.00000008   -0.00000005    0.01415993
     atom   43 type  2   force =     0.00000000   -0.00000086    0.01415966
[...]
     atom   42 type  2   force =     0.00000000    0.00000000    0.00000000
     atom   43 type  2   force =     0.00000000    0.00000000    0.00000000
     atom   44 type  2   force =     0.00000000    0.00000000    0.00000000
     atom   45 type  2   force =     0.00000000    0.00000000    0.00000000
     atom   46 type  2   force =     0.00000000    0.00000000    0.00000000
     atom   47 type  2   force =     0.00000000    0.00000000    0.00000000
     atom   48 type  2   force =     0.00000000    0.00000000    0.00000000
     atom   49 type  2   force =     0.00000000    0.00000000    0.00000000
     atom   50 type  2   force =     0.00000000    0.00000000    0.00000000
     atom   51 type  2   force =     0.00000000    0.00000000    0.00000000
     atom   52 type  2   force =     0.00000000    0.00000000    0.00000000
     atom   53 type  2   force =     0.00000000    0.00000000    0.00000000
     atom   54 type  2   force =     0.00000000    0.00000000    0.00000000
     atom   55 type  2   force =     0.00000000    0.00000000    0.00000000
     atom   56 type  2   force =     0.00000000    0.00000000    0.00000000
     atom   57 type  2   force =     0.00000000    0.00000000    0.00000000
     atom   58 type  2   force =     0.00000000    0.00000000    0.00000000
     atom   59 type  2   force =     0.00000000    0.00000000    0.00000000
     atom   60 type  2   force =     0.00000000    0.00000000    0.00000000
     atom   61 type  2   force =     0.00000000    0.00000000    0.00000000
     atom   62 type  2   force =     0.00000000    0.00000000    0.00000000
     atom   63 type  2   force =     0.00000000    0.00000000    0.00000000
     atom   64 type  2   force =     0.00000000    0.00000000    0.00000000
     atom   65 type  2   force =     0.00000000    0.00000000    0.00000000
     atom   66 type  2   force =     0.00000000    0.00000000    0.00000000
     atom   67 type  2   force =     0.00000000    0.00000000    0.00000000
     atom   68 type  2   force =     0.00000000    0.00000000    0.00000000
     atom   69 type  2   force =     0.00000000    0.00000000    0.00000000
     atom   70 type  2   force =     0.00000000    0.00000000    0.00000000
     atom   71 type  2   force =     0.00000000    0.00000000    0.00000000
     atom   72 type  2   force =     0.00000000    0.00000000    0.00000000
     The SCF correction term to forces
     atom    1 type  1   force =     0.00000274    0.00000158    0.00000339
     atom    2 type  1   force =    -0.00000108   -0.00000062   -0.00000345
     atom    3 type  1   force =     0.00000000   -0.00000460    0.00000267
     atom    4 type  1   force =     0.00000000   -0.00000509    0.00000146
     atom    5 type  1   force =    -0.00000398    0.00000230    0.00000267
     atom    6 type  1   force =    -0.00000441    0.00000255    0.00000146
     atom    7 type  1   force =     0.00000000    0.00000781    0.00000200
     atom    8 type  1   force =     0.00000000    0.00000479   -0.00000144
     atom    9 type  1   force =     0.00000677   -0.00000391    0.00000200
     atom   10 type  1   force =     0.00000415   -0.00000239   -0.00000144
     atom   11 type  1   force =     0.00000398    0.00000230    0.00000267
     atom   12 type  1   force =     0.00000441    0.00000255    0.00000146
     atom   13 type  1   force =    -0.00000274    0.00000158    0.00000339
     atom   14 type  1   force =     0.00000108   -0.00000062   -0.00000345
     atom   15 type  1   force =    -0.00000676   -0.00000391    0.00000200
     atom   16 type  1   force =    -0.00000414   -0.00000239   -0.00000144
     atom   17 type  1   force =     0.00000000   -0.00000317    0.00000339
     atom   18 type  1   force =     0.00000000    0.00000124   -0.00000345
     atom   19 type  1   force =    -0.00000000   -0.00000022   -0.00000097
     atom   20 type  1   force =    -0.00000000    0.00000243    0.00000063
     atom   21 type  1   force =    -0.00000489   -0.00000282   -0.00000289
     atom   22 type  1   force =    -0.00000255   -0.00000147   -0.00000053
     atom   23 type  1   force =    -0.00000019    0.00000011   -0.00000097
     atom   24 type  1   force =     0.00000210   -0.00000122    0.00000063
     atom   25 type  1   force =     0.00000433    0.00000250   -0.00000467
     atom   26 type  1   force =     0.00000531    0.00000307    0.00000102
     atom   27 type  1   force =     0.00000489   -0.00000282   -0.00000289
     atom   28 type  1   force =     0.00000255   -0.00000147   -0.00000053
     atom   29 type  1   force =    -0.00000000    0.00000565   -0.00000289
     atom   30 type  1   force =    -0.00000000    0.00000295   -0.00000053
     atom   31 type  1   force =    -0.00000433    0.00000250   -0.00000467
     atom   32 type  1   force =    -0.00000531    0.00000307    0.00000102
     atom   33 type  1   force =    -0.00000000   -0.00000500   -0.00000467
     atom   34 type  1   force =    -0.00000000   -0.00000613    0.00000102
     atom   35 type  1   force =     0.00000019    0.00000011   -0.00000097
     atom   36 type  1   force =    -0.00000211   -0.00000122    0.00000063
     atom   37 type  2   force =     0.00000080    0.00000046    0.00000069
     atom   38 type  2   force =     0.00000096    0.00000056   -0.00000058
     atom   39 type  2   force =     0.00000000   -0.00000198   -0.00000002
     atom   40 type  2   force =     0.00000000   -0.00000102    0.00000019
     atom   41 type  2   force =    -0.00000172    0.00000099   -0.00000002
     atom   42 type  2   force =    -0.00000089    0.00000051    0.00000019
     atom   43 type  2   force =     0.00000000    0.00000316   -0.00000023
     atom   44 type  2   force =     0.00000000    0.00000242    0.00000067
     atom   45 type  2   force =     0.00000274   -0.00000158   -0.00000023
     atom   46 type  2   force =     0.00000209   -0.00000121    0.00000067
     atom   47 type  2   force =     0.00000172    0.00000099   -0.00000002
     atom   48 type  2   force =     0.00000089    0.00000051    0.00000019
     atom   49 type  2   force =    -0.00000080    0.00000046    0.00000069
     atom   50 type  2   force =    -0.00000096    0.00000056   -0.00000058
     atom   51 type  2   force =    -0.00000274   -0.00000158   -0.00000023
     atom   52 type  2   force =    -0.00000209   -0.00000121    0.00000067
     atom   53 type  2   force =     0.00000000   -0.00000092    0.00000069
     atom   54 type  2   force =     0.00000000   -0.00000111   -0.00000058
     atom   55 type  2   force =    -0.00000000    0.00000045    0.00000024
     atom   56 type  2   force =    -0.00000000   -0.00000129   -0.00000025
     atom   57 type  2   force =    -0.00000218   -0.00000126   -0.00000066
     atom   58 type  2   force =    -0.00000213   -0.00000123    0.00000011
     atom   59 type  2   force =     0.00000039   -0.00000022    0.00000024
     atom   60 type  2   force =    -0.00000112    0.00000065   -0.00000025
     atom   61 type  2   force =     0.00000249    0.00000144    0.00000036
     atom   62 type  2   force =     0.00000136    0.00000079   -0.00000035
     atom   63 type  2   force =     0.00000218   -0.00000126   -0.00000066
     atom   64 type  2   force =     0.00000213   -0.00000123    0.00000011
     atom   65 type  2   force =    -0.00000000    0.00000251   -0.00000066
     atom   66 type  2   force =    -0.00000000    0.00000246    0.00000011
     atom   67 type  2   force =    -0.00000249    0.00000144    0.00000036
     atom   68 type  2   force =    -0.00000136    0.00000079   -0.00000035
     atom   69 type  2   force =    -0.00000000   -0.00000287    0.00000036
     atom   70 type  2   force =    -0.00000000   -0.00000157   -0.00000035
     atom   71 type  2   force =    -0.00000039   -0.00000022    0.00000024
     atom   72 type  2   force =     0.00000112    0.00000065   -0.00000025

     Total force =     0.001360     Total SCF correction =     0.000033


     Computing stress (Cartesian axis) and pressure



     -----------------------------------------------
     Non-local corr. energy    =      19.62273694 Ry
     -----------------------------------------------

          total   stress  (Ry/bohr**3)                   (kbar)     P=        0.81
   0.00000337   0.00000000   0.00000000            0.50        0.00        0.00
   0.00000000   0.00000337  -0.00000000            0.00        0.50       -0.00
   0.00000000  -0.00000000   0.00000984            0.00       -0.00        1.45

     kinetic stress (kbar)  18452.65     -0.00      0.00
                               -0.00  18452.65     -0.00
                                0.00     -0.00  18444.36

     local   stress (kbar)   5446.40     -0.07     -0.00
                               -0.07   5446.31      0.00
                               -0.00      0.00   3812.99

     nonloc. stress (kbar)     58.03     -0.00      0.00
                                0.00     58.03     -0.00
                                0.00      0.00     70.57

     hartree stress (kbar)  19596.65     -0.00     -0.00
                               -0.00  19596.65      0.00
                               -0.00      0.00  20346.59

     exc-cor stress (kbar)   5217.92      0.00      0.00
                                0.00   5217.92     -0.00
                                0.00     -0.00   5218.14

     corecor stress (kbar) -14110.20     -0.00     -0.00
                               -0.00 -14110.20      0.00
                               -0.00      0.00 -14109.62

     ewald   stress (kbar) -34823.05      0.10      0.00
                                0.10 -34822.93     -0.00
                                0.00     -0.00 -33942.83

     hubbard stress (kbar)      0.00      0.00      0.00
                                0.00      0.00      0.00
                                0.00      0.00      0.00

     DFT-D   stress (kbar)      0.00      0.00      0.00
                                0.00      0.00      0.00
                                0.00      0.00      0.00

     XDM     stress (kbar)      0.00      0.00      0.00
                                0.00      0.00      0.00
                                0.00      0.00      0.00

     dft-nl  stress (kbar)    162.09     -0.00     -0.00
                               -0.00    162.09      0.00
                               -0.00      0.00    161.25

     TS-vdW  stress (kbar)      0.00      0.00      0.00
                                0.00      0.00      0.00
                                0.00      0.00      0.00

     MDB     stress (kbar)      0.00      0.00      0.00
                                0.00      0.00      0.00
                                0.00      0.00      0.00

     3D-RISM stress (kbar)      0.00      0.00      0.00
                                0.00      0.00      0.00
                                0.00      0.00      0.00


     BFGS Geometry Optimization
     Energy error            =      0.0E+00 Ry
     Gradient error          =      1.6E-04 Ry/Bohr

     bfgs converged in   1 scf cycles and   0 bfgs steps
     (criteria: energy <  1.0E-04 Ry, force <  1.0E-03 Ry/Bohr)

     End of BFGS Geometry Optimization

     Final energy             =  -11242.4442572846 Ry
Begin final coordinates

ATOMIC_POSITIONS (angstrom)
Ga            1.6222756606        0.9366198184        2.6396807677
Ga            1.6222756606        0.9366198184        7.9279023555
Ga            0.0000014521        3.7464811715        2.6396807677
Ga            0.0000014521        3.7464811715        7.9279023555
Ga           -1.6222727565        6.5563425246        2.6396807677
Ga           -1.6222727565        6.5563425246        7.9279023555
Ga            4.8668240777        0.9366198184        2.6396807677
Ga            4.8668240777        0.9366198184        7.9279023555
Ga            3.2445498691        3.7464811715        2.6396807677
Ga            3.2445498691        3.7464811715        7.9279023555
Ga            1.6222756606        6.5563425246        2.6396807677
Ga            1.6222756606        6.5563425246        7.9279023555
Ga            8.1113724947        0.9366198184        2.6396807677
Ga            8.1113724947        0.9366198184        7.9279023555
Ga            6.4890982862        3.7464811715        2.6396807677
Ga            6.4890982862        3.7464811715        7.9279023555
Ga            4.8668240777        6.5563425246        2.6396807677
Ga            4.8668240777        6.5563425246        7.9279023555
Ga           -0.0000019648        1.8732424465        5.2837915627
Ga           -0.0000019648        1.8732424465       10.5720131505
Ga           -1.6222761733        4.6831037996        5.2837915627
Ga           -1.6222761733        4.6831037996       10.5720131505
Ga           -3.2445503819        7.4929651527        5.2837915627
Ga           -3.2445503819        7.4929651527       10.5720131505
Ga            3.2445464523        1.8732424465        5.2837915627
Ga            3.2445464523        1.8732424465       10.5720131505
Ga            1.6222722437        4.6831037996        5.2837915627
Ga            1.6222722437        4.6831037996       10.5720131505
Ga           -0.0000019648        7.4929651527        5.2837915627
Ga           -0.0000019648        7.4929651527       10.5720131505
Ga            6.4890948693        1.8732424465        5.2837915627
Ga            6.4890948693        1.8732424465       10.5720131505
Ga            4.8668206608        4.6831037996        5.2837915627
Ga            4.8668206608        4.6831037996       10.5720131505
Ga            3.2445464523        7.4929651527        5.2837915627
Ga            3.2445464523        7.4929651527       10.5720131505
N             1.6222756606        0.9366198184        4.6316239188
N             1.6222756606        0.9366198184        9.9198455066
N             0.0000014521        3.7464811715        4.6316239188
N             0.0000014521        3.7464811715        9.9198455066
N            -1.6222727565        6.5563425246        4.6316239188
N            -1.6222727565        6.5563425246        9.9198455066
N             4.8668240777        0.9366198184        4.6316239188
N             4.8668240777        0.9366198184        9.9198455066
N             3.2445498691        3.7464811715        4.6316239188
N             3.2445498691        3.7464811715        9.9198455066
N             1.6222756606        6.5563425246        4.6316239188
N             1.6222756606        6.5563425246        9.9198455066
N             8.1113724947        0.9366198184        4.6316239188
N             8.1113724947        0.9366198184        9.9198455066
N             6.4890982862        3.7464811715        4.6316239188
N             6.4890982862        3.7464811715        9.9198455066
N             4.8668240777        6.5563425246        4.6316239188
N             4.8668240777        6.5563425246        9.9198455066
N            -0.0000019648        1.8732424465        1.9875131237
N            -0.0000019648        1.8732424465        7.2757347115
N            -1.6222761733        4.6831037996        1.9875131237
N            -1.6222761733        4.6831037996        7.2757347115
N            -3.2445503819        7.4929651527        1.9875131237
N            -3.2445503819        7.4929651527        7.2757347115
N             3.2445464523        1.8732424465        1.9875131237
N             3.2445464523        1.8732424465        7.2757347115
N             1.6222722437        4.6831037996        1.9875131237
N             1.6222722437        4.6831037996        7.2757347115
N            -0.0000019648        7.4929651527        1.9875131237
N            -0.0000019648        7.4929651527        7.2757347115
N             6.4890948693        1.8732424465        1.9875131237
N             6.4890948693        1.8732424465        7.2757347115
N             4.8668206608        4.6831037996        1.9875131237
N             4.8668206608        4.6831037996        7.2757347115
N             3.2445464523        7.4929651527        1.9875131237
N             3.2445464523        7.4929651527        7.2757347115
End final coordinates



     Writing all to output data dir ./GaN.save/
 
     init_run     :      3.73s CPU      3.92s WALL (       1 calls)
     electrons    :    388.12s CPU    410.87s WALL (       1 calls)
     forces       :      1.83s CPU      1.89s WALL (       1 calls)
     stress       :     18.32s CPU     18.46s WALL (       1 calls)

     Called by init_run:
     wfcinit      :      2.06s CPU      2.14s WALL (       1 calls)
     wfcinit:atom :      0.02s CPU      0.02s WALL (       1 calls)
     wfcinit:wfcr :      1.99s CPU      2.03s WALL (       1 calls)
     potinit      :      0.98s CPU      1.05s WALL (       1 calls)
     hinit0       :      0.43s CPU      0.44s WALL (       1 calls)

     Called by electrons:
     c_bands      :    365.12s CPU    386.72s WALL (      19 calls)
     sum_band     :     11.40s CPU     11.59s WALL (      19 calls)
     v_of_rho     :      7.48s CPU      8.06s WALL (      20 calls)
     v_h          :      0.07s CPU      0.08s WALL (      20 calls)
     v_xc         :      8.13s CPU      8.73s WALL (      22 calls)
     newd         :      0.79s CPU      0.93s WALL (      20 calls)
     PAW_pot      :      3.02s CPU      3.13s WALL (      20 calls)
     mix_rho      :      0.38s CPU      0.39s WALL (      19 calls)
     vdW_kernel   :      0.25s CPU      0.26s WALL (       1 calls)

     Called by c_bands:
     init_us_2    :      0.64s CPU      0.68s WALL (      39 calls)
     init_us_2:cp :      0.64s CPU      0.68s WALL (      39 calls)
     cegterg      :    290.74s CPU    301.83s WALL (      19 calls)

     Called by sum_band:
     sum_band:wei :      0.01s CPU      0.01s WALL (      19 calls)
     sum_band:loo :      9.99s CPU     10.12s WALL (      19 calls)
     sum_band:buf :      0.00s CPU      0.00s WALL (      19 calls)
     sum_band:ini :      0.54s CPU      0.55s WALL (      19 calls)
     sum_band:cal :      4.05s CPU      4.09s WALL (      19 calls)
     sum_band:bec :      0.08s CPU      0.09s WALL (      19 calls)
     addusdens    :      0.88s CPU      0.92s WALL (      19 calls)
     addusd:skk   :      0.07s CPU      0.07s WALL (      38 calls)
     addusd:dgemm :      0.55s CPU      0.58s WALL (      38 calls)
     addusd:qvan2 :      0.22s CPU      0.22s WALL (      38 calls)

     Called by *egterg:
     cdiaghg      :    171.32s CPU    179.05s WALL (     185 calls)
     cegterg:over :     21.92s CPU     22.57s WALL (     166 calls)
     cegterg:upda :     13.50s CPU     13.87s WALL (     166 calls)
     cegterg:last :      6.48s CPU      6.53s WALL (      22 calls)
     h_psi        :     59.83s CPU     60.92s WALL (     186 calls)
     s_psi        :     12.88s CPU     12.98s WALL (     186 calls)
     g_psi        :      0.13s CPU      0.13s WALL (     166 calls)

     Called by h_psi:
     h_psi:calbec :     14.87s CPU     15.00s WALL (     186 calls)
     vloc_psi     :     31.47s CPU     31.88s WALL (     186 calls)
     add_vuspsi   :     12.91s CPU     13.03s WALL (     186 calls)

     General routines
     calbec       :     20.01s CPU     20.18s WALL (     210 calls)
     fft          :      3.13s CPU      3.18s WALL (    1427 calls)
     ffts         :      0.07s CPU      0.07s WALL (      39 calls)
     fftw         :     33.08s CPU     33.51s WALL (   52901 calls)
     interpolate  :      0.09s CPU      0.09s WALL (      20 calls)
 
     Parallel routines

     PAW routines
     PAW_pot      :      3.02s CPU      3.13s WALL (      20 calls)
     PAW_symme    :      0.06s CPU      0.06s WALL (      39 calls)
 
     PWSCF        :   6m52.90s CPU   7m18.10s WALL

 
   This run was terminated on:   8:14:11  29Sep2023            

=------------------------------------------------------------------------------=
   JOB DONE.
=------------------------------------------------------------------------------=
