
     Program PWSCF v.7.1 starts on 21Feb2024 at  8:50:54 

     This program is part of the open-source Quantum ESPRESSO suite
     for quantum simulation of materials; please cite
         "P. Giannozzi et al., J. Phys.:Condens. Matter 21 395502 (2009);
         "P. Giannozzi et al., J. Phys.:Condens. Matter 29 465901 (2017);
         "P. Giannozzi et al., J. Chem. Phys. 152 154105 (2020);
          URL http://www.quantum-espresso.org", 
     in publications or presentations arising from this work. More details at
     http://www.quantum-espresso.org/quote

     Parallel version (MPI & OpenMP), running on     128 processor cores
     Number of MPI processes:               128
     Threads/MPI process:                     1

     MPI processes distributed on     1 nodes
     1947514 MiB available memory on the printing compute node when the environment starts
 
     Reading input from espresso.pwi
Warning: card &CELL ignored
Warning: card    CELL_DYNAMICS    = 'BFGS' ignored
Warning: card / ignored

     Current dimensions of program PWSCF are:
     Max number of different atomic species (ntypx) = 10
     Max number of k-points (npk) =  40000
     Max angular momentum in pseudopotentials (lmaxx) =  4
     file N.pbe-n-kjpaw_psl.1.0.0.UPF: wavefunction(s)  2S renormalized

     **************************************************************************
     Initializing libbeef V0.1.2 with the BEEF-vdW functional.
     Citation: Wellendorff et al., PRB 85, 235149 (2012).
     **************************************************************************


     IMPORTANT: XC functional enforced from input :
     Exchange-correlation= BEEF-VDW
                           (   1   4  43  14   2   0   0)
     Any further DFT definition will be discarded
     Please, verify this is what you really want

 
     K-points division:     npool     =       4
     R & G space division:  proc/nbgrp/npool/nimage =      32
     Subspace diagonalization in iterative solution of the eigenvalue problem:
     a serial algorithm will be used

 
     Parallelization info
     --------------------
     sticks:   dense  smooth     PW     G-vecs:    dense   smooth      PW
     Min          97      77     21                 4095     2916     411
     Max          98      79     22                 4100     2920     414
     Sum        3125    2493    673               131155    93381   13205
 
     Using Slab Decomposition
 


     bravais-lattice index     =            1
     lattice parameter (alat)  =      10.5782  a.u.
     unit-cell volume          =    1183.6968 (a.u.)^3
     number of atoms/cell      =            8
     number of atomic types    =            1
     number of electrons       =        40.00
     number of Kohn-Sham states=           24
     kinetic-energy cutoff     =      70.0000  Ry
     charge density cutoff     =     350.0000  Ry
     scf convergence threshold =      1.0E-07
     mixing beta               =       0.7000
     number of iterations used =            8  plain     mixing
     Exchange-correlation= BEEF-VDW
                           (   1   4  43  14   2   0   0)

     celldm(1)=  10.578242  celldm(2)=   0.000000  celldm(3)=   0.000000
     celldm(4)=   0.000000  celldm(5)=   0.000000  celldm(6)=   0.000000

     crystal axes: (cart. coord. in units of alat)
               a(1) = (   1.000000   0.000000   0.000000 )  
               a(2) = (   0.000000   1.000000   0.000000 )  
               a(3) = (   0.000000   0.000000   1.000000 )  

     reciprocal axes: (cart. coord. in units 2 pi/alat)
               b(1) = (  1.000000  0.000000  0.000000 )  
               b(2) = (  0.000000  1.000000  0.000000 )  
               b(3) = (  0.000000  0.000000  1.000000 )  


     PseudoPot. # 1 for N  read from file:
     /trace/group/acmegroup/atimmins/packages/espresso/pseudo/psl_1.0.0/pslibrary.1.0.0/pbe/PSEUDOPOTENTIALS/N.pbe-n-kjpaw_psl.1.0.0.UPF
     MD5 check sum: f77f775694dac7e2c3fe1c82443d1a16
     Pseudo is Projector augmented-wave + core cor, Zval =  5.0
     Generated using 'atomic' code by A. Dal Corso  v.7.1
     Shape of augmentation charge: PSQ
     Using radial grid of 1085 points,  4 beta functions with: 
                l(1) =   0
                l(2) =   0
                l(3) =   1
                l(4) =   1
     Q(r) pseudized with 0 coefficients 


     atomic species   valence    mass     pseudopotential
        N              5.00    14.00700     N ( 1.00)

     24 Sym. Ops., with inversion, found (18 have fractional translation)


                                    s                        frac. trans.

      isym =  1     identity                                     

 cryst.   s( 1) = (     1          0          0      )
                  (     0          1          0      )
                  (     0          0          1      )

 cart.    s( 1) = (  1.0000000  0.0000000  0.0000000 )
                  (  0.0000000  1.0000000  0.0000000 )
                  (  0.0000000  0.0000000  1.0000000 )


      isym =  2     180 deg rotation - cart. axis [0,0,1]        

 cryst.   s( 2) = (    -1          0          0      )    f =( -0.5000000 )
                  (     0         -1          0      )       (  0.0000000 )
                  (     0          0          1      )       (  0.5000000 )

 cart.    s( 2) = ( -1.0000000  0.0000000  0.0000000 )    f =( -0.5000000 )
                  (  0.0000000 -1.0000000  0.0000000 )       (  0.0000000 )
                  (  0.0000000  0.0000000  1.0000000 )       (  0.5000000 )


      isym =  3     180 deg rotation - cart. axis [0,1,0]        

 cryst.   s( 3) = (    -1          0          0      )    f =(  0.0000000 )
                  (     0          1          0      )       (  0.5000000 )
                  (     0          0         -1      )       ( -0.5000000 )

 cart.    s( 3) = ( -1.0000000  0.0000000  0.0000000 )    f =(  0.0000000 )
                  (  0.0000000  1.0000000  0.0000000 )       (  0.5000000 )
                  (  0.0000000  0.0000000 -1.0000000 )       ( -0.5000000 )


      isym =  4     180 deg rotation - cart. axis [1,0,0]        

 cryst.   s( 4) = (     1          0          0      )    f =(  0.5000000 )
                  (     0         -1          0      )       ( -0.5000000 )
                  (     0          0         -1      )       (  0.0000000 )

 cart.    s( 4) = (  1.0000000  0.0000000  0.0000000 )    f =(  0.5000000 )
                  (  0.0000000 -1.0000000  0.0000000 )       ( -0.5000000 )
                  (  0.0000000  0.0000000 -1.0000000 )       (  0.0000000 )


      isym =  5     120 deg rotation - cart. axis [-1,-1,-1]     

 cryst.   s( 5) = (     0          0          1      )
                  (     1          0          0      )
                  (     0          1          0      )

 cart.    s( 5) = (  0.0000000  1.0000000  0.0000000 )
                  (  0.0000000  0.0000000  1.0000000 )
                  (  1.0000000  0.0000000  0.0000000 )


      isym =  6     120 deg rotation - cart. axis [-1,1,1]       

 cryst.   s( 6) = (     0          0         -1      )    f =(  0.0000000 )
                  (    -1          0          0      )       (  0.5000000 )
                  (     0          1          0      )       ( -0.5000000 )

 cart.    s( 6) = (  0.0000000 -1.0000000  0.0000000 )    f =(  0.0000000 )
                  (  0.0000000  0.0000000  1.0000000 )       (  0.5000000 )
                  ( -1.0000000  0.0000000  0.0000000 )       ( -0.5000000 )


      isym =  7     120 deg rotation - cart. axis [1,1,-1]       

 cryst.   s( 7) = (     0          0         -1      )    f =(  0.5000000 )
                  (     1          0          0      )       ( -0.5000000 )
                  (     0         -1          0      )       (  0.0000000 )

 cart.    s( 7) = (  0.0000000  1.0000000  0.0000000 )    f =(  0.5000000 )
                  (  0.0000000  0.0000000 -1.0000000 )       ( -0.5000000 )
                  ( -1.0000000  0.0000000  0.0000000 )       (  0.0000000 )


      isym =  8     120 deg rotation - cart. axis [1,-1,1]       

 cryst.   s( 8) = (     0          0          1      )    f =( -0.5000000 )
                  (    -1          0          0      )       (  0.0000000 )
                  (     0         -1          0      )       (  0.5000000 )

 cart.    s( 8) = (  0.0000000 -1.0000000  0.0000000 )    f =( -0.5000000 )
                  (  0.0000000  0.0000000 -1.0000000 )       (  0.0000000 )
                  (  1.0000000  0.0000000  0.0000000 )       (  0.5000000 )


      isym =  9     120 deg rotation - cart. axis [1,1,1]        

 cryst.   s( 9) = (     0          1          0      )
                  (     0          0          1      )
                  (     1          0          0      )

 cart.    s( 9) = (  0.0000000  0.0000000  1.0000000 )
                  (  1.0000000  0.0000000  0.0000000 )
                  (  0.0000000  1.0000000  0.0000000 )


      isym = 10     120 deg rotation - cart. axis [-1,1,-1]      

 cryst.   s(10) = (     0         -1          0      )    f =(  0.5000000 )
                  (     0          0         -1      )       ( -0.5000000 )
                  (     1          0          0      )       (  0.0000000 )

 cart.    s(10) = (  0.0000000  0.0000000  1.0000000 )    f =(  0.5000000 )
                  ( -1.0000000  0.0000000  0.0000000 )       ( -0.5000000 )
                  (  0.0000000 -1.0000000  0.0000000 )       (  0.0000000 )


      isym = 11     120 deg rotation - cart. axis [1,-1,-1]      

 cryst.   s(11) = (     0         -1          0      )    f =( -0.5000000 )
                  (     0          0          1      )       (  0.0000000 )
                  (    -1          0          0      )       (  0.5000000 )

 cart.    s(11) = (  0.0000000  0.0000000 -1.0000000 )    f =( -0.5000000 )
                  ( -1.0000000  0.0000000  0.0000000 )       (  0.0000000 )
                  (  0.0000000  1.0000000  0.0000000 )       (  0.5000000 )


      isym = 12     120 deg rotation - cart. axis [-1,-1,1]      

 cryst.   s(12) = (     0          1          0      )    f =(  0.0000000 )
                  (     0          0         -1      )       (  0.5000000 )
                  (    -1          0          0      )       ( -0.5000000 )

 cart.    s(12) = (  0.0000000  0.0000000 -1.0000000 )    f =(  0.0000000 )
                  (  1.0000000  0.0000000  0.0000000 )       (  0.5000000 )
                  (  0.0000000 -1.0000000  0.0000000 )       ( -0.5000000 )


      isym = 13     inversion                                    

 cryst.   s(13) = (    -1          0          0      )
                  (     0         -1          0      )
                  (     0          0         -1      )

 cart.    s(13) = ( -1.0000000  0.0000000  0.0000000 )
                  (  0.0000000 -1.0000000  0.0000000 )
                  (  0.0000000  0.0000000 -1.0000000 )


      isym = 14     inv. 180 deg rotation - cart. axis [0,0,1]   

 cryst.   s(14) = (     1          0          0      )    f =(  0.5000000 )
                  (     0          1          0      )       (  0.0000000 )
                  (     0          0         -1      )       ( -0.5000000 )

 cart.    s(14) = (  1.0000000  0.0000000  0.0000000 )    f =(  0.5000000 )
                  (  0.0000000  1.0000000  0.0000000 )       (  0.0000000 )
                  (  0.0000000  0.0000000 -1.0000000 )       ( -0.5000000 )


      isym = 15     inv. 180 deg rotation - cart. axis [0,1,0]   

 cryst.   s(15) = (     1          0          0      )    f =(  0.0000000 )
                  (     0         -1          0      )       ( -0.5000000 )
                  (     0          0          1      )       (  0.5000000 )

 cart.    s(15) = (  1.0000000  0.0000000  0.0000000 )    f =(  0.0000000 )
                  (  0.0000000 -1.0000000  0.0000000 )       ( -0.5000000 )
                  (  0.0000000  0.0000000  1.0000000 )       (  0.5000000 )


      isym = 16     inv. 180 deg rotation - cart. axis [1,0,0]   

 cryst.   s(16) = (    -1          0          0      )    f =( -0.5000000 )
                  (     0          1          0      )       (  0.5000000 )
                  (     0          0          1      )       (  0.0000000 )

 cart.    s(16) = ( -1.0000000  0.0000000  0.0000000 )    f =( -0.5000000 )
                  (  0.0000000  1.0000000  0.0000000 )       (  0.5000000 )
                  (  0.0000000  0.0000000  1.0000000 )       (  0.0000000 )


      isym = 17     inv. 120 deg rotation - cart. axis [-1,-1,-1]

 cryst.   s(17) = (     0          0         -1      )
                  (    -1          0          0      )
                  (     0         -1          0      )

 cart.    s(17) = (  0.0000000 -1.0000000  0.0000000 )
                  (  0.0000000  0.0000000 -1.0000000 )
                  ( -1.0000000  0.0000000  0.0000000 )


      isym = 18     inv. 120 deg rotation - cart. axis [-1,1,1]  

 cryst.   s(18) = (     0          0          1      )    f =(  0.0000000 )
                  (     1          0          0      )       ( -0.5000000 )
                  (     0         -1          0      )       (  0.5000000 )

 cart.    s(18) = (  0.0000000  1.0000000  0.0000000 )    f =(  0.0000000 )
                  (  0.0000000  0.0000000 -1.0000000 )       ( -0.5000000 )
                  (  1.0000000  0.0000000  0.0000000 )       (  0.5000000 )


      isym = 19     inv. 120 deg rotation - cart. axis [1,1,-1]  

 cryst.   s(19) = (     0          0          1      )    f =( -0.5000000 )
                  (    -1          0          0      )       (  0.5000000 )
                  (     0          1          0      )       (  0.0000000 )

 cart.    s(19) = (  0.0000000 -1.0000000  0.0000000 )    f =( -0.5000000 )
                  (  0.0000000  0.0000000  1.0000000 )       (  0.5000000 )
                  (  1.0000000  0.0000000  0.0000000 )       (  0.0000000 )


      isym = 20     inv. 120 deg rotation - cart. axis [1,-1,1]  

 cryst.   s(20) = (     0          0         -1      )    f =(  0.5000000 )
                  (     1          0          0      )       (  0.0000000 )
                  (     0          1          0      )       ( -0.5000000 )

 cart.    s(20) = (  0.0000000  1.0000000  0.0000000 )    f =(  0.5000000 )
                  (  0.0000000  0.0000000  1.0000000 )       (  0.0000000 )
                  ( -1.0000000  0.0000000  0.0000000 )       ( -0.5000000 )


      isym = 21     inv. 120 deg rotation - cart. axis [1,1,1]   

 cryst.   s(21) = (     0         -1          0      )
                  (     0          0         -1      )
                  (    -1          0          0      )

 cart.    s(21) = (  0.0000000  0.0000000 -1.0000000 )
                  ( -1.0000000  0.0000000  0.0000000 )
                  (  0.0000000 -1.0000000  0.0000000 )


      isym = 22     inv. 120 deg rotation - cart. axis [-1,1,-1] 

 cryst.   s(22) = (     0          1          0      )    f =( -0.5000000 )
                  (     0          0          1      )       (  0.5000000 )
                  (    -1          0          0      )       (  0.0000000 )

 cart.    s(22) = (  0.0000000  0.0000000 -1.0000000 )    f =( -0.5000000 )
                  (  1.0000000  0.0000000  0.0000000 )       (  0.5000000 )
                  (  0.0000000  1.0000000  0.0000000 )       (  0.0000000 )


      isym = 23     inv. 120 deg rotation - cart. axis [1,-1,-1] 

 cryst.   s(23) = (     0          1          0      )    f =(  0.5000000 )
                  (     0          0         -1      )       (  0.0000000 )
                  (     1          0          0      )       ( -0.5000000 )

 cart.    s(23) = (  0.0000000  0.0000000  1.0000000 )    f =(  0.5000000 )
                  (  1.0000000  0.0000000  0.0000000 )       (  0.0000000 )
                  (  0.0000000 -1.0000000  0.0000000 )       ( -0.5000000 )


      isym = 24     inv. 120 deg rotation - cart. axis [-1,-1,1] 

 cryst.   s(24) = (     0         -1          0      )    f =(  0.0000000 )
                  (     0          0          1      )       ( -0.5000000 )
                  (     1          0          0      )       (  0.5000000 )

 cart.    s(24) = (  0.0000000  0.0000000  1.0000000 )    f =(  0.0000000 )
                  ( -1.0000000  0.0000000  0.0000000 )       ( -0.5000000 )
                  (  0.0000000  1.0000000  0.0000000 )       (  0.5000000 )


     point group T_h (m-3)  
     there are  8 classes
     the character table:

       E     3C2   4C3   4C3'  i     3s_h  4S6^5 4S6  
A_g    1.00  1.00  1.00  1.00  1.00  1.00  1.00  1.00
E_g    1.00  1.00 -0.50 -0.50  1.00  1.00 -0.50 -0.50
E_g*   1.00  1.00 -0.50 -0.50  1.00  1.00 -0.50 -0.50
T_g    3.00 -1.00  0.00  0.00  3.00 -1.00  0.00  0.00
A_u    1.00  1.00  1.00  1.00 -1.00 -1.00 -1.00 -1.00
E_u    1.00  1.00 -0.50 -0.50 -1.00 -1.00  0.50  0.50
E_u*   1.00  1.00 -0.50 -0.50 -1.00 -1.00  0.50  0.50
T_u    3.00 -1.00  0.00  0.00 -3.00  1.00  0.00  0.00
     imaginary part
A_g    0.00  0.00  0.00  0.00  0.00  0.00  0.00  0.00
E_g    0.00  0.00  0.87 -0.87  0.00  0.00  0.87 -0.87
E_g*   0.00  0.00 -0.87  0.87  0.00  0.00 -0.87  0.87
T_g    0.00  0.00  0.00  0.00  0.00  0.00  0.00  0.00
A_u    0.00  0.00  0.00  0.00  0.00  0.00  0.00  0.00
E_u    0.00  0.00  0.87 -0.87  0.00  0.00 -0.87  0.87
E_u*   0.00  0.00 -0.87  0.87  0.00  0.00  0.87 -0.87
T_u    0.00  0.00  0.00  0.00  0.00  0.00  0.00  0.00

     the symmetry operations in each class and the name of the first element:

     E        1
          identity                                               
     3C2      2    3    4
          180 deg rotation - cart. axis [0,0,1]                  
     4C3      9   12   10   11
          120 deg rotation - cart. axis [1,1,1]                  
     4C3'     5    7    8    6
          120 deg rotation - cart. axis [-1,-1,-1]               
     i       13
          inversion                                              
     3s_h    14   15   16
          inv. 180 deg rotation - cart. axis [0,0,1]             
     4S6^5   21   24   22   23
          inv. 120 deg rotation - cart. axis [1,1,1]             
     4S6     17   19   20   18
          inv. 120 deg rotation - cart. axis [-1,-1,-1]          

   Cartesian axes

     site n.     atom                  positions (alat units)
         1           N   tau(   1) = (   0.0570822   0.0570822   0.0570822  )
         2           N   tau(   2) = (   0.4429178   0.9429178   0.5570822  )
         3           N   tau(   3) = (   0.5570822   0.4429178   0.9429178  )
         4           N   tau(   4) = (   0.9429178   0.5570822   0.4429178  )
         5           N   tau(   5) = (   0.9429178   0.9429178   0.9429178  )
         6           N   tau(   6) = (   0.5570822   0.0570822   0.4429178  )
         7           N   tau(   7) = (   0.4429178   0.5570822   0.0570822  )
         8           N   tau(   8) = (   0.0570822   0.4429178   0.5570822  )

   Crystallographic axes

     site n.     atom                  positions (cryst. coord.)
         1           N   tau(   1) = (  0.0570822  0.0570822  0.0570822  )
         2           N   tau(   2) = (  0.4429178  0.9429178  0.5570822  )
         3           N   tau(   3) = (  0.5570822  0.4429178  0.9429178  )
         4           N   tau(   4) = (  0.9429178  0.5570822  0.4429178  )
         5           N   tau(   5) = (  0.9429178  0.9429178  0.9429178  )
         6           N   tau(   6) = (  0.5570822  0.0570822  0.4429178  )
         7           N   tau(   7) = (  0.4429178  0.5570822  0.0570822  )
         8           N   tau(   8) = (  0.0570822  0.4429178  0.5570822  )

     number of k points=     4  Gaussian smearing, width (Ry)=  0.0100
                       cart. coord. in units 2pi/alat
        k(    1) = (   0.0000000   0.0000000   0.0000000), wk =   0.0740741
        k(    2) = (   0.0000000   0.0000000   0.3333333), wk =   0.4444444
        k(    3) = (   0.0000000   0.3333333   0.3333333), wk =   0.8888889
        k(    4) = (   0.3333333   0.3333333   0.3333333), wk =   0.5925926

                       cryst. coord.
        k(    1) = (   0.0000000   0.0000000   0.0000000), wk =   0.0740741
        k(    2) = (   0.0000000   0.0000000   0.3333333), wk =   0.4444444
        k(    3) = (   0.0000000   0.3333333   0.3333333), wk =   0.8888889
        k(    4) = (   0.3333333   0.3333333   0.3333333), wk =   0.5925926

     Dense  grid:   131155 G-vectors     FFT dimensions: (  64,  64,  64)

     Smooth grid:    93381 G-vectors     FFT dimensions: (  60,  60,  60)

     Dynamical RAM for                 wfc:       0.13 MB

     Dynamical RAM for     wfc (w. buffer):       0.13 MB

     Dynamical RAM for           str. fact:       0.06 MB

     Dynamical RAM for           local pot:       0.00 MB

     Dynamical RAM for          nlocal pot:       0.36 MB

     Dynamical RAM for                qrad:       0.43 MB

     Dynamical RAM for          rho,v,vnew:       0.38 MB

     Dynamical RAM for               rhoin:       0.13 MB

     Dynamical RAM for            rho*nmix:       1.00 MB

     Dynamical RAM for           G-vectors:       0.26 MB

     Dynamical RAM for          h,s,v(r/c):       0.42 MB

     Dynamical RAM for          <psi|beta>:       0.02 MB

     Dynamical RAM for                 psi:       0.53 MB

     Dynamical RAM for                hpsi:       0.53 MB

     Dynamical RAM for                spsi:       0.53 MB

     Dynamical RAM for      wfcinit/wfcrot:       0.28 MB

     Dynamical RAM for           addusdens:       0.84 MB

     Dynamical RAM for          addusforce:       1.05 MB

     Dynamical RAM for         addusstress:       0.80 MB

     Estimated static dynamical RAM per process >       2.18 MB

     Estimated max dynamical RAM per process >       5.23 MB

     Estimated total dynamical RAM >     572.83 MB

     Atomic positions and unit cell read from directory:
     ./PbI2.save/
 

     Check: negative core charge=   -0.000007

     The initial density is read from file :
     ./PbI2.save/charge-density



     %%%%%%%%%%%%%%%%%%%%%%%%%%%%%%%%%%%%%%%%%%%%%%%%%%%%%%%%%%%%%%%%%%%%%%%%
     %                                                                      %
     % You are using vdW-DF, which was implemented by the Thonhauser group. %
     % Please cite the following two papers that made this development      %
     % possible and the two reviews that describe the various versions:     %
     %                                                                      %
     %   T. Thonhauser et al., PRL 115, 136402 (2015).                      %
     %   T. Thonhauser et al., PRB 76, 125112 (2007).                       %
     %   K. Berland et al., Rep. Prog. Phys. 78, 066501 (2015).             %
     %   D.C. Langreth et al., J. Phys.: Condens. Matter 21, 084203 (2009). %
     %                                                                      %
     % If you are calculating stress with vdW-DF, please also cite:         %
     %                                                                      %
     %   R. Sabatini et al., J. Phys.: Condens. Matter 24, 424209 (2012).   %
     %                                                                      %
     %%%%%%%%%%%%%%%%%%%%%%%%%%%%%%%%%%%%%%%%%%%%%%%%%%%%%%%%%%%%%%%%%%%%%%%%

     %%%%%%%%%%%%%%%%%%%%%%%%%%%%%%%%%%%%%%%%%%%%%%%%%%%%%%%%%%%%%%%%%%%%%%%%
     %                                                                      %
     %  vdW-DF NEWS:                                                        %
     %                                                                      %
     %  * vdW-DF3 is now available. DOI: 10.1021/acs.jctc.0c00471           %
     %    use with input_dft = 'vdW-DF3-opt1' or 'vdW-DF3-opt2'             %
     %                                                                      %
     %  * Unscreened and range-separated vdW-DF hybrid functionals          %
     %    DOI: 10.1063/1.4986522 and 10.1088/1361-648X/ac2ad2               %
     %    use with input_dft = 'vdW-DF-cx0' (etc) and 'vdW-DF-ahcx'         %
     %                                                                      %
     %%%%%%%%%%%%%%%%%%%%%%%%%%%%%%%%%%%%%%%%%%%%%%%%%%%%%%%%%%%%%%%%%%%%%%%%


     Carrying out vdW-DF run using the following parameters:
     Nqs    =  20  Npoints =  1024  r_max =  100.000
     q_mesh =  0.00001000  0.04494208  0.09755937  0.15916263
               0.23128650  0.31572767  0.41458969  0.53033537
               0.66584808  0.82450364  1.01025438  1.22772762
               1.48234092  1.78043706  2.12944203  2.53805004
               3.01644009  3.57652955  4.23227104  5.00000000


     -----------------------------------------------
     Non-local corr. energy    =       0.64768123 Ry
     -----------------------------------------------

     Starting wfcs from file
     Checking if some PAW data can be deallocated... 

     total cpu time spent up to now is        1.9 secs

     Self-consistent Calculation

     iteration #  1     ecut=    70.00 Ry     beta= 0.70
     Davidson diagonalization with overlap

---- Real-time Memory Report at c_bands before calling an iterative solver
           141 MiB given to the printing process from OS
             0 MiB allocation reported by mallinfo(arena+hblkhd)
       1944186 MiB available memory on the node where the printing process lives
------------------
     ethr =  1.00E-05,  avg # of iterations =  1.0

     Threshold (ethr) on eigenvalues was too large:
     Diagonalizing with lowered threshold

     Davidson diagonalization with overlap

---- Real-time Memory Report at c_bands before calling an iterative solver
           149 MiB given to the printing process from OS
             0 MiB allocation reported by mallinfo(arena+hblkhd)
       1944129 MiB available memory on the node where the printing process lives
------------------
     ethr =  8.89E-11,  avg # of iterations =  5.3


     -----------------------------------------------
     Non-local corr. energy    =       0.64766394 Ry
     -----------------------------------------------


     total cpu time spent up to now is        3.5 secs

     End of self-consistent calculation

          k = 0.0000 0.0000 0.0000 ( 11753 PWs)   bands (ev):

   -24.1606 -24.1002 -24.1002 -24.1002  -9.4886  -9.4886  -9.4886  -9.3163
    -7.4230  -7.4230  -7.4229  -7.2170  -7.2170  -7.0347  -7.0347  -7.0347
    -6.7645  -5.8541  -5.8541  -5.8541   1.4827   1.4827   1.4827   2.4339

     occupation numbers 
     1.0000   1.0000   1.0000   1.0000   1.0000   1.0000   1.0000   1.0000
     1.0000   1.0000   1.0000   1.0000   1.0000   1.0000   1.0000   1.0000
     1.0000   1.0000   1.0000   1.0000   0.0000   0.0000   0.0000   0.0000

          k = 0.0000 0.0000 0.3333 ( 11656 PWs)   bands (ev):

   -24.1455 -24.1153 -24.1001 -24.1001  -9.4807  -9.4790  -9.4445  -9.3584
    -7.4704  -7.4449  -7.3926  -7.2892  -7.2186  -7.1835  -7.1117  -7.0912
    -6.3407  -5.9654  -5.8324  -5.8318   1.6730   1.6866   1.8251   2.3351

     occupation numbers 
     1.0000   1.0000   1.0000   1.0000   1.0000   1.0000   1.0000   1.0000
     1.0000   1.0000   1.0000   1.0000   1.0000   1.0000   1.0000   1.0000
     1.0000   1.0000   1.0000   1.0000   0.0000   0.0000   0.0000   0.0000

          k = 0.0000 0.3333 0.3333 ( 11730 PWs)   bands (ev):

   -24.1340 -24.1113 -24.1113 -24.1037  -9.4764  -9.4588  -9.4559  -9.3976
    -7.5185  -7.4498  -7.3864  -7.3160  -7.2135  -7.1769  -7.1017  -7.0715
    -6.1920  -5.9356  -5.9344  -5.8686   1.8521   1.9677   1.9698   2.3048

     occupation numbers 
     1.0000   1.0000   1.0000   1.0000   1.0000   1.0000   1.0000   1.0000
     1.0000   1.0000   1.0000   1.0000   1.0000   1.0000   1.0000   1.0000
     1.0000   1.0000   1.0000   1.0000   0.0000   0.0000   0.0000   0.0000

          k = 0.3333 0.3333 0.3333 ( 11740 PWs)   bands (ev):

   -24.1263 -24.1112 -24.1112 -24.1112  -9.4786  -9.4786  -9.4680  -9.4361
    -7.5082  -7.3978  -7.3946  -7.3946  -7.1321  -7.1321  -7.0461  -7.0461
    -6.1485  -5.9771  -5.9771  -5.9567   1.9879   2.1187   2.1187   2.2442

     occupation numbers 
     1.0000   1.0000   1.0000   1.0000   1.0000   1.0000   1.0000   1.0000
     1.0000   1.0000   1.0000   1.0000   1.0000   1.0000   1.0000   1.0000
     1.0000   1.0000   1.0000   1.0000   0.0000   0.0000   0.0000   0.0000

     the Fermi energy is    -3.5345 ev

!    total energy              =    -231.35947426 Ry
     total all-electron energy =      -881.749860 Ry
     estimated scf accuracy    <       0.00000004 Ry
     smearing contrib. (-TS)   =      -0.00000000 Ry
     internal energy E=F+TS    =    -231.35947426 Ry

     The total energy is F=E-TS. E is the sum of the following terms:
     one-electron contribution =    -113.88834421 Ry
     hartree contribution      =      68.73913639 Ry
     xc contribution           =     -46.46358232 Ry
     ewald contribution        =     -71.94397056 Ry
     one-center paw contrib.   =     -67.80271356 Ry
      -> PAW hartree energy AE =      16.85920616 Ry
      -> PAW hartree energy PS =     -16.83527142 Ry
      -> PAW xc energy AE      =     -14.32400072 Ry
      -> PAW xc energy PS      =       5.82472676 Ry
      -> total E_H with PAW    =      68.76307113 Ry
      -> total E_XC with PAW   =     -54.96285627 Ry

     convergence has been achieved in   1 iterations


     -----------------------------------------------
     Non-local corr. energy    =       0.64766394 Ry
     -----------------------------------------------


     Forces acting on atoms (cartesian axes, Ry/au):

     atom    1 type  1   force =     0.00002993    0.00002993    0.00002993
     atom    2 type  1   force =    -0.00002993   -0.00002993    0.00002993
     atom    3 type  1   force =     0.00002993   -0.00002993   -0.00002993
     atom    4 type  1   force =    -0.00002993    0.00002993   -0.00002993
     atom    5 type  1   force =    -0.00002993   -0.00002993   -0.00002993
     atom    6 type  1   force =     0.00002993    0.00002993   -0.00002993
     atom    7 type  1   force =    -0.00002993    0.00002993    0.00002993
     atom    8 type  1   force =     0.00002993   -0.00002993    0.00002993
     The non-local contrib.  to forces
     atom    1 type  1   force =    -1.21245179   -1.21245179   -1.21245179
     atom    2 type  1   force =     1.21245179    1.21245179   -1.21245179
     atom    3 type  1   force =    -1.21245179    1.21245179    1.21245179
     atom    4 type  1   force =     1.21245179   -1.21245179    1.21245179
     atom    5 type  1   force =     1.21245179    1.21245179    1.21245179
     atom    6 type  1   force =    -1.21245179   -1.21245179    1.21245179
     atom    7 type  1   force =     1.21245179   -1.21245179   -1.21245179
     atom    8 type  1   force =    -1.21245179    1.21245179   -1.21245179
     The ionic contribution  to forces
     atom    1 type  1   force =     5.84668183    5.84668183    5.84668183
     atom    2 type  1   force =    -5.84668214   -5.84668235    5.84668213
     atom    3 type  1   force =     5.84668213   -5.84668214   -5.84668235
     atom    4 type  1   force =    -5.84668235    5.84668213   -5.84668214
     atom    5 type  1   force =    -5.84668183   -5.84668183   -5.84668183
     atom    6 type  1   force =     5.84668213    5.84668235   -5.84668213
     atom    7 type  1   force =    -5.84668213    5.84668213    5.84668235
     atom    8 type  1   force =     5.84668235   -5.84668213    5.84668213
     The local contribution  to forces
     atom    1 type  1   force =    -4.64831652   -4.64831660   -4.64831648
     atom    2 type  1   force =     4.64831669    4.64831716   -4.64831579
     atom    3 type  1   force =    -4.64831584    4.64831662    4.64831728
     atom    4 type  1   force =     4.64831721   -4.64831589    4.64831672
     atom    5 type  1   force =     4.64831684    4.64831677    4.64831689
     atom    6 type  1   force =    -4.64831600   -4.64831666    4.64831690
     atom    7 type  1   force =     4.64831685   -4.64831607   -4.64831653
     atom    8 type  1   force =    -4.64831661    4.64831680   -4.64831597
     The core correction contribution to forces
     atom    1 type  1   force =     0.01414896    0.01414896    0.01414896
     atom    2 type  1   force =    -0.01414896   -0.01414897    0.01414895
     atom    3 type  1   force =     0.01414895   -0.01414896   -0.01414897
     atom    4 type  1   force =    -0.01414897    0.01414895   -0.01414896
     atom    5 type  1   force =    -0.01414898   -0.01414898   -0.01414898
     atom    6 type  1   force =     0.01414895    0.01414895   -0.01414896
     atom    7 type  1   force =    -0.01414896    0.01414895    0.01414896
     atom    8 type  1   force =     0.01414896   -0.01414896    0.01414895
     The Hubbard contrib.    to forces
     atom    1 type  1   force =     0.00000000    0.00000000    0.00000000
     atom    2 type  1   force =     0.00000000    0.00000000    0.00000000
     atom    3 type  1   force =     0.00000000    0.00000000    0.00000000
     atom    4 type  1   force =     0.00000000    0.00000000    0.00000000
     atom    5 type  1   force =     0.00000000    0.00000000    0.00000000
     atom    6 type  1   force =     0.00000000    0.00000000    0.00000000
     atom    7 type  1   force =     0.00000000    0.00000000    0.00000000
     atom    8 type  1   force =     0.00000000    0.00000000    0.00000000
     The SCF correction term to forces
     atom    1 type  1   force =    -0.00003279   -0.00003279   -0.00003279
     atom    2 type  1   force =     0.00003279    0.00003279   -0.00003279
     atom    3 type  1   force =    -0.00003279    0.00003279    0.00003279
     atom    4 type  1   force =     0.00003279   -0.00003279    0.00003279
     atom    5 type  1   force =     0.00003279    0.00003279    0.00003279
     atom    6 type  1   force =    -0.00003279   -0.00003279    0.00003279
     atom    7 type  1   force =     0.00003279   -0.00003279   -0.00003279
     atom    8 type  1   force =    -0.00003279    0.00003279   -0.00003279

     Total force =     0.000147     Total SCF correction =     0.000161
     SCF correction compared to forces is large: reduce conv_thr to get better values


     Computing stress (Cartesian axis) and pressure



     -----------------------------------------------
     Non-local corr. energy    =       0.64766394 Ry
     -----------------------------------------------

          total   stress  (Ry/bohr**3)                   (kbar)     P=        0.42
   0.00000283   0.00000000   0.00000000            0.42        0.00        0.00
   0.00000000   0.00000283   0.00000000            0.00        0.42        0.00
   0.00000000   0.00000000   0.00000283            0.00        0.00        0.42

     kinetic stress (kbar)   7634.32      0.00      0.00
                                0.00   7634.32      0.00
                                0.00      0.00   7634.32

     local   stress (kbar)  -6128.59     -0.00     -0.00
                               -0.00  -6128.59     -0.00
                               -0.00     -0.00  -6128.59

     nonloc. stress (kbar)    382.03      0.00      0.00
                                0.00    382.03      0.00
                                0.00      0.00    382.03

     hartree stress (kbar)   2847.54     -0.00      0.00
                               -0.00   2847.54      0.00
                                0.00      0.00   2847.54

     exc-cor stress (kbar)  -1068.87     -0.00     -0.00
                               -0.00  -1068.87     -0.00
                               -0.00     -0.00  -1068.87

     corecor stress (kbar)   -704.94      0.00      0.00
                                0.00   -704.94      0.00
                                0.00      0.00   -704.94

     ewald   stress (kbar)  -2980.30     -0.00     -0.00
                               -0.00  -2980.30     -0.00
                               -0.00     -0.00  -2980.30

     hubbard stress (kbar)      0.00      0.00      0.00
                                0.00      0.00      0.00
                                0.00      0.00      0.00

     DFT-D   stress (kbar)      0.00      0.00      0.00
                                0.00      0.00      0.00
                                0.00      0.00      0.00

     XDM     stress (kbar)      0.00      0.00      0.00
                                0.00      0.00      0.00
                                0.00      0.00      0.00

     dft-nl  stress (kbar)     19.22     -0.00     -0.00
                               -0.00     19.22     -0.00
                               -0.00     -0.00     19.22

     TS-vdW  stress (kbar)      0.00      0.00      0.00
                                0.00      0.00      0.00
                                0.00      0.00      0.00

     MDB     stress (kbar)      0.00      0.00      0.00
                                0.00      0.00      0.00
                                0.00      0.00      0.00

     3D-RISM stress (kbar)      0.00      0.00      0.00
                                0.00      0.00      0.00
                                0.00      0.00      0.00



     -----------------------------------------------
     Non-local corr. energy    =       0.64766394 Ry
     -----------------------------------------------



     -----------------------------------------------
     Non-local corr. energy    =       0.64766394 Ry
     -----------------------------------------------



     -----------------------------------------------
     Non-local corr. energy    =       0.64766394 Ry
     -----------------------------------------------



     -----------------------------------------------
     Non-local corr. energy    =       0.64766394 Ry
     -----------------------------------------------



     -----------------------------------------------
     Non-local corr. energy    =       0.64766394 Ry
     -----------------------------------------------



     -----------------------------------------------
     Non-local corr. energy    =       0.64766394 Ry
     -----------------------------------------------



     -----------------------------------------------
     Non-local corr. energy    =       0.64766394 Ry
     -----------------------------------------------



     -----------------------------------------------
     Non-local corr. energy    =       0.64766394 Ry
     -----------------------------------------------



     -----------------------------------------------
     Non-local corr. energy    =       0.64766394 Ry
     -----------------------------------------------



     -----------------------------------------------
     Non-local corr. energy    =       0.64766394 Ry
     -----------------------------------------------



     -----------------------------------------------
     Non-local corr. energy    =       0.64766394 Ry
     -----------------------------------------------



     -----------------------------------------------
     Non-local corr. energy    =       0.64766394 Ry
     -----------------------------------------------



     -----------------------------------------------
     Non-local corr. energy    =       0.64766394 Ry
     -----------------------------------------------



     -----------------------------------------------
     Non-local corr. energy    =       0.64766394 Ry
     -----------------------------------------------



     -----------------------------------------------
     Non-local corr. energy    =       0.64766394 Ry
     -----------------------------------------------



     -----------------------------------------------
     Non-local corr. energy    =       0.64766394 Ry
     -----------------------------------------------



     -----------------------------------------------
     Non-local corr. energy    =       0.64766394 Ry
     -----------------------------------------------



     -----------------------------------------------
     Non-local corr. energy    =       0.64766394 Ry
     -----------------------------------------------



     -----------------------------------------------
     Non-local corr. energy    =       0.64766394 Ry
     -----------------------------------------------



     -----------------------------------------------
     Non-local corr. energy    =       0.64766394 Ry
     -----------------------------------------------



     -----------------------------------------------
     Non-local corr. energy    =       0.64766394 Ry
     -----------------------------------------------



     -----------------------------------------------
     Non-local corr. energy    =       0.64766394 Ry
     -----------------------------------------------



     -----------------------------------------------
     Non-local corr. energy    =       0.64766394 Ry
     -----------------------------------------------



     -----------------------------------------------
     Non-local corr. energy    =       0.64766394 Ry
     -----------------------------------------------



     -----------------------------------------------
     Non-local corr. energy    =       0.64766394 Ry
     -----------------------------------------------



     -----------------------------------------------
     Non-local corr. energy    =       0.64766394 Ry
     -----------------------------------------------



     -----------------------------------------------
     Non-local corr. energy    =       0.64766394 Ry
     -----------------------------------------------



     -----------------------------------------------
     Non-local corr. energy    =       0.64766394 Ry
     -----------------------------------------------



     -----------------------------------------------
     Non-local corr. energy    =       0.64766394 Ry
     -----------------------------------------------



     -----------------------------------------------
     Non-local corr. energy    =       0.64766394 Ry
     -----------------------------------------------



     -----------------------------------------------
     Non-local corr. energy    =       0.64766394 Ry
     -----------------------------------------------



     -----------------------------------------------
     Non-local corr. energy    =       0.64766394 Ry
     -----------------------------------------------



     -----------------------------------------------
     Non-local corr. energy    =       0.64766394 Ry
     -----------------------------------------------



     -----------------------------------------------
     Non-local corr. energy    =       0.64766394 Ry
     -----------------------------------------------

 BEEFens 2000 ensemble energies
             -0.661904090710681E+00
             -0.423179557386127E+01
             -0.161279987440365E+01
              0.156948370503176E+01
             -0.248494430403819E+01
             -0.358620188167058E+01
              0.224480908031374E+01
             -0.379228943373906E+00
              0.297165457713582E+01
             -0.166227067524360E+00
              0.125722862111402E+01
             -0.101045906781838E-01
              0.408824701421315E+00
             -0.234947301036053E+00
              0.199578795066242E+01
             -0.167517855639784E+01
             -0.353220164448025E+01
             -0.121354240566867E+01
              0.694833569126990E+00
              0.981878544052037E-01
              0.423732905419902E+01
              0.407742091086805E+01
             -0.170659973040400E+01
              0.112332294341425E+01
             -0.483964265585874E+01
              0.395135988789312E+01
              0.143090498885746E+01
              0.418324508467964E+01
              0.255168725915582E+01
             -0.161306397948467E+01
              0.970967537131639E+00
             -0.234533135599915E+01
              0.144011217593364E+00
              0.213695324522664E+01
              0.266528481327352E+01
             -0.101866033027603E+01
              0.582722476789621E+01
             -0.187816191802251E+01
             -0.165275309896308E+01
              0.229302052173215E+01
              0.837079416721082E+00
              0.173984034881491E+01
             -0.320303071196851E+01
             -0.246975367842619E+00
              0.350292773190646E+01
              0.427838075179942E+01
             -0.394097669378642E+01
              0.327867263522826E+00
              0.161426956904374E+01
              0.208620141501111E+00
              0.186473970834965E+01
              0.371383201775693E+01
             -0.231942797124569E+01
             -0.215176700862922E+01
             -0.313762927640114E+01
             -0.833382347352007E+00
             -0.291756495287964E+01
             -0.515680885300185E-03
             -0.875305166635734E+00
             -0.240201220385933E+01
              0.397389645055133E+01
              0.321841475953612E+01
             -0.641150454411550E+00
             -0.241105670827410E+01
             -0.133695398545488E+01
              0.166354655136605E-01
              0.291658142950943E+01
             -0.946995722801274E+00
             -0.287614681231435E+01
              0.258517420135444E+01
             -0.429329488047691E+01
              0.335137092368043E+01
             -0.425393484945893E+01
             -0.177644357212974E+01
             -0.656739000018121E+00
             -0.315207917504995E+00
             -0.272422502869846E+00
              0.333299357985369E+01
              0.167293294106564E+01
             -0.349723428531604E+01
             -0.363382133353028E+01
             -0.203745857922601E+01
             -0.206327752005950E+01
              0.553031080797666E+00
             -0.942729540243665E+00
             -0.124838045656473E+01
              0.276190955299668E+01
             -0.102955437010566E+01
              0.612866230302687E+01
             -0.280334775306119E+01
              0.509890073755404E+00
              0.537485254841400E+00
              0.106792995046527E+01
              0.282150008317571E+01
              0.171263848296797E+01
              0.167309121372504E+01
             -0.262931422679103E+01
              0.166891642762888E+01
              0.175304298312430E+00
              0.206107346531066E+00
              0.238879202393625E+01
             -0.369621139729519E+01
              0.572033906516694E+01
             -0.174350149651846E+01
             -0.676073918997912E+01
             -0.158008527908155E+00
              0.257529202902916E+00
             -0.173594919368702E+01
             -0.331571505227875E+01
             -0.181703207003507E+01
             -0.151648522520427E+01
              0.310349450234675E-01
             -0.251963074762642E+01
              0.496678540584512E+00
              0.947532092374512E-01
              0.568985860030588E+00
              0.607193186011029E+01
              0.583185449219384E+00
             -0.296035953979273E+01
             -0.252021573702466E+01
             -0.482900692013294E+00
             -0.207537039273500E+01
              0.323975590138493E+01
             -0.266976367979746E+01
             -0.737231205199227E+00
             -0.679888825894082E+00
              0.277472120441274E+00
              0.166993909454636E+01
             -0.269844877584963E+01
             -0.511304614808216E+01
             -0.143718872046473E+01
             -0.924879561680108E+00
             -0.138883511992535E+00
              0.226099196398212E+01
             -0.462176093527613E+01
             -0.446551094412066E+01
             -0.971101293935082E+00
             -0.120222478669145E+01
              0.363037257736755E+00
              0.932485768627018E+00
              0.300129861411573E+01
              0.121787745243461E+01
             -0.110086128722703E+01
             -0.169889664994911E+01
             -0.416601738692115E+01
             -0.316157843714013E+00
             -0.199183804472369E+01
             -0.171681143435155E+01
              0.367798186745807E+01
             -0.257289671778025E+01
             -0.123251123777836E+01
              0.386714040760507E+01
             -0.888870612290908E-01
             -0.114626757664674E+01
              0.492772808084407E+00
              0.150767114803095E+01
             -0.183282613498765E+01
              0.115988621298118E+01
              0.485381322762970E+00
              0.253779209306738E+01
             -0.210495995541720E+01
             -0.128263222852844E+01
              0.248934208884326E+01
              0.459857010564377E-01
             -0.119272233927724E+01
             -0.487497158216193E+00
             -0.129875301335342E+01
             -0.165150512813455E+01
             -0.410208682573847E+01
             -0.422788313554276E+01
             -0.181411548996412E+01
             -0.207233322223972E+01
             -0.210610238694266E+01
             -0.312495103191039E+01
             -0.127468329817878E+01
              0.233226198179237E+01
              0.639798604104641E+00
              0.335831043560037E+01
             -0.123184804801814E+01
              0.102111720476953E+01
              0.735758491366452E+00
             -0.361735930609764E+01
             -0.441095452182657E+00
              0.249325307562034E+01
             -0.679360641809406E+01
              0.100629241604193E+01
              0.102036616058670E+01
              0.356728749427570E+01
             -0.134289696207975E+01
              0.357932322033007E+01
              0.563629925421037E+01
              0.488380785282645E+01
             -0.249284597665682E+01
             -0.183126728480473E+01
             -0.138012120736070E+01
              0.129927527009487E+01
              0.589472534810714E+00
             -0.928650043054240E+00
              0.299730960326536E+01
              0.543469356152893E+01
             -0.172019927477941E+01
             -0.130807622262067E+01
              0.905600257711983E+00
             -0.300460647555962E+01
             -0.265771179001010E+01
              0.204625997359739E+00
              0.774698909821716E+00
              0.467310259077607E-01
              0.475545690149923E+01
              0.177866598392995E+01
             -0.812299403246622E+00
             -0.971740538033057E+00
             -0.554868219351377E+01
             -0.952146782684062E+00
             -0.142889779695475E+01
             -0.522790358432456E+00
              0.246134858923211E+01
              0.277889661595204E+00
              0.380154868046402E+01
             -0.206051657095142E+01
             -0.287862898534820E+01
              0.216600832752225E+01
              0.362850292200268E+01
              0.476769958288297E+01
             -0.241692096751719E+01
             -0.145845878369931E+01
              0.260584086230290E+01
              0.221543666918485E+01
             -0.367023727594551E+01
             -0.882819313081885E+00
              0.387930317460515E+01
              0.258332677147542E+01
              0.859871588470867E+00
              0.188096943310225E+01
             -0.816918011651335E+00
             -0.405788335977824E+00
              0.141613108602736E+01
             -0.130756872562793E+01
             -0.185753719489236E+01
              0.196384498460002E+00
             -0.124683905153561E+01
              0.138568668176267E+01
             -0.239790861318042E+01
              0.295206341473116E+01
             -0.245983361913815E+00
              0.250353681683097E+01
             -0.159716608424257E+01
             -0.398641644376374E+01
             -0.208965513341006E+00
              0.895026465035019E+00
              0.161002057165881E+01
              0.877838440818039E+00
              0.265162617786093E+00
              0.943655736566367E+00
              0.570661496700045E+01
             -0.342119606434716E+01
              0.664879376009179E+00
              0.166252194283033E+00
             -0.817770568800995E-01
              0.193649494379062E+01
              0.772105563904155E+00
             -0.158171757475316E+01
              0.128754660503347E+00
             -0.210072242563937E+01
             -0.741871883879753E+00
             -0.468749455730389E+00
             -0.552892519157678E+01
              0.128895525259996E+01
              0.295953851134412E+01
              0.125106782775398E+01
              0.234038634216059E+01
             -0.117200735034023E+01
              0.128457144831816E+01
              0.328437757356926E+01
             -0.252567975187508E+01
              0.200437083009439E+01
              0.352373199325530E+01
             -0.580586693448808E-01
              0.248910468873442E+01
             -0.330938928415044E+00
             -0.120948994398393E+01
             -0.137480523066692E+00
             -0.277761059831786E+01
              0.160320850426562E+01
              0.121176241452947E+01
              0.286531423304473E+01
             -0.117777769485852E+01
              0.287217817032616E+01
              0.541737839705803E+01
              0.275043444824599E+01
             -0.251011447536973E+01
             -0.782871679792096E+00
             -0.425222937625461E+01
              0.305630444964049E+00
              0.372187638697561E+00
             -0.238361886855941E+00
             -0.779036122397294E+00
              0.765568520475176E+00
              0.375556679140749E+01
              0.466523923080317E+00
              0.176052227597747E+01
              0.138243034718264E+01
             -0.438246421191163E+00
             -0.468101580162069E+01
              0.127936894201397E+01
              0.193783408420633E+00
              0.275807688276902E+01
             -0.819484309730740E+00
             -0.148955439004610E+01
             -0.199185812647143E+01
              0.375751517465351E+00
              0.220570610223902E+00
              0.144620625380141E+01
              0.112026741343095E+01
             -0.293783851220082E+01
              0.149898020516038E+01
              0.194899741723349E+01
              0.151340379089866E+01
              0.388735332375001E+01
              0.224875054459778E+01
              0.416176306343665E+01
             -0.809787662653399E+00
             -0.124760756688863E+01
              0.235977800285811E+01
              0.218571876560189E+01
              0.147144932144570E+00
              0.191898765080551E+00
              0.191558941296452E+01
              0.124932029070454E+01
             -0.820185592705990E+00
             -0.335012555305951E+00
             -0.796511796172215E+00
             -0.684850101787098E+00
             -0.372333722900103E+01
             -0.118390241474205E+01
              0.146243448111106E+01
              0.797660743106524E+00
              0.126179130481368E+01
             -0.332126040377586E+01
             -0.442914268901296E+01
              0.503861673772347E+00
              0.315811689735297E+01
              0.235400198388828E+01
             -0.241829912712782E+01
             -0.396232865648838E+01
             -0.120703354310179E+01
              0.185118648283962E+01
              0.110506986197441E+01
             -0.540048021331064E+00
              0.326620285186872E+01
              0.114986175098027E+01
             -0.301966314684488E+01
              0.213296552295907E+01
              0.164762569022933E+01
              0.763823491425438E+00
             -0.114239144682688E+01
             -0.198624731044822E+01
             -0.239610609261917E+01
              0.760826719887617E+00
             -0.154405836395619E+00
             -0.153902973892052E+01
              0.300721809681739E+00
             -0.950690848419711E+00
              0.992274234843778E+00
             -0.450482629719686E+01
              0.602217117239803E+00
             -0.284439803959529E+00
             -0.581539318418659E+00
              0.468261533318469E+00
              0.166071174107473E+01
              0.523283861273123E+01
              0.483684043155304E+00
             -0.166280516606073E+01
             -0.433721706931190E+01
              0.246063894134271E+01
             -0.703900489450120E+00
              0.129392216640154E+01
              0.114587685345325E+01
             -0.171334156951452E+00
              0.334759930190712E+01
              0.285394786038357E+01
             -0.391768300823390E+00
              0.317440256909043E+01
             -0.361146263010419E+01
              0.118096094223113E+01
              0.219249713817018E+01
             -0.251515027955887E+01
             -0.356606906464225E+01
             -0.394879384360370E+01
             -0.281314362216345E+01
              0.341299192320696E+01
             -0.287648668771243E+01
             -0.271162110768396E+00
              0.176954685909722E+01
             -0.198777321689268E+01
              0.277116107464371E+00
              0.111634819844028E+01
              0.166366466561498E+01
             -0.303493452007173E+01
              0.275736118076822E+01
             -0.105327634380496E+01
             -0.474614228294684E+01
              0.179534288299783E+01
             -0.854604001128200E+00
             -0.283331173168988E+01
             -0.132114246689815E+01
              0.239777000807081E+01
              0.105746566257937E+01
              0.903634054361184E+00
              0.801311890348066E+00
              0.571045910358208E+00
              0.100889230476679E+01
             -0.269312627007154E+01
              0.709786078073687E+00
             -0.217842127587172E+00
             -0.254937465519900E+01
              0.369851810208267E+00
             -0.166887531851408E+00
              0.306666254301918E+01
              0.928237121312993E+00
              0.399899920555813E+01
              0.392774671512070E+00
              0.115486123848973E+01
             -0.110017560367735E+01
             -0.920580579202040E+00
              0.259196510187221E+01
              0.107596846405080E+01
             -0.164529388029623E+01
              0.456325181079773E+01
              0.354599369984428E+01
              0.326418018276712E+01
              0.230974426248110E+01
             -0.995800084801992E-01
             -0.600805705832047E+01
             -0.779539508790883E+00
             -0.784309820802534E+00
             -0.189429319255763E+01
              0.208783370579984E+01
             -0.559203993982132E+01
              0.204420326758440E+01
              0.206054888900685E+01
             -0.182528424388051E+01
              0.701188974663651E-01
             -0.107538221965174E+01
             -0.167922197830944E+01
              0.112700685312795E+01
              0.168814886239879E+01
             -0.569244652279707E+00
             -0.141462957993480E+01
              0.215249354547019E+00
             -0.277860457333434E+00
             -0.292076208315040E+01
             -0.165718058524009E+01
              0.513400965873277E+00
             -0.265284016286034E+01
             -0.160508664198659E+01
             -0.379726673237856E+00
             -0.378521557962761E+01
             -0.170232070975027E+01
             -0.964777423938727E-01
             -0.526850440314984E+01
              0.615803915658688E-01
             -0.481983927878979E+01
              0.293216065241215E+01
             -0.230243905629788E+01
              0.233779712898552E+01
             -0.845146133933771E+00
             -0.397049991307716E+01
             -0.227534165031873E+00
             -0.191250749119899E+01
             -0.144995819764730E+01
              0.111857312132032E+01
             -0.489668131169475E+01
              0.503278321167479E+00
              0.236616528687870E+01
             -0.413056414277252E+01
             -0.115498632361467E+01
             -0.404038495313593E+01
             -0.471133542934966E+01
             -0.307667014894698E+01
             -0.956338040975883E+00
             -0.288939246914368E+01
              0.169226246506622E+01
              0.245947965048719E+01
             -0.171099871471444E+01
              0.164283589299753E+01
             -0.144351677530776E+01
              0.171127333759562E+01
             -0.234625910618624E+01
             -0.216375001791470E+01
              0.234767300677651E+01
              0.516344808287450E+00
              0.684040979426089E+00
              0.280781758743894E+01
              0.514122195487998E+01
             -0.980067261149479E+00
              0.192101730213305E+01
             -0.445677811952271E+01
             -0.433278559870251E+01
             -0.457575535956192E-01
              0.284107419699207E+00
              0.134759145189611E+01
             -0.327777333461008E+01
              0.533521038297163E+00
              0.392610952867494E+01
             -0.361507050874883E+01
             -0.439590743326328E+00
             -0.465810122512651E+01
             -0.230168218202123E+00
              0.322110423187542E+00
             -0.343211517689247E+01
              0.619842623859643E+00
             -0.479329581471384E+01
             -0.468203087098342E+00
             -0.517239274647896E+00
              0.307879955553558E+00
             -0.345062116065699E+01
              0.224688788926039E+01
             -0.840621266273914E+00
             -0.168142077562264E+00
              0.113038952222841E+00
              0.190079415918159E+01
              0.271977791976494E+01
             -0.327836544929532E+00
              0.264251944844090E+01
              0.393603854923040E+01
              0.104592267744700E+01
              0.156989999154170E+00
              0.136205473376441E+01
              0.373633433097554E+00
             -0.312285054218091E+00
              0.163967539738046E+01
             -0.795225736523314E+00
             -0.272426067808262E+01
              0.126601163543127E+01
             -0.230996111837280E+01
             -0.184563105962879E+01
             -0.110886232925629E+00
             -0.356238138447496E+01
             -0.140553337447434E+01
             -0.435233822601949E+01
             -0.848402401351284E+00
             -0.790087617866477E+00
              0.180139904069771E+01
             -0.493338955105222E+01
             -0.154136022484405E+00
              0.833964604352753E-01
             -0.338461512633092E+01
              0.157514989353059E+01
              0.336222197814841E+01
              0.136602288179162E+00
             -0.305155456067729E+01
             -0.328103923520796E+01
              0.456224193969117E+01
              0.331799031653674E+01
              0.149994369599600E+01
             -0.137327187900233E+01
             -0.243120188112938E+01
              0.208549537124274E+01
              0.797005082272038E+00
              0.355843598670469E+01
              0.386307879075849E+01
              0.311830476599549E+01
              0.158859336581035E+01
             -0.625772152666673E+01
             -0.165077421166749E+01
              0.867325697691949E+00
             -0.196540665505604E+01
              0.362656552464570E+01
              0.180576052222095E+01
             -0.941817781435007E+00
             -0.142390369033603E+00
              0.458935616907973E+01
              0.294875807905370E+00
             -0.617178019193648E+00
             -0.692804880351805E+01
              0.208617236872303E+01
             -0.136904409490008E+01
              0.319879087173703E+01
             -0.283466151492597E+01
             -0.391880383572563E+00
              0.165942681960556E+01
             -0.316371836176396E+01
             -0.411739077773255E+01
              0.708914244390790E+00
              0.130477782850392E+01
              0.106060068017271E+00
             -0.412330694833454E+00
             -0.787992923848360E+00
             -0.262847197596244E+01
             -0.447039211280676E+01
             -0.261127299799770E+00
             -0.134956303381655E+01
             -0.264137816790469E+00
             -0.122540409123580E+01
              0.697819254208538E+01
              0.966442418040071E+00
             -0.233512126552706E+01
             -0.274068724752712E+01
              0.543470001742078E+00
              0.170430532938000E+01
              0.336952743630443E+01
             -0.218277364171904E+01
             -0.440021087798851E+01
             -0.116562815759355E+01
             -0.203761807475269E+01
              0.276947471596229E+01
              0.218333972857877E+01
             -0.300121017144498E+00
              0.129290758444433E+01
              0.176422281459541E+01
              0.223751477988495E+01
             -0.412472143406832E+01
             -0.104960593053956E+01
              0.685547907064105E+00
             -0.174966244405170E+00
             -0.191214911925913E+01
              0.457778257444529E+00
             -0.617307175252012E+00
             -0.225237182687968E+01
             -0.185173055152748E+01
              0.578758476899803E+00
             -0.562316378165483E+01
             -0.340132760793407E+01
             -0.212577237404215E+01
              0.514748168285818E+01
             -0.471767214759954E+00
             -0.494813113115551E+00
              0.565082909970738E+01
             -0.237240669197896E+01
              0.367040562266670E+01
             -0.292262589527856E+01
              0.206104667719450E+00
              0.825390323986070E+00
             -0.344072184810255E+00
             -0.283674244642988E+01
              0.917792325460077E+00
              0.404235970842127E+00
             -0.215060935560483E+01
              0.167143956552096E+01
             -0.162053446132976E+01
             -0.391018382030294E+00
              0.399836981585924E+00
             -0.119276953462396E+00
             -0.965620638390462E+00
             -0.471218153753356E+00
              0.256497417977655E+01
              0.518292251827635E+00
              0.115141161282970E+01
             -0.266576959635096E+01
             -0.132694592324583E+00
             -0.675732056947303E+00
             -0.102779596185599E+01
              0.603934773577032E+00
             -0.271366607087511E+01
             -0.124786129559368E+01
             -0.121785830074698E+01
              0.270744622347571E+00
              0.206492975716220E+01
              0.530255209533185E+01
             -0.185016483978572E+00
              0.261377088544423E+01
             -0.215483041602440E+00
             -0.250164697528415E+01
              0.519738631140861E+00
             -0.266349711461864E+01
             -0.171007204290626E+01
              0.118385755987199E+01
              0.479752678021746E+01
              0.144757142510304E+00
             -0.250641102777649E+01
              0.185112113105548E+01
              0.717377449271019E+00
              0.741126402630568E+00
             -0.531776051301105E+00
             -0.268539807690411E+01
              0.480439365131431E+00
              0.415659791999413E+01
              0.185914444815576E+01
              0.786589942799016E+00
              0.570714581516227E+01
              0.223854862445380E+01
             -0.147322411977540E+01
              0.427788028271800E+01
              0.110430845868950E+01
              0.196237954733228E+01
              0.199849167142405E+01
             -0.147627695908632E+00
              0.182595372910529E+01
              0.273113164115924E+01
             -0.535615903786029E+01
             -0.324338786378044E+01
             -0.256058961355423E+01
             -0.328559238072631E+01
              0.187304926893670E+01
             -0.287199860402041E+01
              0.639544862697065E+00
             -0.235557163686136E+01
             -0.478163195842887E+01
             -0.113937292179937E+01
             -0.215861139931920E+01
             -0.670407338922982E+01
             -0.361786458369127E+01
             -0.159136003468906E+01
              0.123577393192756E+01
             -0.157557950688949E+01
             -0.214342089447456E+01
              0.193169098118221E+01
              0.289061555800634E+01
              0.432219932867205E+01
             -0.140936665961604E-01
              0.668130847241677E+00
             -0.108992803204451E+01
             -0.205595618119214E+01
              0.280255531339328E+00
             -0.208308385734833E+01
             -0.248184121633739E+01
              0.277842973375664E+01
             -0.263144802399022E+01
              0.223595683349778E+00
             -0.141217098619983E+00
              0.316652046554313E+01
             -0.101994594448136E+01
              0.505947867485510E+00
             -0.145266360629583E+00
             -0.186881425378678E+00
              0.168821295649606E+01
             -0.279138239359382E+01
             -0.859053542259707E+00
              0.390111132719901E+01
              0.391934227336270E+01
              0.495230067121987E+01
             -0.115947143752425E+01
             -0.308496625153427E+01
             -0.834451586891181E+00
             -0.192519446234666E+01
             -0.152238791396461E+01
              0.726869074212162E+00
             -0.518356508930511E+00
              0.430776265215975E+01
             -0.150988688733138E+01
             -0.232746532981569E+00
              0.610321633214328E+00
             -0.991373142310005E+00
             -0.526809846700303E+00
              0.197552997269817E+01
             -0.287498191534873E+01
             -0.100800390632453E+01
              0.978183989256063E+00
              0.258402882005912E+01
             -0.166457262732156E+01
              0.149641877161469E+01
             -0.356706849112311E+01
             -0.447851780485960E+00
             -0.205766867514800E+00
              0.121613608111642E+01
              0.141086960454517E+01
              0.417403326799858E+01
             -0.291205817528822E+01
              0.314343325800821E+01
             -0.277782093531463E+01
              0.210959068665359E+01
             -0.204620849447571E+01
              0.402437065839159E+00
             -0.236812898563500E+01
              0.141239416850286E+01
             -0.554035914631969E+00
             -0.711343914424280E+01
              0.295705078503327E+01
              0.125261457769348E-01
              0.227849246253435E+01
             -0.168624164009904E+01
              0.428652544319118E+01
              0.179596172289123E+01
              0.299447252067250E+01
              0.478465069696208E-01
              0.163722259116360E+00
             -0.323184478732674E+01
             -0.267035352284881E+01
             -0.221560417279473E+01
              0.143958638243152E+01
             -0.418721164816724E+01
              0.335033258509604E+00
             -0.785412975303629E+00
              0.181523267207721E+01
              0.118921234533119E+01
             -0.845654679188149E+00
              0.423632186694780E+01
             -0.387550346163099E+00
             -0.211230021978379E+01
             -0.137528451078585E+01
              0.373764487763614E+01
              0.353043611024832E+01
              0.211793880770514E+00
             -0.380648325194121E+01
              0.554052515380949E+00
              0.133869067544035E+01
              0.209073333914976E+01
              0.165225322929547E+01
              0.132733108246022E+01
             -0.680425281445430E+00
             -0.546378994529112E+01
              0.212452708328952E+01
              0.143924395495359E+01
              0.247666007080488E+01
              0.164607184732681E+00
              0.844419457646811E+00
              0.970217676157488E+00
             -0.128837507231111E+01
              0.232260665649270E+01
             -0.165580501228662E+01
              0.704781015988132E+00
              0.512205035627261E+00
              0.150329083552674E+01
             -0.531120799918431E+01
             -0.514433317087324E+00
             -0.140335803065663E+01
             -0.220027339048865E+01
              0.278520296954330E+00
             -0.231934690757273E+01
              0.346725543088809E+01
             -0.535000508407592E+01
              0.211736745387562E+01
              0.566826211680059E+00
             -0.435145679324835E+00
             -0.250653526934833E+01
              0.217883768233075E+01
             -0.231883526973331E+01
             -0.159419865849660E+01
             -0.211915982019567E+01
             -0.938952433366818E+00
             -0.106843048561906E+01
              0.478637330527337E+00
              0.187241833441378E+01
             -0.834658517196694E+00
             -0.189038812698765E-01
              0.438020509306429E+01
             -0.835767851916795E+00
             -0.237539049093767E+01
             -0.389549018040701E+01
              0.267217811806563E+01
              0.112323393681094E+01
              0.133157142978844E+01
              0.125301620811604E+01
              0.304767718552118E+01
             -0.127735613820593E+01
              0.149622057818236E+01
              0.252832605990358E+00
             -0.414855986457047E+01
             -0.114739384543991E+01
              0.789201484506151E+00
              0.960715978828780E+00
              0.281459366091909E+01
             -0.522912663610413E+00
              0.297138348187869E+01
              0.838687333496994E+00
             -0.142535704041649E+00
              0.166013943740960E+00
              0.181056459274741E+01
              0.522436581043673E+01
              0.110725121442146E+01
              0.383640309543913E+01
             -0.192457265218775E+01
             -0.383770747745584E+01
             -0.210744174644806E+01
             -0.110788156685006E+01
              0.251284634934791E+01
              0.313521977310646E+00
             -0.125259023879270E+00
             -0.177390232659102E+01
             -0.224717687677927E+00
              0.484236381035524E+00
              0.822890518157205E+00
             -0.130581387877390E+01
              0.268610440274292E+01
              0.118221238753792E+01
              0.392415095690035E+01
             -0.170606304117716E+01
              0.358414482824115E+01
             -0.159414201184508E+01
              0.374613082388637E+01
              0.106013582606187E+01
             -0.273344975108514E+01
             -0.268159093064534E+01
              0.641724230827929E-01
              0.226569159144505E+01
              0.139507830543700E+01
             -0.192049019162114E+01
              0.912232000626702E+00
             -0.120528776016834E+01
              0.279211431789803E+01
             -0.370543840272518E+00
              0.966419056623268E+00
              0.430660505725420E+01
             -0.574474745791591E+00
              0.781912393249208E+00
             -0.177895348527753E+01
             -0.638119321734315E+00
             -0.264155611984806E+01
             -0.844600801723260E+00
             -0.627239461956730E+01
             -0.343587286830306E+01
             -0.212975314874158E+01
             -0.336513829412402E+01
              0.122597060001304E+01
             -0.133477555568271E+01
              0.138896302188174E+01
             -0.133352319365332E+01
              0.171633408567282E+01
              0.301184175318531E+01
              0.303599782293548E+01
             -0.157457177740535E+01
              0.121240335628343E+01
              0.288952898059914E+01
             -0.739382606532345E+00
             -0.168267265039017E+01
             -0.898453653536819E-01
             -0.250912654417025E+01
             -0.154186711953773E+01
              0.202512903812423E+01
              0.605904226640325E+00
              0.198342246524630E+01
             -0.308980718698029E+00
             -0.302774593371228E+01
              0.160980080367639E+01
             -0.655642620238076E+00
             -0.229642225540793E+00
              0.299977767630075E+01
             -0.144234361633639E+01
              0.422453332910848E+00
              0.315250587626062E+01
              0.119776027811375E+01
              0.190991241960075E+01
             -0.114512094323848E+01
             -0.196148388076900E+01
              0.122508217027097E+01
             -0.212312441280190E+01
             -0.140304818482197E+01
              0.483482194975326E+01
             -0.162053979954656E+01
              0.201613449906592E+01
              0.242550445661259E+01
              0.170310823139734E+01
              0.405808915516236E+00
             -0.417912236218845E+01
              0.286776761440542E+01
             -0.488459625166318E+01
              0.342521244169030E+01
             -0.733429797432986E+00
              0.245948327269327E+01
             -0.507538451967228E+00
             -0.286300780679129E+01
              0.680519323994583E+00
              0.249144506353046E+01
             -0.292477801729366E+01
             -0.186164301619555E+01
             -0.389212469803437E+01
              0.468253215130996E+01
              0.810600472360118E+00
             -0.219553793496181E+01
             -0.189015261074706E+00
             -0.147440108375454E+01
              0.465482300611834E+00
              0.465753869345855E+01
              0.243270923074575E+01
             -0.131513928752612E+01
              0.357523274051186E+01
             -0.257061458656046E+01
              0.153262998625188E+00
              0.528079641339949E+01
             -0.620262505150651E+00
              0.273249635819616E+01
              0.332976158402945E+01
              0.734440708944254E+00
             -0.300240333884300E+01
              0.229006145017236E-01
              0.369788455416446E+01
              0.108298468836225E+00
              0.273996882578393E+01
              0.266947512079743E+01
              0.357766821371294E+00
             -0.104144356645183E+01
             -0.956253965251340E+00
              0.583228418349113E+00
              0.624448981569579E-01
              0.269874208089817E+00
             -0.500171907787847E+00
              0.123961719507323E+01
             -0.862410371844611E+00
             -0.401607059742989E+01
             -0.229670459162870E+01
             -0.271252738061624E+01
              0.136598542703149E+01
              0.174410380161629E+01
              0.795765953013916E+00
             -0.216491678113146E+01
              0.243064552595419E+01
             -0.166302403366603E+01
             -0.121169080665205E+01
             -0.213861017770597E+01
              0.268091450211648E+01
             -0.321774767594214E+01
             -0.275745717331121E+00
              0.425297983672845E+00
              0.978858954934140E+00
             -0.182360904015281E+00
             -0.815087873915687E+00
              0.568002882690840E+00
              0.438907499848993E+00
              0.312758310142624E+01
              0.132145324929173E+01
              0.852117686417831E+00
              0.427154924252371E+00
             -0.165314623690341E+01
             -0.210779193786350E+01
             -0.601128365361671E+00
             -0.147458786663097E+01
             -0.377309134074441E+01
             -0.660260880303168E+00
              0.146519508382649E+01
             -0.201305711567799E+01
              0.115072204286787E+01
             -0.940806662438314E+00
             -0.155912592722645E+00
             -0.521817701654108E+00
             -0.231870820322914E+01
             -0.485267447665024E+00
              0.413452895079615E+00
              0.118964366637083E+00
              0.231072956605294E+01
             -0.333993919207029E+01
              0.568311581671375E+00
[...]
              0.176243350318113E+01
              0.221437456082695E+00
              0.551930263697399E+01
              0.657973451637016E+00
             -0.798566912378403E+00
              0.968736285556005E+00
             -0.975015722153197E+00
              0.415183491672358E+01
              0.339269356931828E+00
              0.642253152683958E+00
              0.301772729547456E+01
              0.109695496812174E+01
             -0.205040599746426E+01
             -0.349101077757498E+01
              0.234888430210091E+00
             -0.422993990781968E+01
              0.123474909303183E+01
             -0.495959787204709E+00
             -0.100722838472866E+01
              0.113104403839326E+01
              0.381536387709474E+00
              0.145018621819485E+01
             -0.178273092885695E+00
              0.204336415055296E+01
             -0.389915501484620E+01
             -0.223982726829140E+00
             -0.352670924625346E+01
              0.115062217325482E+01
              0.181200872693717E+01
             -0.191435972905287E+00
             -0.107391191468357E+01
              0.290368332728566E+01
             -0.139192533627339E+01
              0.871954085337979E+00
             -0.708112163020157E+00
              0.236264246061580E+01
              0.190446268506972E+01
             -0.811071876848118E+00
              0.218069845893285E+01
              0.790237191440404E+00
             -0.223341965070788E+01
             -0.109618823900431E+01
              0.311033000902779E+01
              0.151794264428478E+01
              0.122132363600327E+00
             -0.723774205395600E-01
              0.518408891380253E+01
              0.285831199274392E+01
              0.941804332952220E+00
             -0.344189414899086E+01
              0.505310859216401E+01
             -0.244418006939132E+01
             -0.315164847304218E+01
             -0.441676363092553E+01
              0.213251053896534E+01
             -0.396657133711865E+01
              0.172401973825131E+01
              0.319892252805906E+01
              0.201213863166480E+01
              0.872782313342901E+00
              0.120373740551991E+01
             -0.351352452361025E+01
             -0.126053006360650E+01
             -0.100482244478908E+01
              0.178581474233897E+01
              0.312181562491037E+01
              0.352456628502055E+01
              0.281468464589529E+01
             -0.835672137004373E+00
              0.526563946414889E+00
             -0.229878225548232E+00
             -0.118813154910727E+01
              0.110502200885814E+01
              0.139258349381817E+01
             -0.175340319094014E+01
             -0.240885205884269E+01
             -0.989303301542927E+00
              0.283181219484310E+01
              0.145086898680661E+01
             -0.202523983135423E+01
             -0.223051191256093E+01
             -0.328996967438394E+01
             -0.205439655324775E+00
              0.679402247940789E+00
             -0.120332037921231E+01
              0.483044083623837E+01
              0.516758126518777E+00
             -0.583781366554629E+01
              0.121928401221176E+01
              0.272464049824273E+01
             -0.144391157597722E+01
              0.202182058494343E+00
             -0.168287653422561E+01
              0.240867652395523E+01
              0.103865531663407E+01
             -0.295637685983490E+01
              0.362046346928603E+01
             -0.402258473604096E+00
             -0.179857693779341E+01
             -0.200988214375262E+01
              0.703664997902855E+01
              0.330610605338368E+01
             -0.586104560299301E+00
              0.190493637555221E+01
             -0.273421963501795E+01
             -0.438867048325527E+00
             -0.331508291590908E+01
              0.136708094904934E+01
              0.173348002524612E+01
              0.248278483808605E+01
             -0.966591618692167E+00
              0.626396397949947E+00
              0.286679884813730E+01
              0.137571465399683E+01
              0.187948055862424E+01
              0.879419843280122E+00
             -0.635645157314920E+00
             -0.408182101135246E-01
             -0.422190077134364E+00
              0.783161973428481E+00
              0.126375168148215E+00
             -0.223765259364078E+01
              0.425788492050958E+01
              0.159050752056550E+01
             -0.283180643168053E+01
             -0.179918722469461E+01
             -0.317489144560302E+01
             -0.177000820937300E+01
             -0.887206420731150E+00
             -0.260604181271390E+01
             -0.246472376230129E+01
              0.350755946107960E+01
              0.254479948387981E+01
             -0.545125810808848E+00
              0.332100136688814E+01
              0.124101607405511E+01
             -0.568413983491577E+01
              0.302864605408686E+01
              0.769951609762643E+00
              0.259022869267619E+01
              0.768245682105168E+00
              0.537738705244138E+00
              0.519645383436307E+00
              0.130326261356687E+01
             -0.212514043891189E+01
             -0.122396669598375E+01
             -0.178682761397529E+01
             -0.129817125641212E+01
              0.956914698663592E+00
             -0.192099098781296E+01
              0.659674090777559E+00
              0.103262845412968E+01
             -0.142053327878428E+01
             -0.631313819399204E+00
             -0.834984925816276E-01
              0.374206073685325E+01
              0.409855171903837E+00
              0.397885730870927E+01
              0.772415586596729E+00
             -0.447361401631087E+01
             -0.180679407472202E+01
              0.140340807540254E+01
              0.291894165474861E+01
              0.989994868824050E+00
              0.112702375875439E+01
              0.323915717403205E+01
             -0.209248396509502E+01
             -0.300394354371914E+01
              0.375360798005376E+01
             -0.441525266616175E+00
             -0.437922067918556E+01
              0.128127960640109E+01
              0.292105019784671E+01
             -0.154294031908069E+00
             -0.232393615820933E+01
              0.129680343179745E+00
              0.353065827938408E+00
             -0.146253882479667E+01
              0.628250819988736E+00
             -0.692164190135094E+00
              0.595939157639670E+01
              0.152063489235762E+01
             -0.321262352801858E+01
              0.114394558506838E+01
              0.394250002053963E+01
             -0.230155145736617E+01
             -0.880210108820272E+00
             -0.195363793754284E+01
              0.131791111418692E+01
              0.107689161155952E+01
              0.858515455487055E+00
              0.938793198883836E-01
              0.404366555488319E+01
             -0.242841308256064E+01
             -0.190274696369618E+01
             -0.198250823546476E+01
              0.205458151234546E+01
              0.402435151079131E+01
             -0.210767972343053E+00
              0.177929379602211E+01
             -0.223042537857296E+01
             -0.258350826077800E+00
             -0.642863057550196E+00
             -0.689449508144033E+00
             -0.113699761035647E+01
             -0.109783672839435E+01
             -0.711170837652497E+00
              0.122224643193391E+01
              0.126975116669218E+01
             -0.268575200100667E+01
              0.220477497566463E+01
             -0.315114122034707E+01
              0.260347971041917E+01
             -0.313429047916565E+01
              0.492181480660189E+01
              0.266984977575123E+01
              0.235431297372427E+01
              0.419837120312700E+00
              0.394891450552212E+00
             -0.593370655129823E+01
              0.141628075845234E+01
              0.294350145985401E+00
              0.517645612060441E+00
             -0.879538019143975E+00
              0.413696428333746E+01
             -0.182247238400797E+01
             -0.158273791823994E+01
             -0.500682988063988E+01
             -0.171018187398201E+01
             -0.188511791927391E+01
             -0.194305677831251E+01
             -0.651720105446749E+00
             -0.712350330277467E+00
             -0.130815617528148E+01
             -0.171415909393437E+01
              0.130111746037563E+01
              0.453188238287281E+01
              0.410879479861087E+01
             -0.141911196442938E+01
             -0.515635856938433E+01
             -0.207326718917330E+01
              0.115358263767345E+01
              0.846596501140232E+00
              0.131644749359264E+01
              0.128737973956571E+01
              0.617637345444884E+00
              0.433371570265190E+01
             -0.115991323799601E+01
              0.230977850389549E+01
              0.764999794469789E+00
             -0.136797505854247E+01
             -0.980232561959097E+00
              0.225532614132817E+01
             -0.118226007494440E+01
             -0.101051326519059E+01
             -0.597111513815170E+00
              0.274860049371086E+01
             -0.333335331407683E+01
             -0.510776696337544E+00
             -0.288133596548053E+01
             -0.657129568714463E+01
              0.527345311436491E+00
             -0.707620855811105E+00
              0.213254999713774E+01
              0.270723345803065E+01
              0.353978579678614E+01
             -0.224389228423802E+01
              0.368007138612657E+01
              0.942034473067158E+00
             -0.544482863348351E+00
              0.759477267653403E+00
             -0.145084145060018E+01
             -0.108550981980545E+01
              0.155945497687342E+01
             -0.190898866798104E+01
              0.460921493092957E+01
             -0.112585131897488E+01
             -0.242077781764219E+01
              0.477367512862928E+01
             -0.261294709585286E+01
             -0.782742577366363E+00
              0.690083279500584E+00
              0.136126769244191E+01
             -0.215114009953903E+01
             -0.170329062626999E+01
              0.219591397650721E+01
             -0.417114020784060E+01
              0.274582636962904E+01
              0.529533084622750E+00
              0.199264356015421E+01
              0.318672194021400E+01
              0.432371463588087E+00
             -0.361758743543528E+01
             -0.191158248567340E+01
             -0.266637679477634E+01
             -0.172085988121085E+01
             -0.989885225082965E+00
              0.313214017964549E+00
             -0.975546769080468E+00
              0.269025120021247E+00
             -0.514876404989937E+01
              0.954050467584109E-01
             -0.314535764712911E+01
              0.291305565345728E+01
             -0.129273744623542E+01
             -0.270449649435082E+00
              0.204160996029900E+01
              0.930536519751666E-01
              0.226985096816867E+01
             -0.365682967477926E+01
              0.864384749723300E+00
              0.436652793288483E+00
              0.122506749536257E+01
              0.269623429638141E+01
             -0.931112753453629E-01
             -0.330064683483882E+01
             -0.152214913084898E+01
             -0.117225450930409E+01
             -0.688467387323925E+00
              0.304306743982636E+01
              0.205449926676025E+01
             -0.159452610445929E+01
             -0.162951596536250E+01
              0.156580022067015E+01
              0.125341097995775E+01
             -0.353261769112368E+01
              0.125971082796818E+01
              0.275774754930319E+01
             -0.928143310256320E-01
              0.301542249657910E+01
              0.165195375054036E+01
              0.245403124679413E+01
              0.307500813524755E+01
              0.449878343545771E+00
             -0.575387457458421E+01
              0.425409266469194E+00
              0.578102238128668E+01
              0.417310461150072E+01
             -0.298104968187504E+01
              0.189275094431595E+00
              0.326128601933338E+01
              0.337031498069393E+01
              0.136050493946277E+01
             -0.925156537629370E+00
              0.123509217644420E+01
              0.374296723966468E+01
             -0.119125527287746E+01
             -0.116327101294532E+01
              0.193650334593879E+01
             -0.112804119714790E+00
              0.166562720561980E+01
             -0.283568776385217E+00
              0.362885158806299E+01
             -0.159547854168028E+01
              0.602243010375638E+00
             -0.224618482892872E+01
              0.196563963947623E+01
             -0.206031836106121E+00
              0.301694050036813E+01
              0.407294815313133E-01
              0.772381659859397E+00
             -0.189744705289076E+01
             -0.137210695907304E+01
             -0.701665127342249E+00
             -0.353545035924187E+00
              0.294923541454790E+01
              0.831412238174714E+00
              0.417465483489778E+01
              0.271127662818630E+01
              0.325438945288766E+00
              0.725266808442995E-01
              0.379454675266745E+01
              0.207966052167029E+01
              0.858887670809949E-01
              0.332098943735338E+01
             -0.323186218801955E+01
              0.130632240589481E+01
             -0.192241094989775E+01
             -0.133778512128584E+01
              0.469695208014418E+01
             -0.750647016211506E+00
              0.837526021989206E-01
             -0.834338294252220E+00
              0.386732737869684E+01
             -0.100401170948492E+01
             -0.352936240302313E-01
              0.805775226253341E+01
             -0.283903720586557E+01
             -0.201375516853960E+01
             -0.302176106978517E+01
             -0.123813343411779E+01
              0.158566409357012E+01
             -0.922487901469825E+00
              0.747440183301283E+00
             -0.107901836099821E+00
              0.794740825477730E+00
              0.174889972927933E+01
              0.173729588208687E+01
              0.334417017521528E+01
              0.143947483687612E+01
              0.214759595108707E+01
             -0.319570296937927E+01
             -0.229121715479976E+01
             -0.100256823063955E+01
             -0.270758297463313E+01
              0.491627972428067E+01
              0.435740116389952E+01
              0.210320668079021E+01
              0.508033789623244E+01
             -0.280519010975680E+01
             -0.134878288418507E+01
             -0.131317570668250E+01
              0.401452866946583E+01
 
 BEEF-vdW xc energy contributions
            1 :    -38.86334301708898     
            2 :     32.85993999866098     
            3 :    -24.03273000494912     
            4 :     15.66604825949992     
            5 :    -8.970236707052493     
            6 :     3.761234074858962     
            7 :    0.1210750104202702     
            8 :    -2.666988765302683     
            9 :     4.122584398504721     
           10 :    -4.849036860279710     
           11 :     4.980126399789071     
           12 :    -4.514408387659365     
           13 :     3.563112758177567     
           14 :    -2.331307293954936     
           15 :    0.9935342894008699     
           16 :    0.2908982918843748     
           17 :    -1.336602364160115     
           18 :     2.001432031911520     
           19 :    -2.256343458760739     
           20 :     2.149875438967122     
           21 :    -1.749615132938651     
           22 :     1.142105699853005     
           23 :   -0.4414718141372447     
           24 :   -0.2377629040163072     
           25 :    0.8060133896985349     
           26 :    -1.201279877343218     
           27 :     1.393418170158384     
           28 :    -1.387730523981162     
           29 :     1.209738160270525     
           30 :   -0.8906171142365551     
           31 :    -4.947448005615229     
           32 :    -3.170596389099877     

     Writing all to output data dir ./PbI2.save/
 
     init_run     :      0.57s CPU      0.67s WALL (       1 calls)
     electrons    :      0.26s CPU      1.63s WALL (       1 calls)
     forces       :      0.09s CPU      0.09s WALL (       1 calls)
     stress       :      0.22s CPU      0.23s WALL (       1 calls)

     Called by init_run:
     wfcinit      :      0.08s CPU      0.11s WALL (       1 calls)
     potinit      :      0.33s CPU      0.37s WALL (       1 calls)
     hinit0       :      0.11s CPU      0.13s WALL (       1 calls)

     Called by electrons:
     c_bands      :      0.07s CPU      1.30s WALL (       2 calls)
     sum_band     :      0.02s CPU      0.03s WALL (       2 calls)
     v_of_rho     :      0.39s CPU      0.42s WALL (       2 calls)
     v_h          :      0.00s CPU      0.00s WALL (       2 calls)
     v_xc         :      2.91s CPU      3.09s WALL (      38 calls)
     newd         :      0.00s CPU      0.00s WALL (       2 calls)
     PAW_pot      :      0.03s CPU      0.03s WALL (       2 calls)
     mix_rho      :      0.00s CPU      0.00s WALL (       2 calls)
     vdW_kernel   :      0.25s CPU      0.25s WALL (       1 calls)

     Called by c_bands:
     init_us_2    :      0.00s CPU      0.00s WALL (       4 calls)
     init_us_2:cp :      0.00s CPU      0.00s WALL (       4 calls)
     cegterg      :      0.04s CPU      0.05s WALL (       2 calls)

     Called by sum_band:
     sum_band:wei :      0.00s CPU      0.00s WALL (       2 calls)
     sum_band:loo :      0.01s CPU      0.01s WALL (       2 calls)
     sum_band:buf :      0.00s CPU      0.00s WALL (       2 calls)
     sum_band:ini :      0.00s CPU      0.00s WALL (       2 calls)
     sum_band:cal :      0.00s CPU      0.00s WALL (       2 calls)
     sum_band:bec :      0.00s CPU      0.00s WALL (       2 calls)
     addusdens    :      0.00s CPU      0.01s WALL (       2 calls)
     addusd:skk   :      0.00s CPU      0.00s WALL (       2 calls)
     addusd:dgemm :      0.00s CPU      0.00s WALL (       2 calls)
     addusd:qvan2 :      0.00s CPU      0.00s WALL (       2 calls)

     Called by *egterg:
     cdiaghg      :      0.00s CPU      0.00s WALL (       4 calls)
     cegterg:over :      0.00s CPU      0.00s WALL (       4 calls)
     cegterg:upda :      0.00s CPU      0.00s WALL (       4 calls)
     cegterg:last :      0.00s CPU      0.00s WALL (       2 calls)
     h_psi        :      0.03s CPU      0.04s WALL (       6 calls)
     s_psi        :      0.00s CPU      0.00s WALL (       6 calls)
     g_psi        :      0.00s CPU      0.00s WALL (       4 calls)

     Called by h_psi:
     h_psi:calbec :      0.00s CPU      0.00s WALL (       6 calls)
     vloc_psi     :      0.03s CPU      0.03s WALL (       6 calls)
     add_vuspsi   :      0.00s CPU      0.00s WALL (       6 calls)

     General routines
     calbec       :      0.01s CPU      0.01s WALL (      13 calls)
     fft          :      0.83s CPU      0.87s WALL (    2232 calls)
     ffts         :      0.00s CPU      0.00s WALL (       4 calls)
     fftw         :      0.03s CPU      0.04s WALL (     256 calls)
     interpolate  :      0.00s CPU      0.00s WALL (       2 calls)
 
     Parallel routines

     PAW routines
     PAW_pot      :      0.03s CPU      0.03s WALL (       2 calls)
     PAW_symme    :      0.00s CPU      0.00s WALL (       3 calls)
 
     PWSCF        :      3.73s CPU      7.17s WALL

 
   This run was terminated on:   8:51: 1  21Feb2024            

=------------------------------------------------------------------------------=
   JOB DONE.
=------------------------------------------------------------------------------=
