
     Program PWSCF v.7.1 starts on  9Feb2024 at 17:42:45 

     This program is part of the open-source Quantum ESPRESSO suite
     for quantum simulation of materials; please cite
         "P. Giannozzi et al., J. Phys.:Condens. Matter 21 395502 (2009);
         "P. Giannozzi et al., J. Phys.:Condens. Matter 29 465901 (2017);
         "P. Giannozzi et al., J. Chem. Phys. 152 154105 (2020);
          URL http://www.quantum-espresso.org", 
     in publications or presentations arising from this work. More details at
     http://www.quantum-espresso.org/quote

     Parallel version (MPI & OpenMP), running on     128 processor cores
     Number of MPI processes:               128
     Threads/MPI process:                     1

     MPI processes distributed on     1 nodes
     1922015 MiB available memory on the printing compute node when the environment starts
 
     Reading input from espresso.pwi
Warning: card &CELL ignored
Warning: card    CELL_DYNAMICS    = 'BFGS' ignored
Warning: card / ignored

     Current dimensions of program PWSCF are:
     Max number of different atomic species (ntypx) = 10
     Max number of k-points (npk) =  40000
     Max angular momentum in pseudopotentials (lmaxx) =  4
     file Pb.pbe-dn-kjpaw_psl.1.0.0.UPF: wavefunction(s)  6S 6P 5D renormalized
     file I.pbe-dn-kjpaw_psl.1.0.0.UPF: wavefunction(s)  5S 5P renormalized

     **************************************************************************
     Initializing libbeef V0.1.2 with the BEEF-vdW functional.
     Citation: Wellendorff et al., PRB 85, 235149 (2012).
     **************************************************************************


     IMPORTANT: XC functional enforced from input :
     Exchange-correlation= BEEF-VDW
                           (   1   4  43  14   2   0   0)
     Any further DFT definition will be discarded
     Please, verify this is what you really want

 
     K-points division:     npool     =       2
     R & G space division:  proc/nbgrp/npool/nimage =      64
     Subspace diagonalization in iterative solution of the eigenvalue problem:
     a serial algorithm will be used

 
     Parallelization info
     --------------------
     sticks:   dense  smooth     PW     G-vecs:    dense   smooth      PW
     Min         268     215     55                29758    21295    2791
     Max         269     216     56                29767    21298    2796
     Sum       17215   13777   3559              1904969  1362953  178821
 
     Using Slab Decomposition
 


     bravais-lattice index     =            4
     lattice parameter (alat)  =      26.7090  a.u.
     unit-cell volume          =   17226.5091 (a.u.)^3
     number of atoms/cell      =           53
     number of atomic types    =            2
     number of electrons       =       851.00
     number of Kohn-Sham states=          511
     kinetic-energy cutoff     =      70.0000  Ry
     charge density cutoff     =     350.0000  Ry
     scf convergence threshold =      1.0E-09
     mixing beta               =       0.7000
     number of iterations used =            8  plain     mixing
     energy convergence thresh.=      1.0E-04
     force convergence thresh. =      1.0E-03
     Exchange-correlation= BEEF-VDW
                           (   1   4  43  14   2   0   0)
     nstep                     =           50


     celldm(1)=  26.709025  celldm(2)=   0.000000  celldm(3)=   1.043981
     celldm(4)=   0.000000  celldm(5)=   0.000000  celldm(6)=   0.000000

     crystal axes: (cart. coord. in units of alat)
               a(1) = (   1.000000   0.000000   0.000000 )  
               a(2) = (  -0.500000   0.866025   0.000000 )  
               a(3) = (   0.000000   0.000000   1.043981 )  

     reciprocal axes: (cart. coord. in units 2 pi/alat)
               b(1) = (  1.000000  0.577350 -0.000000 )  
               b(2) = (  0.000000  1.154701  0.000000 )  
               b(3) = (  0.000000 -0.000000  0.957872 )  


     PseudoPot. # 1 for Pb read from file:
     /trace/group/acmegroup/atimmins/packages/espresso/pseudo/psl_1.0.0/pslibrary.1.0.0/pbe/PSEUDOPOTENTIALS/Pb.pbe-dn-kjpaw_psl.1.0.0.UPF
     MD5 check sum: 39ab5b8a6bbd56b7735ad9f188aac93a
     Pseudo is Projector augmented-wave + core cor, Zval = 14.0
     Generated using 'atomic' code by A. Dal Corso  v.7.1
     Shape of augmentation charge: PSQ
     Using radial grid of 1281 points,  6 beta functions with: 
                l(1) =   0
                l(2) =   0
                l(3) =   1
                l(4) =   1
                l(5) =   2
                l(6) =   2
     Q(r) pseudized with 0 coefficients 


     PseudoPot. # 2 for I  read from file:
     /trace/group/acmegroup/atimmins/packages/espresso/pseudo/psl_1.0.0/pslibrary.1.0.0/pbe/PSEUDOPOTENTIALS/I.pbe-dn-kjpaw_psl.1.0.0.UPF
     MD5 check sum: bfa8781bc1224d19af3f3980e3fab11e
     Pseudo is Projector augmented-wave + core cor, Zval = 17.0
     Generated using 'atomic' code by A. Dal Corso  v.7.1
     Shape of augmentation charge: PSQ
     Using radial grid of 1247 points,  6 beta functions with: 
                l(1) =   0
                l(2) =   0
                l(3) =   1
                l(4) =   1
                l(5) =   2
                l(6) =   2
     Q(r) pseudized with 0 coefficients 


     atomic species   valence    mass     pseudopotential
        Pb            14.00   207.20000     Pb( 1.00)
        I             17.00   126.90447     I ( 1.00)

     No symmetry found


                                    s                        frac. trans.

      isym =  1     identity                                     

 cryst.   s( 1) = (     1          0          0      )
                  (     0          1          0      )
                  (     0          0          1      )

 cart.    s( 1) = (  1.0000000  0.0000000  0.0000000 )
                  (  0.0000000  1.0000000  0.0000000 )
                  (  0.0000000  0.0000000  1.0000000 )


     point group C_1 (1)    
     there are  1 classes
     the character table:

       E    
A      1.00

     the symmetry operations in each class and the name of the first element:

     E        1
          identity                                               

   Cartesian axes

     site n.     atom                  positions (alat units)
         1           Pb  tau(   1) = (   0.1666712   0.2886557   0.5219862  )
         2           Pb  tau(   2) = (   0.0000102   0.5773235   1.0439712  )
         3           Pb  tau(   3) = (   0.0000034   0.5773295   0.5219807  )
         4           Pb  tau(   4) = (  -0.1666576   0.8659973   1.0439657  )
         5           Pb  tau(   5) = (  -0.1666644   0.8660033   0.5219752  )
         6           Pb  tau(   6) = (   0.5000113   0.2886484   1.0439810  )
         7           Pb  tau(   7) = (   0.5000045   0.2886544   0.5219905  )
         8           Pb  tau(   8) = (   0.3333436   0.5773222   1.0439755  )
         9           Pb  tau(   9) = (   0.3333367   0.5773282   0.5219850  )
        10           Pb  tau(  10) = (   0.1666758   0.8659960   1.0439700  )
        11           Pb  tau(  11) = (   0.1666690   0.8660020   0.5219795  )
        12           Pb  tau(  12) = (   0.8333447   0.2886471   1.0439853  )
        13           Pb  tau(  13) = (   0.8333379   0.2886531   0.5219949  )
        14           Pb  tau(  14) = (   0.6666769   0.5773209   1.0439798  )
        15           Pb  tau(  15) = (   0.6666701   0.5773269   0.5219894  )
        16           Pb  tau(  16) = (   0.5000091   0.8659947   1.0439743  )
        17           Pb  tau(  17) = (   0.5000023   0.8660007   0.5219839  )
        18           I   tau(  18) = (   0.1666738   0.0962066   0.3879099  )
        19           I   tau(  19) = (   0.1666806   0.0962006   0.9099004  )
        20           I   tau(  20) = (   0.0000060   0.3848804   0.3879044  )
        21           I   tau(  21) = (   0.0000129   0.3848744   0.9098949  )
        22           I   tau(  22) = (  -0.1666617   0.6735542   0.3878990  )
        23           I   tau(  23) = (  -0.1666549   0.6735482   0.9098894  )
        24           I   tau(  24) = (   0.5000071   0.0962053   0.3879143  )
        25           I   tau(  25) = (   0.5000140   0.0961993   0.9099047  )
        26           I   tau(  26) = (   0.3333394   0.3848792   0.3879088  )
        27           I   tau(  27) = (   0.3333462   0.3848731   0.9098993  )
        28           I   tau(  28) = (   0.1666716   0.6735530   0.3879033  )
        29           I   tau(  29) = (   0.1666784   0.6735469   0.9098938  )
        30           I   tau(  30) = (   0.8333405   0.0962041   0.3879186  )
        31           I   tau(  31) = (   0.8333473   0.0961980   0.9099091  )
        32           I   tau(  32) = (   0.6666727   0.3848779   0.3879131  )
        33           I   tau(  33) = (   0.6666795   0.3848718   0.9099036  )
        34           I   tau(  34) = (   0.5000049   0.6735517   0.3879076  )
        35           I   tau(  35) = (   0.5000117   0.6735457   0.9098981  )
        36           I   tau(  36) = (  -0.0000023   0.1924396   0.1340740  )
        37           I   tau(  37) = (   0.0000045   0.1924336   0.6560644  )
        38           I   tau(  38) = (  -0.1666701   0.4811134   0.1340685  )
        39           I   tau(  39) = (  -0.1666632   0.4811074   0.6560589  )
        40           I   tau(  40) = (  -0.3333378   0.7697873   0.1340630  )
        41           I   tau(  41) = (  -0.3333310   0.7697812   0.6560534  )
        42           I   tau(  42) = (   0.3333311   0.1924384   0.1340783  )
        43           I   tau(  43) = (   0.3333379   0.1924323   0.6560688  )
        44           I   tau(  44) = (   0.1666633   0.4811122   0.1340728  )
        45           I   tau(  45) = (   0.1666701   0.4811061   0.6560633  )
        46           I   tau(  46) = (  -0.0000045   0.7697860   0.1340673  )
        47           I   tau(  47) = (   0.0000023   0.7697799   0.6560578  )
        48           I   tau(  48) = (   0.6666644   0.1924371   0.1340827  )
        49           I   tau(  49) = (   0.6666712   0.1924310   0.6560731  )
        50           I   tau(  50) = (   0.4999966   0.4811109   0.1340772  )
        51           I   tau(  51) = (   0.5000034   0.4811049   0.6560676  )
        52           I   tau(  52) = (   0.3333288   0.7697847   0.1340717  )
        53           I   tau(  53) = (   0.3333356   0.7697787   0.6560621  )

   Crystallographic axes

     site n.     atom                  positions (cryst. coord.)
         1           Pb  tau(   1) = (  0.3333266  0.3333109  0.4999959  )
         2           Pb  tau(   2) = (  0.3333281  0.6666357  0.9999906  )
         3           Pb  tau(   3) = (  0.3333248  0.6666427  0.4999906  )
         4           Pb  tau(   4) = (  0.3333262  0.9999675  0.9999854  )
         5           Pb  tau(   5) = (  0.3333229  0.9999745  0.4999854  )
         6           Pb  tau(   6) = (  0.6666626  0.3333025  1.0000001  )
         7           Pb  tau(   7) = (  0.6666592  0.3333094  0.5000001  )
         8           Pb  tau(   8) = (  0.6666607  0.6666343  0.9999948  )
         9           Pb  tau(   9) = (  0.6666573  0.6666412  0.4999948  )
        10           Pb  tau(  10) = (  0.6666588  0.9999661  0.9999895  )
        11           Pb  tau(  11) = (  0.6666555  0.9999730  0.4999895  )
        12           Pb  tau(  12) = (  0.9999951  0.3333010  1.0000042  )
        13           Pb  tau(  13) = (  0.9999918  0.3333079  0.5000042  )
        14           Pb  tau(  14) = (  0.9999933  0.6666328  0.9999990  )
        15           Pb  tau(  15) = (  0.9999899  0.6666397  0.4999990  )
        16           Pb  tau(  16) = (  0.9999914  0.9999646  0.9999937  )
        17           Pb  tau(  17) = (  0.9999881  0.9999715  0.4999937  )
        18           I   tau(  18) = (  0.2222187  0.1110899  0.3715680  )
        19           I   tau(  19) = (  0.2222221  0.1110829  0.8715680  )
        20           I   tau(  20) = (  0.2222169  0.4444217  0.3715628  )
        21           I   tau(  21) = (  0.2222202  0.4444147  0.8715628  )
        22           I   tau(  22) = (  0.2222150  0.7777534  0.3715575  )
        23           I   tau(  23) = (  0.2222183  0.7777465  0.8715575  )
        24           I   tau(  24) = (  0.5555513  0.1110884  0.3715722  )
        25           I   tau(  25) = (  0.5555547  0.1110814  0.8715722  )
        26           I   tau(  26) = (  0.5555495  0.4444202  0.3715669  )
        27           I   tau(  27) = (  0.5555528  0.4444132  0.8715669  )
        28           I   tau(  28) = (  0.5555476  0.7777520  0.3715617  )
        29           I   tau(  29) = (  0.5555509  0.7777450  0.8715617  )
        30           I   tau(  30) = (  0.8888839  0.1110869  0.3715764  )
        31           I   tau(  31) = (  0.8888873  0.1110799  0.8715764  )
        32           I   tau(  32) = (  0.8888820  0.4444187  0.3715711  )
        33           I   tau(  33) = (  0.8888854  0.4444117  0.8715711  )
        34           I   tau(  34) = (  0.8888802  0.7777505  0.3715658  )
        35           I   tau(  35) = (  0.8888835  0.7777435  0.8715658  )
        36           I   tau(  36) = (  0.1111028  0.2222102  0.1284257  )
        37           I   tau(  37) = (  0.1111061  0.2222032  0.6284257  )
        38           I   tau(  38) = (  0.1111009  0.5555420  0.1284204  )
        39           I   tau(  39) = (  0.1111043  0.5555350  0.6284204  )
        40           I   tau(  40) = (  0.1110991  0.8888738  0.1284152  )
        41           I   tau(  41) = (  0.1111024  0.8888668  0.6284152  )
        42           I   tau(  42) = (  0.4444354  0.2222087  0.1284299  )
        43           I   tau(  43) = (  0.4444387  0.2222017  0.6284299  )
        44           I   tau(  44) = (  0.4444335  0.5555405  0.1284246  )
        45           I   tau(  45) = (  0.4444369  0.5555335  0.6284246  )
        46           I   tau(  46) = (  0.4444316  0.8888723  0.1284193  )
        47           I   tau(  47) = (  0.4444350  0.8888653  0.6284193  )
        48           I   tau(  48) = (  0.7777680  0.2222072  0.1284340  )
        49           I   tau(  49) = (  0.7777713  0.2222002  0.6284340  )
        50           I   tau(  50) = (  0.7777661  0.5555390  0.1284287  )
        51           I   tau(  51) = (  0.7777694  0.5555320  0.6284287  )
        52           I   tau(  52) = (  0.7777642  0.8888708  0.1284235  )
        53           I   tau(  53) = (  0.7777676  0.8888638  0.6284235  )

     number of k points=     4  Gaussian smearing, width (Ry)=  0.0100
                       cart. coord. in units 2pi/alat
        k(    1) = (   0.0000000   0.0000000   0.0000000), wk =   0.5000000
        k(    2) = (   0.0000000  -0.5773503   0.0000000), wk =   0.5000000
        k(    3) = (   0.5000000  -0.2886751   0.0000000), wk =   0.5000000
        k(    4) = (  -0.5000000  -0.2886751   0.0000000), wk =   0.5000000

                       cryst. coord.
        k(    1) = (   0.0000000   0.0000000   0.0000000), wk =   0.5000000
        k(    2) = (   0.0000000  -0.5000000   0.0000000), wk =   0.5000000
        k(    3) = (   0.5000000  -0.5000000   0.0000000), wk =   0.5000000
        k(    4) = (  -0.5000000   0.0000000   0.0000000), wk =   0.5000000

     Dense  grid:  1904969 G-vectors     FFT dimensions: ( 160, 160, 180)

     Smooth grid:  1362953 G-vectors     FFT dimensions: ( 144, 144, 150)

     Dynamical RAM for                 wfc:      20.76 MB

     Dynamical RAM for     wfc (w. buffer):      62.27 MB

     Dynamical RAM for           str. fact:       0.91 MB

     Dynamical RAM for           local pot:       0.00 MB

     Dynamical RAM for          nlocal pot:      38.75 MB

     Dynamical RAM for                qrad:       3.00 MB

     Dynamical RAM for          rho,v,vnew:       3.12 MB

     Dynamical RAM for               rhoin:       1.04 MB

     Dynamical RAM for            rho*nmix:       7.27 MB

     Dynamical RAM for           G-vectors:       1.87 MB

     Dynamical RAM for          h,s,v(r/c):     191.25 MB

     Dynamical RAM for          <psi|beta>:       7.44 MB

     Dynamical RAM for                 psi:      83.03 MB

     Dynamical RAM for                hpsi:      83.03 MB

     Dynamical RAM for                spsi:      83.03 MB

     Dynamical RAM for      wfcinit/wfcrot:      47.49 MB

     Dynamical RAM for           addusdens:      50.64 MB

     Dynamical RAM for          addusforce:      66.68 MB

     Dynamical RAM for         addusstress:      45.76 MB

     Estimated static dynamical RAM per process >     115.25 MB

     Estimated max dynamical RAM per process >     570.28 MB

     Estimated total dynamical RAM >      70.83 GB

     Check: negative core charge=   -0.000001

     Initial potential from superposition of free atoms

     starting charge     849.9573, renormalised to     851.0000


     %%%%%%%%%%%%%%%%%%%%%%%%%%%%%%%%%%%%%%%%%%%%%%%%%%%%%%%%%%%%%%%%%%%%%%%%
     %                                                                      %
     % You are using vdW-DF, which was implemented by the Thonhauser group. %
     % Please cite the following two papers that made this development      %
     % possible and the two reviews that describe the various versions:     %
     %                                                                      %
     %   T. Thonhauser et al., PRL 115, 136402 (2015).                      %
     %   T. Thonhauser et al., PRB 76, 125112 (2007).                       %
     %   K. Berland et al., Rep. Prog. Phys. 78, 066501 (2015).             %
     %   D.C. Langreth et al., J. Phys.: Condens. Matter 21, 084203 (2009). %
     %                                                                      %
     % If you are calculating stress with vdW-DF, please also cite:         %
     %                                                                      %
     %   R. Sabatini et al., J. Phys.: Condens. Matter 24, 424209 (2012).   %
     %                                                                      %
     %%%%%%%%%%%%%%%%%%%%%%%%%%%%%%%%%%%%%%%%%%%%%%%%%%%%%%%%%%%%%%%%%%%%%%%%

     %%%%%%%%%%%%%%%%%%%%%%%%%%%%%%%%%%%%%%%%%%%%%%%%%%%%%%%%%%%%%%%%%%%%%%%%
     %                                                                      %
     %  vdW-DF NEWS:                                                        %
     %                                                                      %
     %  * vdW-DF3 is now available. DOI: 10.1021/acs.jctc.0c00471           %
     %    use with input_dft = 'vdW-DF3-opt1' or 'vdW-DF3-opt2'             %
     %                                                                      %
     %  * Unscreened and range-separated vdW-DF hybrid functionals          %
     %    DOI: 10.1063/1.4986522 and 10.1088/1361-648X/ac2ad2               %
     %    use with input_dft = 'vdW-DF-cx0' (etc) and 'vdW-DF-ahcx'         %
     %                                                                      %
     %%%%%%%%%%%%%%%%%%%%%%%%%%%%%%%%%%%%%%%%%%%%%%%%%%%%%%%%%%%%%%%%%%%%%%%%


     Carrying out vdW-DF run using the following parameters:
     Nqs    =  20  Npoints =  1024  r_max =  100.000
     q_mesh =  0.00001000  0.04494208  0.09755937  0.15916263
               0.23128650  0.31572767  0.41458969  0.53033537
               0.66584808  0.82450364  1.01025438  1.22772762
               1.48234092  1.78043706  2.12944203  2.53805004
               3.01644009  3.57652955  4.23227104  5.00000000


     -----------------------------------------------
     Non-local corr. energy    =      25.55430761 Ry
     -----------------------------------------------

     Starting wfcs are  477 randomized atomic wfcs +   34 random wfcs
     Checking if some PAW data can be deallocated... 
       PAW data deallocated on   77 nodes for type:  1
       PAW data deallocated on   51 nodes for type:  2

     total cpu time spent up to now is       10.6 secs

     Self-consistent Calculation

     iteration #  1     ecut=    70.00 Ry     beta= 0.70
     Davidson diagonalization with overlap

---- Real-time Memory Report at c_bands before calling an iterative solver
           339 MiB given to the printing process from OS
             0 MiB allocation reported by mallinfo(arena+hblkhd)
       1902744 MiB available memory on the node where the printing process lives
------------------
     ethr =  1.00E-02,  avg # of iterations =  7.8

     Threshold (ethr) on eigenvalues was too large:
     Diagonalizing with lowered threshold

     Davidson diagonalization with overlap

---- Real-time Memory Report at c_bands before calling an iterative solver
           577 MiB given to the printing process from OS
             0 MiB allocation reported by mallinfo(arena+hblkhd)
       1901570 MiB available memory on the node where the printing process lives
------------------
     ethr =  2.26E-04,  avg # of iterations = 11.0


     -----------------------------------------------
     Non-local corr. energy    =      25.68940426 Ry
     -----------------------------------------------


     total cpu time spent up to now is      137.5 secs

     total energy              =  -35527.71740248 Ry
     estimated scf accuracy    <       1.80432161 Ry

     iteration #  2     ecut=    70.00 Ry     beta= 0.70
     Davidson diagonalization with overlap

---- Real-time Memory Report at c_bands before calling an iterative solver
           619 MiB given to the printing process from OS
             0 MiB allocation reported by mallinfo(arena+hblkhd)
       1900573 MiB available memory on the node where the printing process lives
------------------
     ethr =  2.12E-04,  avg # of iterations = 17.0


     -----------------------------------------------
     Non-local corr. energy    =      25.62892291 Ry
     -----------------------------------------------


     total cpu time spent up to now is      245.1 secs

     total energy              =  -35527.41264634 Ry
     estimated scf accuracy    <       5.05646262 Ry

     iteration #  3     ecut=    70.00 Ry     beta= 0.70
     Davidson diagonalization with overlap

---- Real-time Memory Report at c_bands before calling an iterative solver
           633 MiB given to the printing process from OS
             0 MiB allocation reported by mallinfo(arena+hblkhd)
       1901229 MiB available memory on the node where the printing process lives
------------------
     ethr =  2.12E-04,  avg # of iterations = 10.5


     -----------------------------------------------
     Non-local corr. energy    =      25.61812399 Ry
     -----------------------------------------------


     total cpu time spent up to now is      316.6 secs

     total energy              =  -35528.44527096 Ry
     estimated scf accuracy    <       0.57617709 Ry

     iteration #  4     ecut=    70.00 Ry     beta= 0.70
     Davidson diagonalization with overlap

---- Real-time Memory Report at c_bands before calling an iterative solver
           633 MiB given to the printing process from OS
             0 MiB allocation reported by mallinfo(arena+hblkhd)
       1901198 MiB available memory on the node where the printing process lives
------------------
     ethr =  6.77E-05,  avg # of iterations = 15.0


     -----------------------------------------------
     Non-local corr. energy    =      25.62251611 Ry
     -----------------------------------------------


     total cpu time spent up to now is      402.9 secs

     total energy              =  -35528.54763318 Ry
     estimated scf accuracy    <       0.08085182 Ry

     iteration #  5     ecut=    70.00 Ry     beta= 0.70
     Davidson diagonalization with overlap

---- Real-time Memory Report at c_bands before calling an iterative solver
           633 MiB given to the printing process from OS
             0 MiB allocation reported by mallinfo(arena+hblkhd)
       1900167 MiB available memory on the node where the printing process lives
------------------
     ethr =  9.50E-06,  avg # of iterations = 17.8


     -----------------------------------------------
     Non-local corr. energy    =      25.62656299 Ry
     -----------------------------------------------


     total cpu time spent up to now is      508.5 secs

     total energy              =  -35528.55585089 Ry
     estimated scf accuracy    <       0.04293616 Ry

     iteration #  6     ecut=    70.00 Ry     beta= 0.70
     Davidson diagonalization with overlap

---- Real-time Memory Report at c_bands before calling an iterative solver
           641 MiB given to the printing process from OS
             0 MiB allocation reported by mallinfo(arena+hblkhd)
       1901025 MiB available memory on the node where the printing process lives
------------------
     ethr =  5.05E-06,  avg # of iterations = 13.8


     -----------------------------------------------
     Non-local corr. energy    =      25.63309567 Ry
     -----------------------------------------------


     total cpu time spent up to now is      586.9 secs

     total energy              =  -35528.56272987 Ry
     estimated scf accuracy    <       0.02917950 Ry

     iteration #  7     ecut=    70.00 Ry     beta= 0.70
     Davidson diagonalization with overlap

---- Real-time Memory Report at c_bands before calling an iterative solver
           641 MiB given to the printing process from OS
             0 MiB allocation reported by mallinfo(arena+hblkhd)
       1900938 MiB available memory on the node where the printing process lives
------------------
     ethr =  3.43E-06,  avg # of iterations = 19.0


     -----------------------------------------------
     Non-local corr. energy    =      25.63585765 Ry
     -----------------------------------------------


     total cpu time spent up to now is      672.1 secs

     total energy              =  -35528.56453203 Ry
     estimated scf accuracy    <       0.01186224 Ry

     iteration #  8     ecut=    70.00 Ry     beta= 0.70
     Davidson diagonalization with overlap

---- Real-time Memory Report at c_bands before calling an iterative solver
           641 MiB given to the printing process from OS
             0 MiB allocation reported by mallinfo(arena+hblkhd)
       1900837 MiB available memory on the node where the printing process lives
------------------
     ethr =  1.39E-06,  avg # of iterations = 16.3


     -----------------------------------------------
     Non-local corr. energy    =      25.63907695 Ry
     -----------------------------------------------


     total cpu time spent up to now is      754.4 secs

     total energy              =  -35528.56580719 Ry
     estimated scf accuracy    <       0.00268271 Ry

     iteration #  9     ecut=    70.00 Ry     beta= 0.70
     Davidson diagonalization with overlap

---- Real-time Memory Report at c_bands before calling an iterative solver
           641 MiB given to the printing process from OS
             0 MiB allocation reported by mallinfo(arena+hblkhd)
       1900739 MiB available memory on the node where the printing process lives
------------------
     ethr =  3.15E-07,  avg # of iterations = 15.3


     -----------------------------------------------
     Non-local corr. energy    =      25.64210588 Ry
     -----------------------------------------------


     total cpu time spent up to now is      849.9 secs

     total energy              =  -35528.56619776 Ry
     estimated scf accuracy    <       0.00309210 Ry

     iteration # 10     ecut=    70.00 Ry     beta= 0.70
     Davidson diagonalization with overlap

---- Real-time Memory Report at c_bands before calling an iterative solver
           658 MiB given to the printing process from OS
             0 MiB allocation reported by mallinfo(arena+hblkhd)
       1900620 MiB available memory on the node where the printing process lives
------------------
     ethr =  3.15E-07,  avg # of iterations = 16.8


     -----------------------------------------------
     Non-local corr. energy    =      25.64603577 Ry
     -----------------------------------------------


     total cpu time spent up to now is      931.2 secs

     total energy              =  -35528.56646651 Ry
     estimated scf accuracy    <       0.00069511 Ry

     iteration # 11     ecut=    70.00 Ry     beta= 0.70
     Davidson diagonalization with overlap

---- Real-time Memory Report at c_bands before calling an iterative solver
           658 MiB given to the printing process from OS
             0 MiB allocation reported by mallinfo(arena+hblkhd)
       1900626 MiB available memory on the node where the printing process lives
------------------
     ethr =  8.17E-08,  avg # of iterations = 14.0


     -----------------------------------------------
     Non-local corr. energy    =      25.64900857 Ry
     -----------------------------------------------


     total cpu time spent up to now is     1012.2 secs

     total energy              =  -35528.56651234 Ry
     estimated scf accuracy    <       0.00053969 Ry

     iteration # 12     ecut=    70.00 Ry     beta= 0.70
     Davidson diagonalization with overlap

---- Real-time Memory Report at c_bands before calling an iterative solver
           658 MiB given to the printing process from OS
             0 MiB allocation reported by mallinfo(arena+hblkhd)
       1900620 MiB available memory on the node where the printing process lives
------------------
     ethr =  6.34E-08,  avg # of iterations = 16.8


     -----------------------------------------------
     Non-local corr. energy    =      25.64876294 Ry
     -----------------------------------------------


     total cpu time spent up to now is     1107.2 secs

     total energy              =  -35528.56651487 Ry
     estimated scf accuracy    <       0.00136712 Ry

     iteration # 13     ecut=    70.00 Ry     beta= 0.70
     Davidson diagonalization with overlap

---- Real-time Memory Report at c_bands before calling an iterative solver
           658 MiB given to the printing process from OS
             0 MiB allocation reported by mallinfo(arena+hblkhd)
       1900615 MiB available memory on the node where the printing process lives
------------------
     ethr =  6.34E-08,  avg # of iterations = 18.3


     -----------------------------------------------
     Non-local corr. energy    =      25.64839145 Ry
     -----------------------------------------------


     total cpu time spent up to now is     1198.8 secs

     total energy              =  -35528.56661996 Ry
     estimated scf accuracy    <       0.00012826 Ry

     iteration # 14     ecut=    70.00 Ry     beta= 0.70
     Davidson diagonalization with overlap

---- Real-time Memory Report at c_bands before calling an iterative solver
           658 MiB given to the printing process from OS
             0 MiB allocation reported by mallinfo(arena+hblkhd)
       1900608 MiB available memory on the node where the printing process lives
------------------
     ethr =  1.51E-08,  avg # of iterations = 18.0


     -----------------------------------------------
     Non-local corr. energy    =      25.64782100 Ry
     -----------------------------------------------


     total cpu time spent up to now is     1285.1 secs

     total energy              =  -35528.56663317 Ry
     estimated scf accuracy    <       0.00007439 Ry

     iteration # 15     ecut=    70.00 Ry     beta= 0.70
     Davidson diagonalization with overlap

---- Real-time Memory Report at c_bands before calling an iterative solver
           658 MiB given to the printing process from OS
             0 MiB allocation reported by mallinfo(arena+hblkhd)
       1900598 MiB available memory on the node where the printing process lives
------------------
     ethr =  8.74E-09,  avg # of iterations = 16.3


     -----------------------------------------------
     Non-local corr. energy    =      25.64787948 Ry
     -----------------------------------------------


     total cpu time spent up to now is     1367.2 secs

     total energy              =  -35528.56664195 Ry
     estimated scf accuracy    <       0.00001130 Ry

     iteration # 16     ecut=    70.00 Ry     beta= 0.70
     Davidson diagonalization with overlap

---- Real-time Memory Report at c_bands before calling an iterative solver
           658 MiB given to the printing process from OS
             0 MiB allocation reported by mallinfo(arena+hblkhd)
       1900572 MiB available memory on the node where the printing process lives
------------------
     ethr =  1.33E-09,  avg # of iterations = 11.3


     -----------------------------------------------
     Non-local corr. energy    =      25.64791454 Ry
     -----------------------------------------------


     total cpu time spent up to now is     1478.7 secs

     total energy              =  -35528.56664676 Ry
     estimated scf accuracy    <       0.00000471 Ry

     iteration # 17     ecut=    70.00 Ry     beta= 0.70
     Davidson diagonalization with overlap

---- Real-time Memory Report at c_bands before calling an iterative solver
           719 MiB given to the printing process from OS
             0 MiB allocation reported by mallinfo(arena+hblkhd)
       1900524 MiB available memory on the node where the printing process lives
------------------
     ethr =  5.53E-10,  avg # of iterations = 14.5


     -----------------------------------------------
     Non-local corr. energy    =      25.64793498 Ry
     -----------------------------------------------


     total cpu time spent up to now is     1554.6 secs

     total energy              =  -35528.56664699 Ry
     estimated scf accuracy    <       0.00000225 Ry

     iteration # 18     ecut=    70.00 Ry     beta= 0.70
     Davidson diagonalization with overlap

---- Real-time Memory Report at c_bands before calling an iterative solver
           719 MiB given to the printing process from OS
             0 MiB allocation reported by mallinfo(arena+hblkhd)
       1900514 MiB available memory on the node where the printing process lives
------------------
     ethr =  2.64E-10,  avg # of iterations = 15.5


     -----------------------------------------------
     Non-local corr. energy    =      25.64797603 Ry
     -----------------------------------------------


     total cpu time spent up to now is     1630.6 secs

     total energy              =  -35528.56664727 Ry
     estimated scf accuracy    <       0.00000089 Ry

     iteration # 19     ecut=    70.00 Ry     beta= 0.70
     Davidson diagonalization with overlap

---- Real-time Memory Report at c_bands before calling an iterative solver
           719 MiB given to the printing process from OS
             0 MiB allocation reported by mallinfo(arena+hblkhd)
       1900514 MiB available memory on the node where the printing process lives
------------------
     ethr =  1.05E-10,  avg # of iterations = 17.8


     -----------------------------------------------
     Non-local corr. energy    =      25.64798508 Ry
     -----------------------------------------------


     total cpu time spent up to now is     1719.7 secs

     total energy              =  -35528.56664731 Ry
     estimated scf accuracy    <       0.00000046 Ry

     iteration # 20     ecut=    70.00 Ry     beta= 0.70
     Davidson diagonalization with overlap

---- Real-time Memory Report at c_bands before calling an iterative solver
           719 MiB given to the printing process from OS
             0 MiB allocation reported by mallinfo(arena+hblkhd)
       1900368 MiB available memory on the node where the printing process lives
------------------
     ethr =  5.36E-11,  avg # of iterations = 16.5


     -----------------------------------------------
     Non-local corr. energy    =      25.64798982 Ry
     -----------------------------------------------


     total cpu time spent up to now is     1807.4 secs

     total energy              =  -35528.56664735 Ry
     estimated scf accuracy    <       0.00000056 Ry

     iteration # 21     ecut=    70.00 Ry     beta= 0.70
     Davidson diagonalization with overlap

---- Real-time Memory Report at c_bands before calling an iterative solver
           719 MiB given to the printing process from OS
             0 MiB allocation reported by mallinfo(arena+hblkhd)
       1900294 MiB available memory on the node where the printing process lives
------------------
     ethr =  5.36E-11,  avg # of iterations = 16.8


     -----------------------------------------------
     Non-local corr. energy    =      25.64799300 Ry
     -----------------------------------------------


     total cpu time spent up to now is     1888.5 secs

     total energy              =  -35528.56664739 Ry
     estimated scf accuracy    <       0.00000022 Ry

     iteration # 22     ecut=    70.00 Ry     beta= 0.70
     Davidson diagonalization with overlap

---- Real-time Memory Report at c_bands before calling an iterative solver
           719 MiB given to the printing process from OS
             0 MiB allocation reported by mallinfo(arena+hblkhd)
       1900297 MiB available memory on the node where the printing process lives
------------------
     ethr =  2.55E-11,  avg # of iterations = 16.5


     -----------------------------------------------
     Non-local corr. energy    =      25.64799423 Ry
     -----------------------------------------------


     total cpu time spent up to now is     1969.6 secs

     total energy              =  -35528.56664741 Ry
     estimated scf accuracy    <       0.00000007 Ry

     iteration # 23     ecut=    70.00 Ry     beta= 0.70
     Davidson diagonalization with overlap

---- Real-time Memory Report at c_bands before calling an iterative solver
           719 MiB given to the printing process from OS
             0 MiB allocation reported by mallinfo(arena+hblkhd)
       1900297 MiB available memory on the node where the printing process lives
------------------
     ethr =  8.79E-12,  avg # of iterations = 16.0


     -----------------------------------------------
     Non-local corr. energy    =      25.64799501 Ry
     -----------------------------------------------


     total cpu time spent up to now is     2046.2 secs

     total energy              =  -35528.56664742 Ry
     estimated scf accuracy    <          8.7E-09 Ry

     iteration # 24     ecut=    70.00 Ry     beta= 0.70
     Davidson diagonalization with overlap

---- Real-time Memory Report at c_bands before calling an iterative solver
           719 MiB given to the printing process from OS
             0 MiB allocation reported by mallinfo(arena+hblkhd)
       1900301 MiB available memory on the node where the printing process lives
------------------
     ethr =  1.02E-12,  avg # of iterations = 13.3


     -----------------------------------------------
     Non-local corr. energy    =      25.64799562 Ry
     -----------------------------------------------


     total cpu time spent up to now is     2137.9 secs

     total energy              =  -35528.56664742 Ry
     estimated scf accuracy    <          6.1E-09 Ry

     iteration # 25     ecut=    70.00 Ry     beta= 0.70
     Davidson diagonalization with overlap

---- Real-time Memory Report at c_bands before calling an iterative solver
           719 MiB given to the printing process from OS
             0 MiB allocation reported by mallinfo(arena+hblkhd)
       1900300 MiB available memory on the node where the printing process lives
------------------
     ethr =  7.15E-13,  avg # of iterations =  7.0


     -----------------------------------------------
     Non-local corr. energy    =      25.64799736 Ry
     -----------------------------------------------


     total cpu time spent up to now is     2176.6 secs

     total energy              =  -35528.56664742 Ry
     estimated scf accuracy    <          2.1E-09 Ry

     iteration # 26     ecut=    70.00 Ry     beta= 0.70
     Davidson diagonalization with overlap

---- Real-time Memory Report at c_bands before calling an iterative solver
           719 MiB given to the printing process from OS
             0 MiB allocation reported by mallinfo(arena+hblkhd)
       1900303 MiB available memory on the node where the printing process lives
------------------
     ethr =  2.51E-13,  avg # of iterations = 12.0


     -----------------------------------------------
     Non-local corr. energy    =      25.64800055 Ry
     -----------------------------------------------


     total cpu time spent up to now is     2246.3 secs

     total energy              =  -35528.56664742 Ry
     estimated scf accuracy    <          1.4E-09 Ry

     iteration # 27     ecut=    70.00 Ry     beta= 0.70
     Davidson diagonalization with overlap

---- Real-time Memory Report at c_bands before calling an iterative solver
           719 MiB given to the printing process from OS
             0 MiB allocation reported by mallinfo(arena+hblkhd)
       1900299 MiB available memory on the node where the printing process lives
------------------
     ethr =  1.59E-13,  avg # of iterations = 13.5


     -----------------------------------------------
     Non-local corr. energy    =      25.64800096 Ry
     -----------------------------------------------


     total cpu time spent up to now is     2334.9 secs

     total energy              =  -35528.56664742 Ry
     estimated scf accuracy    <          1.6E-09 Ry

     iteration # 28     ecut=    70.00 Ry     beta= 0.70
     Davidson diagonalization with overlap

---- Real-time Memory Report at c_bands before calling an iterative solver
           719 MiB given to the printing process from OS
             0 MiB allocation reported by mallinfo(arena+hblkhd)
       1900296 MiB available memory on the node where the printing process lives
------------------
     ethr =  1.59E-13,  avg # of iterations = 16.0


     -----------------------------------------------
     Non-local corr. energy    =      25.64800192 Ry
     -----------------------------------------------


     total cpu time spent up to now is     2418.0 secs

     End of self-consistent calculation

          k = 0.0000 0.0000 0.0000 (170421 PWs)   bands (ev):

   -41.1716 -41.1716 -41.1715 -41.1715 -41.1715 -41.1715 -41.1715 -41.1714
   -41.1714 -41.1714 -41.1714 -41.1713 -41.1704 -41.1704 -41.1704 -41.1704
   -41.1704 -41.1703 -41.1702 -41.1701 -41.1701 -41.1701 -41.1701 -41.1700
   -41.1700 -41.1699 -41.1699 -41.1698 -41.1698 -41.1698 -41.1596 -41.1596
   -41.1596 -41.1596 -41.1595 -41.1595 -41.1595 -41.1594 -41.1594 -41.1594
   -41.1594 -41.1593 -41.1582 -41.1581 -41.1581 -41.1581 -41.1581 -41.1580
   -41.1580 -41.1580 -41.1580 -41.1580 -41.1579 -41.1579 -41.1576 -41.1576
   -41.1576 -41.1576 -41.1576 -41.1575 -41.1450 -41.1449 -41.1449 -41.1448
   -41.1448 -41.1448 -41.1448 -41.1447 -41.1447 -41.1447 -41.1447 -41.1446
   -41.1436 -41.1435 -41.1435 -41.1435 -41.1434 -41.1434 -41.1433 -41.1433
   -41.1433 -41.1433 -41.1432 -41.1431 -41.1431 -41.1430 -41.1430 -41.1430
   -41.1429 -41.1428 -40.9436 -40.9436 -40.9436 -40.9436 -40.9435 -40.9435
   -40.9430 -40.9430 -40.9430 -40.9429 -40.9429 -40.9429 -40.9405 -40.9404
   -40.9404 -40.9404 -40.9404 -40.9403 -40.9401 -40.9401 -40.9400 -40.9400
   -40.9400 -40.9400 -40.9388 -40.9388 -40.9387 -40.9387 -40.9387 -40.9387
   -40.9189 -40.9189 -40.9189 -40.9189 -40.9188 -40.9188 -40.9184 -40.9184
   -40.9184 -40.9184 -40.9183 -40.9183 -40.9125 -40.9125 -40.9125 -40.9125
   -40.9125 -40.9124 -40.9114 -40.9114 -40.9114 -40.9114 -40.9113 -40.9113
   -40.9095 -40.9094 -40.9094 -40.9094 -40.9094 -40.9094 -40.4790 -40.4789
   -40.4789 -40.4789 -40.4789 -40.4788 -40.4788 -40.4788 -40.4788 -40.4788
   -40.4787 -40.4787 -40.4320 -40.4320 -40.4319 -40.4319 -40.4318 -40.4318
   -40.4297 -40.4297 -40.4297 -40.4296 -40.4296 -40.4296 -40.4151 -40.4151
   -40.4150 -40.4150 -40.4150 -40.4150 -13.3416 -13.3416 -13.3404 -13.3400
   -13.3394 -13.3394 -13.3339 -13.3339 -13.3324 -13.3324 -13.3255 -13.3255
   -13.3229 -13.3229 -13.3229 -13.3221 -13.3219 -13.3219 -13.3216 -13.3212
   -13.3206 -13.3206 -13.3198 -13.3182 -13.3182 -13.3166 -13.3162 -13.3156
   -13.3156 -13.3153 -13.3153 -13.3148 -13.3148 -13.3146 -13.3146 -13.3144
   -13.3135 -13.3135 -13.3129 -13.3129 -13.3121 -13.3118 -13.3058 -13.3047
   -13.3047 -13.1297 -13.1297 -13.1294 -13.1294 -13.1155 -13.1155 -13.1150
   -13.1150 -13.1150 -13.1149 -12.9942 -12.9863 -12.9863 -12.9830 -12.9829
   -12.9754 -12.9708 -12.9672 -12.9667 -12.9667 -12.9664 -12.9662 -12.9662
   -12.9638 -12.9638 -12.9624 -12.9624 -12.9616 -12.9613 -12.9610 -12.9610
   -12.9577 -12.9577 -12.9510 -12.9485 -12.9472 -12.9472 -12.9435 -12.9435
   -12.9421  -8.4458  -8.1453  -8.1453  -8.1420  -8.1408  -8.1248  -8.1248
    -8.1184  -8.0309  -7.9168  -7.9167  -7.9096  -7.9076  -7.9008  -7.9008
    -7.8907  -7.8907  -7.8903  -7.8887  -7.8887  -7.8814  -7.8814  -7.7965
    -7.7965  -7.7475  -7.6868  -7.6765  -7.6765  -7.6630  -7.6630  -7.2893
    -7.2229  -7.2229  -7.1522  -7.1521  -7.1419  -4.0882  -4.0876  -3.8959
    -3.8921  -3.8920  -3.8907  -3.8907  -3.8844  -3.7899  -3.7155  -3.6864
    -3.5588  -3.5226  -3.5226  -3.5133  -3.5132  -3.2602   0.8731   0.8800
     0.8800   0.8831   0.8831   0.8934   0.9151   0.9151   0.9167   0.9167
     1.1488   1.1651   1.1848   1.1849   1.1854   1.1855   1.1880   1.2588
     1.3862   1.3862   1.5021   1.5434   1.5434   1.5469   1.5684   1.5746
     1.5746   1.6051   1.6052   1.7217   1.7242   1.7243   1.7368   1.7467
     1.7467   1.7942   1.9402   2.0069   2.0069   2.0153   2.0183   2.0541
     2.0543   2.0729   2.0729   2.1641   2.1642   2.1944   2.1944   2.2320
     2.3182   2.3183   2.3212   2.3378   2.3447   2.3448   2.3495   2.3496
     2.3725   2.4764   2.4765   2.4880   2.4961   2.4962   2.5070   2.5071
     2.5094   2.5486   2.5486   2.5678   2.5763   2.5764   2.5935   2.6056
     2.6056   2.6156   2.7338   2.7505   2.7505   2.7646   2.7646   2.7669
     2.7706   2.7935   2.8059   2.8060   2.8351   2.8602   2.8602   2.8710
     2.8711   2.9084   3.0143   3.0563   3.0563   3.0729   3.1640   3.1786
     3.1786   3.2715   3.2715   3.3304   3.3305   3.3618   3.3680   3.3952
     3.4510   3.4511   5.6239   6.0674   6.2368   6.2368   6.2417   6.2667
     6.2668   6.3006   6.4416   6.4417   6.6170   6.6171   6.6481   6.7033
     6.7036   6.7996   6.7997   6.8099   6.8102   6.9093   6.9094   6.9118
     6.9118   6.9140   6.9236   6.9574   7.0098   7.0099   7.1709   7.1790
     7.1791   7.1819   7.1820   7.1948   7.2387   7.2387   7.2709   7.3491
     7.3541   7.3812   7.3891   7.3894   7.4689   7.4901   7.4904   7.4934
     7.4938   7.5410   7.5414   7.5939   7.7843   9.2042   9.2102   9.2102
     9.2471   9.2587   9.2587   9.5230   9.6400   9.6400   9.7180   9.7830
     9.9270   9.9271  10.0206  10.0314  10.1538  10.5697  10.5769  10.7012
    10.7060  10.7061  10.7553  10.7553  10.7828  10.7829  10.8857  10.8953
    10.8970  10.8970  10.9079  10.9079  10.9698  10.9699  10.9742

     occupation numbers 
     1.0000   1.0000   1.0000   1.0000   1.0000   1.0000   1.0000   1.0000
     1.0000   1.0000   1.0000   1.0000   1.0000   1.0000   1.0000   1.0000
     1.0000   1.0000   1.0000   1.0000   1.0000   1.0000   1.0000   1.0000
     1.0000   1.0000   1.0000   1.0000   1.0000   1.0000   1.0000   1.0000
     1.0000   1.0000   1.0000   1.0000   1.0000   1.0000   1.0000   1.0000
     1.0000   1.0000   1.0000   1.0000   1.0000   1.0000   1.0000   1.0000
     1.0000   1.0000   1.0000   1.0000   1.0000   1.0000   1.0000   1.0000
     1.0000   1.0000   1.0000   1.0000   1.0000   1.0000   1.0000   1.0000
     1.0000   1.0000   1.0000   1.0000   1.0000   1.0000   1.0000   1.0000
     1.0000   1.0000   1.0000   1.0000   1.0000   1.0000   1.0000   1.0000
     1.0000   1.0000   1.0000   1.0000   1.0000   1.0000   1.0000   1.0000
     1.0000   1.0000   1.0000   1.0000   1.0000   1.0000   1.0000   1.0000
     1.0000   1.0000   1.0000   1.0000   1.0000   1.0000   1.0000   1.0000
     1.0000   1.0000   1.0000   1.0000   1.0000   1.0000   1.0000   1.0000
     1.0000   1.0000   1.0000   1.0000   1.0000   1.0000   1.0000   1.0000
     1.0000   1.0000   1.0000   1.0000   1.0000   1.0000   1.0000   1.0000
     1.0000   1.0000   1.0000   1.0000   1.0000   1.0000   1.0000   1.0000
     1.0000   1.0000   1.0000   1.0000   1.0000   1.0000   1.0000   1.0000
     1.0000   1.0000   1.0000   1.0000   1.0000   1.0000   1.0000   1.0000
     1.0000   1.0000   1.0000   1.0000   1.0000   1.0000   1.0000   1.0000
     1.0000   1.0000   1.0000   1.0000   1.0000   1.0000   1.0000   1.0000
     1.0000   1.0000   1.0000   1.0000   1.0000   1.0000   1.0000   1.0000
     1.0000   1.0000   1.0000   1.0000   1.0000   1.0000   1.0000   1.0000
     1.0000   1.0000   1.0000   1.0000   1.0000   1.0000   1.0000   1.0000
     1.0000   1.0000   1.0000   1.0000   1.0000   1.0000   1.0000   1.0000
     1.0000   1.0000   1.0000   1.0000   1.0000   1.0000   1.0000   1.0000
     1.0000   1.0000   1.0000   1.0000   1.0000   1.0000   1.0000   1.0000
     1.0000   1.0000   1.0000   1.0000   1.0000   1.0000   1.0000   1.0000
     1.0000   1.0000   1.0000   1.0000   1.0000   1.0000   1.0000   1.0000
     1.0000   1.0000   1.0000   1.0000   1.0000   1.0000   1.0000   1.0000
     1.0000   1.0000   1.0000   1.0000   1.0000   1.0000   1.0000   1.0000
     1.0000   1.0000   1.0000   1.0000   1.0000   1.0000   1.0000   1.0000
     1.0000   1.0000   1.0000   1.0000   1.0000   1.0000   1.0000   1.0000
     1.0000   1.0000   1.0000   1.0000   1.0000   1.0000   1.0000   1.0000
     1.0000   1.0000   1.0000   1.0000   1.0000   1.0000   1.0000   1.0000
     1.0000   1.0000   1.0000   1.0000   1.0000   1.0000   1.0000   1.0000
     1.0000   1.0000   1.0000   1.0000   1.0000   1.0000   1.0000   1.0000
     1.0000   1.0000   1.0000   1.0000   1.0000   1.0000   1.0000   1.0000
     1.0000   1.0000   1.0000   1.0000   1.0000   1.0000   1.0000   1.0000
     1.0000   1.0000   1.0000   1.0000   1.0000   1.0000   1.0000   1.0000
     1.0000   1.0000   1.0000   1.0000   1.0000   1.0000   1.0000   1.0000
     1.0000   1.0000   1.0000   1.0000   1.0000   1.0000   1.0000   1.0000
     1.0000   1.0000   1.0000   1.0000   1.0000   1.0000   1.0000   1.0000
     1.0000   1.0000   1.0000   1.0000   1.0000   1.0000   1.0000   1.0000
     1.0000   1.0000   1.0000   1.0000   1.0000   1.0000   1.0000   1.0000
     1.0000   1.0000   1.0000   1.0000   1.0000   1.0000   1.0000   1.0000
     1.0000   1.0000   1.0000   1.0000   1.0000   1.0000   1.0000   1.0000
     1.0000   1.0000   1.0000   1.0000   1.0000   1.0000   1.0000   1.0000
     1.0000   1.0000   1.0000   1.0000   1.0000   1.0000   1.0000   1.0000
     1.0000   1.0000   1.0000   1.0000   1.0000   1.0000   1.0000   1.0000
     1.0000   1.0000   1.0000   1.0000   1.0000   1.0000   1.0000   1.0000
     1.0000   1.0000   1.0000   1.0000   1.0000   1.0000   1.0000   1.0000
     1.0000   0.9989   0.9989   0.9928   0.9928   0.9831   0.9803   0.9622
     0.8842   0.8840   0.0000   0.0000   0.0000   0.0000   0.0000   0.0000
     0.0000   0.0000   0.0000   0.0000   0.0000   0.0000   0.0000   0.0000
     0.0000   0.0000   0.0000   0.0000   0.0000   0.0000   0.0000   0.0000
     0.0000   0.0000   0.0000   0.0000   0.0000   0.0000   0.0000   0.0000
     0.0000   0.0000   0.0000   0.0000   0.0000   0.0000   0.0000   0.0000
     0.0000   0.0000   0.0000   0.0000   0.0000   0.0000   0.0000   0.0000
     0.0000   0.0000   0.0000   0.0000   0.0000   0.0000   0.0000   0.0000
     0.0000   0.0000   0.0000   0.0000   0.0000   0.0000   0.0000   0.0000
     0.0000   0.0000   0.0000   0.0000   0.0000   0.0000   0.0000   0.0000
     0.0000   0.0000   0.0000   0.0000   0.0000   0.0000   0.0000   0.0000
     0.0000   0.0000   0.0000   0.0000   0.0000   0.0000   0.0000

          k = 0.0000-0.5774 0.0000 (170366 PWs)   bands (ev):

   -41.1716 -41.1716 -41.1715 -41.1715 -41.1715 -41.1715 -41.1715 -41.1714
   -41.1714 -41.1714 -41.1714 -41.1713 -41.1704 -41.1704 -41.1704 -41.1704
   -41.1704 -41.1703 -41.1702 -41.1701 -41.1701 -41.1701 -41.1701 -41.1700
   -41.1700 -41.1699 -41.1699 -41.1698 -41.1698 -41.1698 -41.1596 -41.1596
   -41.1596 -41.1596 -41.1595 -41.1595 -41.1595 -41.1594 -41.1594 -41.1594
   -41.1594 -41.1593 -41.1582 -41.1581 -41.1581 -41.1581 -41.1581 -41.1580
   -41.1580 -41.1580 -41.1580 -41.1580 -41.1579 -41.1579 -41.1576 -41.1576
   -41.1576 -41.1576 -41.1576 -41.1575 -41.1450 -41.1449 -41.1449 -41.1448
   -41.1448 -41.1448 -41.1448 -41.1447 -41.1447 -41.1447 -41.1447 -41.1446
   -41.1436 -41.1435 -41.1435 -41.1435 -41.1434 -41.1434 -41.1433 -41.1433
   -41.1433 -41.1433 -41.1432 -41.1431 -41.1431 -41.1430 -41.1430 -41.1430
   -41.1429 -41.1428 -40.9436 -40.9436 -40.9436 -40.9436 -40.9435 -40.9435
   -40.9430 -40.9430 -40.9430 -40.9429 -40.9429 -40.9429 -40.9405 -40.9404
   -40.9404 -40.9404 -40.9404 -40.9403 -40.9401 -40.9401 -40.9400 -40.9400
   -40.9400 -40.9400 -40.9388 -40.9388 -40.9387 -40.9387 -40.9387 -40.9387
   -40.9189 -40.9189 -40.9189 -40.9189 -40.9188 -40.9188 -40.9184 -40.9184
   -40.9184 -40.9183 -40.9183 -40.9183 -40.9125 -40.9125 -40.9125 -40.9125
   -40.9125 -40.9124 -40.9114 -40.9114 -40.9114 -40.9114 -40.9113 -40.9113
   -40.9095 -40.9094 -40.9094 -40.9094 -40.9094 -40.9094 -40.4790 -40.4789
   -40.4789 -40.4789 -40.4789 -40.4788 -40.4788 -40.4788 -40.4788 -40.4788
   -40.4787 -40.4787 -40.4320 -40.4320 -40.4319 -40.4319 -40.4318 -40.4318
   -40.4297 -40.4297 -40.4297 -40.4296 -40.4296 -40.4296 -40.4151 -40.4151
   -40.4150 -40.4150 -40.4150 -40.4150 -13.3458 -13.3422 -13.3418 -13.3403
   -13.3396 -13.3356 -13.3344 -13.3308 -13.3291 -13.3260 -13.3260 -13.3257
   -13.3245 -13.3239 -13.3235 -13.3228 -13.3224 -13.3218 -13.3213 -13.3207
   -13.3205 -13.3205 -13.3196 -13.3185 -13.3184 -13.3183 -13.3182 -13.3178
   -13.3176 -13.3174 -13.3164 -13.3159 -13.3150 -13.3145 -13.3143 -13.3141
   -13.3129 -13.3126 -13.3125 -13.3116 -13.3114 -13.3104 -13.3055 -13.3045
   -13.3040 -13.1298 -13.1296 -13.1295 -13.1294 -13.1155 -13.1155 -13.1150
   -13.1150 -13.1150 -13.1149 -12.9913 -12.9905 -12.9877 -12.9816 -12.9792
   -12.9778 -12.9687 -12.9685 -12.9671 -12.9670 -12.9666 -12.9665 -12.9654
   -12.9650 -12.9639 -12.9623 -12.9623 -12.9620 -12.9619 -12.9617 -12.9613
   -12.9564 -12.9541 -12.9533 -12.9480 -12.9477 -12.9472 -12.9434 -12.9429
   -12.9426  -8.3591  -8.3474  -8.1970  -8.1958  -8.0830  -8.0297  -8.0049
    -7.9990  -7.9977  -7.9971  -7.9901  -7.9818  -7.9781  -7.9225  -7.9148
    -7.9054  -7.8889  -7.8787  -7.8726  -7.8708  -7.8667  -7.8298  -7.7706
    -7.7634  -7.7284  -7.7076  -7.6920  -7.6873  -7.6658  -7.6631  -7.2821
    -7.2233  -7.2228  -7.1542  -7.1491  -7.1468  -4.0319  -4.0256  -4.0229
    -4.0224  -4.0173  -3.8248  -3.8240  -3.7724  -3.7547  -3.6574  -3.6525
    -3.6519  -3.6476  -3.5554  -3.4511  -3.3667  -3.3260   0.5719   0.7391
     0.7453   0.7617   0.7684   1.0118   1.0780   1.1150   1.2102   1.2134
     1.2156   1.2221   1.2255   1.2373   1.2406   1.2494   1.2794   1.3427
     1.4299   1.4640   1.4726   1.4856   1.4967   1.5507   1.5560   1.5750
     1.5793   1.5821   1.5868   1.6222   1.6373   1.7060   1.7275   1.8034
     1.8074   1.8435   1.9049   1.9108   1.9392   1.9462   1.9622   2.0196
     2.0226   2.0319   2.0711   2.0864   2.0996   2.1661   2.1726   2.2261
     2.2356   2.2368   2.2447   2.2449   2.2980   2.3142   2.3168   2.3299
     2.3518   2.3883   2.3940   2.4078   2.4131   2.4179   2.4290   2.4516
     2.4538   2.4574   2.5744   2.5803   2.5958   2.5978   2.6014   2.6321
     2.7061   2.7262   2.7263   2.7375   2.7467   2.7675   2.7902   2.7933
     2.8289   2.8449   2.8487   2.8697   2.8865   2.8886   2.9112   2.9253
     2.9925   2.9969   3.0051   3.0332   3.0558   3.0766   3.1236   3.1686
     3.2107   3.2290   3.2593   3.2830   3.3532   3.3851   3.4239   3.4482
     3.4621   3.4828   6.0777   6.0816   6.2828   6.3596   6.4714   6.4714
     6.5036   6.5596   6.5979   6.6271   6.6375   6.6485   6.6509   6.6575
     6.6685   6.6707   6.6828   6.8046   6.8590   6.8590   6.8929   6.8953
     6.9045   6.9419   6.9485   6.9487   6.9737   7.0084   7.0215   7.0268
     7.0323   7.0377   7.0576   7.0699   7.1559   7.1691   7.1782   7.2262
     7.2420   7.2536   7.2701   7.2795   7.3058   7.3311   7.4003   7.4164
     7.5328   7.6430   7.6624   7.6866   7.7756   8.9355   9.3796   9.3987
     9.4312   9.4489   9.6279   9.7603   9.7711   9.9578   9.9651   9.9736
     9.9902  10.0082  10.0114  10.0756  10.0862  10.1165  10.2172  10.2470
    10.3605  10.4512  10.4749  10.5332  10.5497  10.6806  10.6808  10.7150
    10.7272  10.7431  10.7819  10.7966  10.8103  10.8114  10.8248

     occupation numbers 
     1.0000   1.0000   1.0000   1.0000   1.0000   1.0000   1.0000   1.0000
     1.0000   1.0000   1.0000   1.0000   1.0000   1.0000   1.0000   1.0000
     1.0000   1.0000   1.0000   1.0000   1.0000   1.0000   1.0000   1.0000
     1.0000   1.0000   1.0000   1.0000   1.0000   1.0000   1.0000   1.0000
     1.0000   1.0000   1.0000   1.0000   1.0000   1.0000   1.0000   1.0000
     1.0000   1.0000   1.0000   1.0000   1.0000   1.0000   1.0000   1.0000
     1.0000   1.0000   1.0000   1.0000   1.0000   1.0000   1.0000   1.0000
     1.0000   1.0000   1.0000   1.0000   1.0000   1.0000   1.0000   1.0000
     1.0000   1.0000   1.0000   1.0000   1.0000   1.0000   1.0000   1.0000
     1.0000   1.0000   1.0000   1.0000   1.0000   1.0000   1.0000   1.0000
     1.0000   1.0000   1.0000   1.0000   1.0000   1.0000   1.0000   1.0000
     1.0000   1.0000   1.0000   1.0000   1.0000   1.0000   1.0000   1.0000
     1.0000   1.0000   1.0000   1.0000   1.0000   1.0000   1.0000   1.0000
     1.0000   1.0000   1.0000   1.0000   1.0000   1.0000   1.0000   1.0000
     1.0000   1.0000   1.0000   1.0000   1.0000   1.0000   1.0000   1.0000
     1.0000   1.0000   1.0000   1.0000   1.0000   1.0000   1.0000   1.0000
     1.0000   1.0000   1.0000   1.0000   1.0000   1.0000   1.0000   1.0000
     1.0000   1.0000   1.0000   1.0000   1.0000   1.0000   1.0000   1.0000
     1.0000   1.0000   1.0000   1.0000   1.0000   1.0000   1.0000   1.0000
     1.0000   1.0000   1.0000   1.0000   1.0000   1.0000   1.0000   1.0000
     1.0000   1.0000   1.0000   1.0000   1.0000   1.0000   1.0000   1.0000
     1.0000   1.0000   1.0000   1.0000   1.0000   1.0000   1.0000   1.0000
     1.0000   1.0000   1.0000   1.0000   1.0000   1.0000   1.0000   1.0000
     1.0000   1.0000   1.0000   1.0000   1.0000   1.0000   1.0000   1.0000
     1.0000   1.0000   1.0000   1.0000   1.0000   1.0000   1.0000   1.0000
     1.0000   1.0000   1.0000   1.0000   1.0000   1.0000   1.0000   1.0000
     1.0000   1.0000   1.0000   1.0000   1.0000   1.0000   1.0000   1.0000
     1.0000   1.0000   1.0000   1.0000   1.0000   1.0000   1.0000   1.0000
     1.0000   1.0000   1.0000   1.0000   1.0000   1.0000   1.0000   1.0000
     1.0000   1.0000   1.0000   1.0000   1.0000   1.0000   1.0000   1.0000
     1.0000   1.0000   1.0000   1.0000   1.0000   1.0000   1.0000   1.0000
     1.0000   1.0000   1.0000   1.0000   1.0000   1.0000   1.0000   1.0000
     1.0000   1.0000   1.0000   1.0000   1.0000   1.0000   1.0000   1.0000
     1.0000   1.0000   1.0000   1.0000   1.0000   1.0000   1.0000   1.0000
     1.0000   1.0000   1.0000   1.0000   1.0000   1.0000   1.0000   1.0000
     1.0000   1.0000   1.0000   1.0000   1.0000   1.0000   1.0000   1.0000
     1.0000   1.0000   1.0000   1.0000   1.0000   1.0000   1.0000   1.0000
     1.0000   1.0000   1.0000   1.0000   1.0000   1.0000   1.0000   1.0000
     1.0000   1.0000   1.0000   1.0000   1.0000   1.0000   1.0000   1.0000
     1.0000   1.0000   1.0000   1.0000   1.0000   1.0000   1.0000   1.0000
     1.0000   1.0000   1.0000   1.0000   1.0000   1.0000   1.0000   1.0000
     1.0000   1.0000   1.0000   1.0000   1.0000   1.0000   1.0000   1.0000
     1.0000   1.0000   1.0000   1.0000   1.0000   1.0000   1.0000   1.0000
     1.0000   1.0000   1.0000   1.0000   1.0000   1.0000   1.0000   1.0000
     1.0000   1.0000   1.0000   1.0000   1.0000   1.0000   1.0000   1.0000
     1.0000   1.0000   1.0000   1.0000   1.0000   1.0000   1.0000   1.0000
     1.0000   1.0000   1.0000   1.0000   1.0000   1.0000   1.0000   1.0000
     1.0000   1.0000   1.0000   1.0000   1.0000   1.0000   1.0000   1.0000
     1.0000   1.0000   1.0000   1.0000   1.0000   1.0000   1.0000   1.0000
     1.0000   1.0000   1.0000   1.0000   1.0000   1.0000   1.0000   1.0000
     1.0000   1.0000   1.0000   1.0000   1.0000   1.0000   1.0000   1.0000
     1.0000   1.0000   1.0000   1.0000   1.0000   1.0000   1.0000   1.0000
     0.9999   0.9998   0.9993   0.9984   0.9866   0.9701   0.9304   0.8898
     0.8602   0.8067   0.0000   0.0000   0.0000   0.0000   0.0000   0.0000
     0.0000   0.0000   0.0000   0.0000   0.0000   0.0000   0.0000   0.0000
     0.0000   0.0000   0.0000   0.0000   0.0000   0.0000   0.0000   0.0000
     0.0000   0.0000   0.0000   0.0000   0.0000   0.0000   0.0000   0.0000
     0.0000   0.0000   0.0000   0.0000   0.0000   0.0000   0.0000   0.0000
     0.0000   0.0000   0.0000   0.0000   0.0000   0.0000   0.0000   0.0000
     0.0000   0.0000   0.0000   0.0000   0.0000   0.0000   0.0000   0.0000
     0.0000   0.0000   0.0000   0.0000   0.0000   0.0000   0.0000   0.0000
     0.0000   0.0000   0.0000   0.0000   0.0000   0.0000   0.0000   0.0000
     0.0000   0.0000   0.0000   0.0000   0.0000   0.0000   0.0000   0.0000
     0.0000   0.0000   0.0000   0.0000   0.0000   0.0000   0.0000

          k = 0.5000-0.2887 0.0000 (170366 PWs)   bands (ev):

   -41.1716 -41.1716 -41.1715 -41.1715 -41.1715 -41.1715 -41.1715 -41.1714
   -41.1714 -41.1714 -41.1714 -41.1713 -41.1704 -41.1704 -41.1704 -41.1704
   -41.1704 -41.1703 -41.1702 -41.1701 -41.1701 -41.1701 -41.1701 -41.1700
   -41.1700 -41.1699 -41.1699 -41.1698 -41.1698 -41.1698 -41.1596 -41.1596
   -41.1596 -41.1596 -41.1595 -41.1595 -41.1595 -41.1594 -41.1594 -41.1594
   -41.1594 -41.1593 -41.1582 -41.1581 -41.1581 -41.1581 -41.1581 -41.1580
   -41.1580 -41.1580 -41.1580 -41.1580 -41.1579 -41.1579 -41.1576 -41.1576
   -41.1576 -41.1576 -41.1576 -41.1575 -41.1450 -41.1449 -41.1449 -41.1448
   -41.1448 -41.1448 -41.1448 -41.1447 -41.1447 -41.1447 -41.1447 -41.1446
   -41.1436 -41.1435 -41.1435 -41.1435 -41.1434 -41.1434 -41.1433 -41.1433
   -41.1433 -41.1433 -41.1432 -41.1431 -41.1431 -41.1430 -41.1430 -41.1430
   -41.1429 -41.1428 -40.9436 -40.9436 -40.9436 -40.9436 -40.9435 -40.9435
   -40.9430 -40.9430 -40.9430 -40.9429 -40.9429 -40.9429 -40.9405 -40.9404
   -40.9404 -40.9404 -40.9404 -40.9403 -40.9401 -40.9401 -40.9400 -40.9400
   -40.9400 -40.9400 -40.9388 -40.9388 -40.9387 -40.9387 -40.9387 -40.9387
   -40.9189 -40.9189 -40.9189 -40.9189 -40.9188 -40.9188 -40.9184 -40.9184
   -40.9184 -40.9183 -40.9183 -40.9183 -40.9125 -40.9125 -40.9125 -40.9125
   -40.9125 -40.9124 -40.9114 -40.9114 -40.9114 -40.9114 -40.9113 -40.9113
   -40.9095 -40.9094 -40.9094 -40.9094 -40.9094 -40.9094 -40.4790 -40.4789
   -40.4789 -40.4789 -40.4789 -40.4788 -40.4788 -40.4788 -40.4788 -40.4788
   -40.4787 -40.4787 -40.4320 -40.4320 -40.4319 -40.4319 -40.4318 -40.4318
   -40.4297 -40.4297 -40.4297 -40.4296 -40.4296 -40.4296 -40.4151 -40.4151
   -40.4150 -40.4150 -40.4150 -40.4150 -13.3458 -13.3422 -13.3418 -13.3403
   -13.3396 -13.3356 -13.3344 -13.3308 -13.3291 -13.3261 -13.3260 -13.3257
   -13.3245 -13.3239 -13.3235 -13.3228 -13.3224 -13.3218 -13.3213 -13.3207
   -13.3205 -13.3205 -13.3196 -13.3185 -13.3184 -13.3183 -13.3182 -13.3178
   -13.3176 -13.3174 -13.3164 -13.3159 -13.3149 -13.3145 -13.3144 -13.3141
   -13.3129 -13.3126 -13.3125 -13.3116 -13.3114 -13.3104 -13.3055 -13.3045
   -13.3040 -13.1297 -13.1296 -13.1295 -13.1294 -13.1155 -13.1155 -13.1150
   -13.1150 -13.1150 -13.1149 -12.9913 -12.9905 -12.9877 -12.9816 -12.9792
   -12.9778 -12.9687 -12.9684 -12.9671 -12.9670 -12.9666 -12.9665 -12.9654
   -12.9650 -12.9639 -12.9623 -12.9623 -12.9620 -12.9619 -12.9617 -12.9613
   -12.9564 -12.9541 -12.9533 -12.9480 -12.9477 -12.9472 -12.9434 -12.9429
   -12.9426  -8.3591  -8.3474  -8.1970  -8.1958  -8.0830  -8.0298  -8.0049
    -7.9990  -7.9976  -7.9971  -7.9901  -7.9817  -7.9781  -7.9225  -7.9148
    -7.9054  -7.8890  -7.8788  -7.8726  -7.8708  -7.8666  -7.8298  -7.7706
    -7.7633  -7.7284  -7.7076  -7.6920  -7.6872  -7.6658  -7.6631  -7.2821
    -7.2233  -7.2228  -7.1543  -7.1490  -7.1468  -4.0320  -4.0255  -4.0230
    -4.0224  -4.0173  -3.8248  -3.8240  -3.7724  -3.7547  -3.6574  -3.6525
    -3.6519  -3.6475  -3.5554  -3.4510  -3.3667  -3.3260   0.5719   0.7391
     0.7452   0.7617   0.7684   1.0117   1.0780   1.1151   1.2102   1.2135
     1.2156   1.2221   1.2255   1.2374   1.2406   1.2495   1.2794   1.3428
     1.4298   1.4640   1.4725   1.4855   1.4967   1.5507   1.5560   1.5750
     1.5794   1.5821   1.5868   1.6222   1.6372   1.7061   1.7277   1.8033
     1.8075   1.8437   1.9048   1.9108   1.9392   1.9464   1.9621   2.0196
     2.0226   2.0319   2.0711   2.0865   2.0997   2.1661   2.1725   2.2260
     2.2356   2.2368   2.2447   2.2448   2.2980   2.3141   2.3167   2.3299
     2.3518   2.3883   2.3940   2.4077   2.4131   2.4179   2.4291   2.4516
     2.4538   2.4574   2.5744   2.5804   2.5958   2.5978   2.6014   2.6322
     2.7060   2.7262   2.7264   2.7375   2.7466   2.7674   2.7902   2.7932
     2.8290   2.8450   2.8487   2.8697   2.8865   2.8886   2.9112   2.9253
     2.9924   2.9969   3.0051   3.0332   3.0558   3.0765   3.1236   3.1686
     3.2107   3.2291   3.2593   3.2830   3.3532   3.3850   3.4239   3.4482
     3.4620   3.4828   6.0777   6.0816   6.2828   6.3595   6.4715   6.4715
     6.5036   6.5597   6.5980   6.6270   6.6375   6.6484   6.6508   6.6574
     6.6685   6.6706   6.6828   6.8049   6.8589   6.8591   6.8933   6.8954
     6.9045   6.9420   6.9484   6.9491   6.9736   7.0085   7.0214   7.0266
     7.0323   7.0378   7.0576   7.0697   7.1561   7.1692   7.1778   7.2262
     7.2418   7.2534   7.2699   7.2798   7.3062   7.3315   7.4001   7.4160
     7.5326   7.6429   7.6622   7.6864   7.7760   8.9354   9.3796   9.3988
     9.4312   9.4490   9.6278   9.7603   9.7711   9.9578   9.9651   9.9737
     9.9903  10.0083  10.0114  10.0756  10.0862  10.1165  10.2173  10.2469
    10.3605  10.4512  10.4749  10.5331  10.5497  10.6806  10.6807  10.7151
    10.7272  10.7430  10.7818  10.7967  10.8102  10.8114  10.8248

     occupation numbers 
     1.0000   1.0000   1.0000   1.0000   1.0000   1.0000   1.0000   1.0000
     1.0000   1.0000   1.0000   1.0000   1.0000   1.0000   1.0000   1.0000
     1.0000   1.0000   1.0000   1.0000   1.0000   1.0000   1.0000   1.0000
     1.0000   1.0000   1.0000   1.0000   1.0000   1.0000   1.0000   1.0000
     1.0000   1.0000   1.0000   1.0000   1.0000   1.0000   1.0000   1.0000
     1.0000   1.0000   1.0000   1.0000   1.0000   1.0000   1.0000   1.0000
     1.0000   1.0000   1.0000   1.0000   1.0000   1.0000   1.0000   1.0000
     1.0000   1.0000   1.0000   1.0000   1.0000   1.0000   1.0000   1.0000
     1.0000   1.0000   1.0000   1.0000   1.0000   1.0000   1.0000   1.0000
     1.0000   1.0000   1.0000   1.0000   1.0000   1.0000   1.0000   1.0000
     1.0000   1.0000   1.0000   1.0000   1.0000   1.0000   1.0000   1.0000
     1.0000   1.0000   1.0000   1.0000   1.0000   1.0000   1.0000   1.0000
     1.0000   1.0000   1.0000   1.0000   1.0000   1.0000   1.0000   1.0000
     1.0000   1.0000   1.0000   1.0000   1.0000   1.0000   1.0000   1.0000
     1.0000   1.0000   1.0000   1.0000   1.0000   1.0000   1.0000   1.0000
     1.0000   1.0000   1.0000   1.0000   1.0000   1.0000   1.0000   1.0000
     1.0000   1.0000   1.0000   1.0000   1.0000   1.0000   1.0000   1.0000
     1.0000   1.0000   1.0000   1.0000   1.0000   1.0000   1.0000   1.0000
     1.0000   1.0000   1.0000   1.0000   1.0000   1.0000   1.0000   1.0000
     1.0000   1.0000   1.0000   1.0000   1.0000   1.0000   1.0000   1.0000
     1.0000   1.0000   1.0000   1.0000   1.0000   1.0000   1.0000   1.0000
     1.0000   1.0000   1.0000   1.0000   1.0000   1.0000   1.0000   1.0000
     1.0000   1.0000   1.0000   1.0000   1.0000   1.0000   1.0000   1.0000
     1.0000   1.0000   1.0000   1.0000   1.0000   1.0000   1.0000   1.0000
     1.0000   1.0000   1.0000   1.0000   1.0000   1.0000   1.0000   1.0000
     1.0000   1.0000   1.0000   1.0000   1.0000   1.0000   1.0000   1.0000
     1.0000   1.0000   1.0000   1.0000   1.0000   1.0000   1.0000   1.0000
     1.0000   1.0000   1.0000   1.0000   1.0000   1.0000   1.0000   1.0000
     1.0000   1.0000   1.0000   1.0000   1.0000   1.0000   1.0000   1.0000
     1.0000   1.0000   1.0000   1.0000   1.0000   1.0000   1.0000   1.0000
     1.0000   1.0000   1.0000   1.0000   1.0000   1.0000   1.0000   1.0000
     1.0000   1.0000   1.0000   1.0000   1.0000   1.0000   1.0000   1.0000
     1.0000   1.0000   1.0000   1.0000   1.0000   1.0000   1.0000   1.0000
     1.0000   1.0000   1.0000   1.0000   1.0000   1.0000   1.0000   1.0000
     1.0000   1.0000   1.0000   1.0000   1.0000   1.0000   1.0000   1.0000
     1.0000   1.0000   1.0000   1.0000   1.0000   1.0000   1.0000   1.0000
     1.0000   1.0000   1.0000   1.0000   1.0000   1.0000   1.0000   1.0000
     1.0000   1.0000   1.0000   1.0000   1.0000   1.0000   1.0000   1.0000
     1.0000   1.0000   1.0000   1.0000   1.0000   1.0000   1.0000   1.0000
     1.0000   1.0000   1.0000   1.0000   1.0000   1.0000   1.0000   1.0000
     1.0000   1.0000   1.0000   1.0000   1.0000   1.0000   1.0000   1.0000
     1.0000   1.0000   1.0000   1.0000   1.0000   1.0000   1.0000   1.0000
     1.0000   1.0000   1.0000   1.0000   1.0000   1.0000   1.0000   1.0000
     1.0000   1.0000   1.0000   1.0000   1.0000   1.0000   1.0000   1.0000
     1.0000   1.0000   1.0000   1.0000   1.0000   1.0000   1.0000   1.0000
     1.0000   1.0000   1.0000   1.0000   1.0000   1.0000   1.0000   1.0000
     1.0000   1.0000   1.0000   1.0000   1.0000   1.0000   1.0000   1.0000
     1.0000   1.0000   1.0000   1.0000   1.0000   1.0000   1.0000   1.0000
     1.0000   1.0000   1.0000   1.0000   1.0000   1.0000   1.0000   1.0000
     1.0000   1.0000   1.0000   1.0000   1.0000   1.0000   1.0000   1.0000
     1.0000   1.0000   1.0000   1.0000   1.0000   1.0000   1.0000   1.0000
     1.0000   1.0000   1.0000   1.0000   1.0000   1.0000   1.0000   1.0000
     0.9999   0.9998   0.9993   0.9984   0.9866   0.9701   0.9303   0.8898
     0.8603   0.8066   0.0000   0.0000   0.0000   0.0000   0.0000   0.0000
     0.0000   0.0000   0.0000   0.0000   0.0000   0.0000   0.0000   0.0000
     0.0000   0.0000   0.0000   0.0000   0.0000   0.0000   0.0000   0.0000
     0.0000   0.0000   0.0000   0.0000   0.0000   0.0000   0.0000   0.0000
     0.0000   0.0000   0.0000   0.0000   0.0000   0.0000   0.0000   0.0000
     0.0000   0.0000   0.0000   0.0000   0.0000   0.0000   0.0000   0.0000
     0.0000   0.0000   0.0000   0.0000   0.0000   0.0000   0.0000   0.0000
     0.0000   0.0000   0.0000   0.0000   0.0000   0.0000   0.0000   0.0000
     0.0000   0.0000   0.0000   0.0000   0.0000   0.0000   0.0000   0.0000
     0.0000   0.0000   0.0000   0.0000   0.0000   0.0000   0.0000   0.0000
     0.0000   0.0000   0.0000   0.0000   0.0000   0.0000   0.0000

          k =-0.5000-0.2887 0.0000 (170366 PWs)   bands (ev):

   -41.1716 -41.1716 -41.1715 -41.1715 -41.1715 -41.1715 -41.1715 -41.1714
   -41.1714 -41.1714 -41.1714 -41.1713 -41.1704 -41.1704 -41.1704 -41.1704
   -41.1704 -41.1703 -41.1702 -41.1701 -41.1701 -41.1701 -41.1701 -41.1700
   -41.1700 -41.1699 -41.1699 -41.1698 -41.1698 -41.1698 -41.1596 -41.1596
   -41.1596 -41.1596 -41.1595 -41.1595 -41.1595 -41.1594 -41.1594 -41.1594
   -41.1594 -41.1593 -41.1582 -41.1581 -41.1581 -41.1581 -41.1581 -41.1580
   -41.1580 -41.1580 -41.1580 -41.1580 -41.1579 -41.1579 -41.1576 -41.1576
   -41.1576 -41.1576 -41.1576 -41.1575 -41.1450 -41.1449 -41.1449 -41.1448
   -41.1448 -41.1448 -41.1448 -41.1447 -41.1447 -41.1447 -41.1447 -41.1446
   -41.1436 -41.1435 -41.1435 -41.1435 -41.1434 -41.1434 -41.1433 -41.1433
   -41.1433 -41.1433 -41.1432 -41.1431 -41.1431 -41.1430 -41.1430 -41.1430
   -41.1429 -41.1428 -40.9436 -40.9436 -40.9436 -40.9436 -40.9435 -40.9435
   -40.9430 -40.9430 -40.9430 -40.9429 -40.9429 -40.9429 -40.9405 -40.9404
   -40.9404 -40.9404 -40.9404 -40.9403 -40.9401 -40.9401 -40.9400 -40.9400
   -40.9400 -40.9400 -40.9388 -40.9388 -40.9387 -40.9387 -40.9387 -40.9387
   -40.9189 -40.9189 -40.9189 -40.9189 -40.9188 -40.9188 -40.9184 -40.9184
   -40.9184 -40.9184 -40.9183 -40.9183 -40.9125 -40.9125 -40.9125 -40.9125
   -40.9125 -40.9124 -40.9114 -40.9114 -40.9114 -40.9114 -40.9113 -40.9113
   -40.9095 -40.9094 -40.9094 -40.9094 -40.9094 -40.9094 -40.4790 -40.4789
   -40.4789 -40.4789 -40.4789 -40.4788 -40.4788 -40.4788 -40.4788 -40.4788
   -40.4787 -40.4787 -40.4320 -40.4320 -40.4319 -40.4319 -40.4318 -40.4318
   -40.4297 -40.4297 -40.4297 -40.4296 -40.4296 -40.4296 -40.4151 -40.4151
   -40.4150 -40.4150 -40.4150 -40.4150 -13.3458 -13.3422 -13.3418 -13.3403
   -13.3396 -13.3356 -13.3344 -13.3308 -13.3291 -13.3261 -13.3260 -13.3257
   -13.3245 -13.3239 -13.3235 -13.3228 -13.3224 -13.3218 -13.3213 -13.3207
   -13.3205 -13.3205 -13.3196 -13.3185 -13.3184 -13.3183 -13.3182 -13.3178
   -13.3176 -13.3174 -13.3164 -13.3159 -13.3149 -13.3145 -13.3144 -13.3141
   -13.3129 -13.3126 -13.3125 -13.3116 -13.3114 -13.3104 -13.3055 -13.3045
   -13.3040 -13.1298 -13.1296 -13.1295 -13.1294 -13.1155 -13.1155 -13.1150
   -13.1150 -13.1150 -13.1149 -12.9913 -12.9905 -12.9877 -12.9816 -12.9792
   -12.9778 -12.9687 -12.9685 -12.9671 -12.9670 -12.9666 -12.9665 -12.9654
   -12.9650 -12.9639 -12.9623 -12.9623 -12.9620 -12.9619 -12.9617 -12.9613
   -12.9564 -12.9541 -12.9533 -12.9480 -12.9477 -12.9472 -12.9434 -12.9429
   -12.9426  -8.3591  -8.3474  -8.1970  -8.1958  -8.0830  -8.0297  -8.0049
    -7.9990  -7.9977  -7.9971  -7.9901  -7.9817  -7.9781  -7.9225  -7.9148
    -7.9054  -7.8890  -7.8787  -7.8726  -7.8708  -7.8667  -7.8298  -7.7706
    -7.7634  -7.7284  -7.7076  -7.6920  -7.6873  -7.6658  -7.6631  -7.2821
    -7.2233  -7.2228  -7.1542  -7.1491  -7.1468  -4.0319  -4.0255  -4.0229
    -4.0224  -4.0173  -3.8248  -3.8240  -3.7724  -3.7547  -3.6574  -3.6525
    -3.6519  -3.6476  -3.5554  -3.4510  -3.3667  -3.3260   0.5719   0.7391
     0.7453   0.7617   0.7684   1.0118   1.0780   1.1150   1.2102   1.2134
     1.2156   1.2221   1.2255   1.2373   1.2406   1.2494   1.2794   1.3427
     1.4299   1.4640   1.4726   1.4856   1.4967   1.5507   1.5560   1.5750
     1.5793   1.5821   1.5868   1.6222   1.6373   1.7060   1.7276   1.8034
     1.8074   1.8435   1.9049   1.9108   1.9392   1.9462   1.9622   2.0196
     2.0226   2.0319   2.0711   2.0864   2.0997   2.1661   2.1726   2.2261
     2.2356   2.2368   2.2447   2.2449   2.2980   2.3142   2.3168   2.3299
     2.3518   2.3883   2.3940   2.4078   2.4131   2.4179   2.4290   2.4516
     2.4538   2.4574   2.5744   2.5803   2.5958   2.5978   2.6014   2.6322
     2.7061   2.7262   2.7263   2.7375   2.7467   2.7675   2.7902   2.7932
     2.8290   2.8449   2.8487   2.8697   2.8865   2.8886   2.9112   2.9253
     2.9924   2.9969   3.0051   3.0332   3.0558   3.0766   3.1236   3.1686
     3.2107   3.2290   3.2593   3.2830   3.3532   3.3850   3.4239   3.4482
     3.4621   3.4828   6.0777   6.0816   6.2828   6.3596   6.4714   6.4714
     6.5036   6.5596   6.5979   6.6271   6.6375   6.6485   6.6509   6.6575
     6.6685   6.6707   6.6828   6.8047   6.8589   6.8590   6.8930   6.8954
     6.9045   6.9419   6.9485   6.9488   6.9737   7.0084   7.0215   7.0268
     7.0323   7.0377   7.0576   7.0699   7.1560   7.1691   7.1781   7.2262
     7.2419   7.2536   7.2701   7.2796   7.3059   7.3312   7.4002   7.4163
     7.5327   7.6430   7.6624   7.6865   7.7756   8.9355   9.3796   9.3987
     9.4312   9.4489   9.6279   9.7603   9.7711   9.9578   9.9651   9.9736
     9.9902  10.0082  10.0114  10.0756  10.0862  10.1165  10.2172  10.2470
    10.3605  10.4512  10.4749  10.5332  10.5497  10.6806  10.6808  10.7150
    10.7272  10.7431  10.7819  10.7966  10.8103  10.8114  10.8248

     occupation numbers 
     1.0000   1.0000   1.0000   1.0000   1.0000   1.0000   1.0000   1.0000
     1.0000   1.0000   1.0000   1.0000   1.0000   1.0000   1.0000   1.0000
     1.0000   1.0000   1.0000   1.0000   1.0000   1.0000   1.0000   1.0000
     1.0000   1.0000   1.0000   1.0000   1.0000   1.0000   1.0000   1.0000
     1.0000   1.0000   1.0000   1.0000   1.0000   1.0000   1.0000   1.0000
     1.0000   1.0000   1.0000   1.0000   1.0000   1.0000   1.0000   1.0000
     1.0000   1.0000   1.0000   1.0000   1.0000   1.0000   1.0000   1.0000
     1.0000   1.0000   1.0000   1.0000   1.0000   1.0000   1.0000   1.0000
     1.0000   1.0000   1.0000   1.0000   1.0000   1.0000   1.0000   1.0000
     1.0000   1.0000   1.0000   1.0000   1.0000   1.0000   1.0000   1.0000
     1.0000   1.0000   1.0000   1.0000   1.0000   1.0000   1.0000   1.0000
     1.0000   1.0000   1.0000   1.0000   1.0000   1.0000   1.0000   1.0000
     1.0000   1.0000   1.0000   1.0000   1.0000   1.0000   1.0000   1.0000
     1.0000   1.0000   1.0000   1.0000   1.0000   1.0000   1.0000   1.0000
     1.0000   1.0000   1.0000   1.0000   1.0000   1.0000   1.0000   1.0000
     1.0000   1.0000   1.0000   1.0000   1.0000   1.0000   1.0000   1.0000
     1.0000   1.0000   1.0000   1.0000   1.0000   1.0000   1.0000   1.0000
     1.0000   1.0000   1.0000   1.0000   1.0000   1.0000   1.0000   1.0000
     1.0000   1.0000   1.0000   1.0000   1.0000   1.0000   1.0000   1.0000
     1.0000   1.0000   1.0000   1.0000   1.0000   1.0000   1.0000   1.0000
     1.0000   1.0000   1.0000   1.0000   1.0000   1.0000   1.0000   1.0000
     1.0000   1.0000   1.0000   1.0000   1.0000   1.0000   1.0000   1.0000
     1.0000   1.0000   1.0000   1.0000   1.0000   1.0000   1.0000   1.0000
     1.0000   1.0000   1.0000   1.0000   1.0000   1.0000   1.0000   1.0000
     1.0000   1.0000   1.0000   1.0000   1.0000   1.0000   1.0000   1.0000
     1.0000   1.0000   1.0000   1.0000   1.0000   1.0000   1.0000   1.0000
     1.0000   1.0000   1.0000   1.0000   1.0000   1.0000   1.0000   1.0000
     1.0000   1.0000   1.0000   1.0000   1.0000   1.0000   1.0000   1.0000
     1.0000   1.0000   1.0000   1.0000   1.0000   1.0000   1.0000   1.0000
     1.0000   1.0000   1.0000   1.0000   1.0000   1.0000   1.0000   1.0000
     1.0000   1.0000   1.0000   1.0000   1.0000   1.0000   1.0000   1.0000
     1.0000   1.0000   1.0000   1.0000   1.0000   1.0000   1.0000   1.0000
     1.0000   1.0000   1.0000   1.0000   1.0000   1.0000   1.0000   1.0000
     1.0000   1.0000   1.0000   1.0000   1.0000   1.0000   1.0000   1.0000
     1.0000   1.0000   1.0000   1.0000   1.0000   1.0000   1.0000   1.0000
     1.0000   1.0000   1.0000   1.0000   1.0000   1.0000   1.0000   1.0000
     1.0000   1.0000   1.0000   1.0000   1.0000   1.0000   1.0000   1.0000
     1.0000   1.0000   1.0000   1.0000   1.0000   1.0000   1.0000   1.0000
     1.0000   1.0000   1.0000   1.0000   1.0000   1.0000   1.0000   1.0000
     1.0000   1.0000   1.0000   1.0000   1.0000   1.0000   1.0000   1.0000
     1.0000   1.0000   1.0000   1.0000   1.0000   1.0000   1.0000   1.0000
     1.0000   1.0000   1.0000   1.0000   1.0000   1.0000   1.0000   1.0000
     1.0000   1.0000   1.0000   1.0000   1.0000   1.0000   1.0000   1.0000
     1.0000   1.0000   1.0000   1.0000   1.0000   1.0000   1.0000   1.0000
     1.0000   1.0000   1.0000   1.0000   1.0000   1.0000   1.0000   1.0000
     1.0000   1.0000   1.0000   1.0000   1.0000   1.0000   1.0000   1.0000
     1.0000   1.0000   1.0000   1.0000   1.0000   1.0000   1.0000   1.0000
     1.0000   1.0000   1.0000   1.0000   1.0000   1.0000   1.0000   1.0000
     1.0000   1.0000   1.0000   1.0000   1.0000   1.0000   1.0000   1.0000
     1.0000   1.0000   1.0000   1.0000   1.0000   1.0000   1.0000   1.0000
     1.0000   1.0000   1.0000   1.0000   1.0000   1.0000   1.0000   1.0000
     1.0000   1.0000   1.0000   1.0000   1.0000   1.0000   1.0000   1.0000
     0.9999   0.9998   0.9993   0.9984   0.9866   0.9701   0.9303   0.8898
[...]
     atom   41 type  2   force =     0.00016799    0.00000140    0.00542139
     atom   42 type  2   force =    -0.00266965    0.00131381    0.00391436
     atom   43 type  2   force =    -0.00005383    0.00003096    0.00543410
     atom   44 type  2   force =    -0.00010609   -0.00316244    0.00391883
     atom   45 type  2   force =    -0.00012952    0.00007628    0.00543195
     atom   46 type  2   force =    -0.00070260   -0.00049702    0.00440437
     atom   47 type  2   force =     0.00005318   -0.00012805    0.00527611
     atom   48 type  2   force =    -0.00009508    0.00054691    0.00440200
     atom   49 type  2   force =     0.00005451    0.00000516    0.00529597
     atom   50 type  2   force =     0.00027308    0.00021933    0.00504092
     atom   51 type  2   force =    -0.00004900   -0.00002787    0.00543397
     atom   52 type  2   force =     0.00053436   -0.00051299    0.00439451
     atom   53 type  2   force =    -0.00016591   -0.00006038    0.00528834
     The Hubbard contrib.    to forces
     atom    1 type  1   force =     0.00000000    0.00000000    0.00000000
     atom    2 type  1   force =     0.00000000    0.00000000    0.00000000
     atom    3 type  1   force =     0.00000000    0.00000000    0.00000000
     atom    4 type  1   force =     0.00000000    0.00000000    0.00000000
     atom    5 type  1   force =     0.00000000    0.00000000    0.00000000
     atom    6 type  1   force =     0.00000000    0.00000000    0.00000000
     atom    7 type  1   force =     0.00000000    0.00000000    0.00000000
     atom    8 type  1   force =     0.00000000    0.00000000    0.00000000
     atom    9 type  1   force =     0.00000000    0.00000000    0.00000000
     atom   10 type  1   force =     0.00000000    0.00000000    0.00000000
     atom   11 type  1   force =     0.00000000    0.00000000    0.00000000
     atom   12 type  1   force =     0.00000000    0.00000000    0.00000000
     atom   13 type  1   force =     0.00000000    0.00000000    0.00000000
     atom   14 type  1   force =     0.00000000    0.00000000    0.00000000
     atom   15 type  1   force =     0.00000000    0.00000000    0.00000000
     atom   16 type  1   force =     0.00000000    0.00000000    0.00000000
     atom   17 type  1   force =     0.00000000    0.00000000    0.00000000
     atom   18 type  2   force =     0.00000000    0.00000000    0.00000000
     atom   19 type  2   force =     0.00000000    0.00000000    0.00000000
     atom   20 type  2   force =     0.00000000    0.00000000    0.00000000
     atom   21 type  2   force =     0.00000000    0.00000000    0.00000000
     atom   22 type  2   force =     0.00000000    0.00000000    0.00000000
     atom   23 type  2   force =     0.00000000    0.00000000    0.00000000
     atom   24 type  2   force =     0.00000000    0.00000000    0.00000000
     atom   25 type  2   force =     0.00000000    0.00000000    0.00000000
     atom   26 type  2   force =     0.00000000    0.00000000    0.00000000
     atom   27 type  2   force =     0.00000000    0.00000000    0.00000000
     atom   28 type  2   force =     0.00000000    0.00000000    0.00000000
     atom   29 type  2   force =     0.00000000    0.00000000    0.00000000
     atom   30 type  2   force =     0.00000000    0.00000000    0.00000000
     atom   31 type  2   force =     0.00000000    0.00000000    0.00000000
     atom   32 type  2   force =     0.00000000    0.00000000    0.00000000
     atom   33 type  2   force =     0.00000000    0.00000000    0.00000000
     atom   34 type  2   force =     0.00000000    0.00000000    0.00000000
     atom   35 type  2   force =     0.00000000    0.00000000    0.00000000
     atom   36 type  2   force =     0.00000000    0.00000000    0.00000000
     atom   37 type  2   force =     0.00000000    0.00000000    0.00000000
     atom   38 type  2   force =     0.00000000    0.00000000    0.00000000
     atom   39 type  2   force =     0.00000000    0.00000000    0.00000000
     atom   40 type  2   force =     0.00000000    0.00000000    0.00000000
     atom   41 type  2   force =     0.00000000    0.00000000    0.00000000
     atom   42 type  2   force =     0.00000000    0.00000000    0.00000000
     atom   43 type  2   force =     0.00000000    0.00000000    0.00000000
     atom   44 type  2   force =     0.00000000    0.00000000    0.00000000
     atom   45 type  2   force =     0.00000000    0.00000000    0.00000000
     atom   46 type  2   force =     0.00000000    0.00000000    0.00000000
     atom   47 type  2   force =     0.00000000    0.00000000    0.00000000
     atom   48 type  2   force =     0.00000000    0.00000000    0.00000000
     atom   49 type  2   force =     0.00000000    0.00000000    0.00000000
     atom   50 type  2   force =     0.00000000    0.00000000    0.00000000
     atom   51 type  2   force =     0.00000000    0.00000000    0.00000000
     atom   52 type  2   force =     0.00000000    0.00000000    0.00000000
     atom   53 type  2   force =     0.00000000    0.00000000    0.00000000
     The SCF correction term to forces
     atom    1 type  1   force =     0.00000021    0.00000020    0.00000006
     atom    2 type  1   force =    -0.00000074    0.00000079    0.00000102
     atom    3 type  1   force =    -0.00000143    0.00000222   -0.00000027
     atom    4 type  1   force =     0.00000097   -0.00000034   -0.00000117
     atom    5 type  1   force =     0.00000181   -0.00000200    0.00000045
     atom    6 type  1   force =     0.00000100   -0.00000059   -0.00000128
     atom    7 type  1   force =     0.00000255   -0.00000028    0.00000049
     atom    8 type  1   force =    -0.00000070   -0.00000122   -0.00000029
     atom    9 type  1   force =     0.00000083    0.00000151    0.00000023
     atom   10 type  1   force =    -0.00000183    0.00000105   -0.00000084
     atom   11 type  1   force =    -0.00000072    0.00000033   -0.00000104
     atom   12 type  1   force =    -0.00000108    0.00000026    0.00000125
     atom   13 type  1   force =    -0.00000281    0.00000032   -0.00000033
     atom   14 type  1   force =     0.00000156   -0.00000111    0.00000067
     atom   15 type  1   force =     0.00000056   -0.00000056    0.00000124
     atom   16 type  1   force =     0.00000076    0.00000148   -0.00000000
     atom   17 type  1   force =    -0.00000109   -0.00000163    0.00000013
     atom   18 type  2   force =     0.00000038   -0.00000217   -0.00000163
     atom   19 type  2   force =     0.00000175    0.00000003   -0.00000184
     atom   20 type  2   force =    -0.00000292    0.00000158   -0.00000250
     atom   21 type  2   force =    -0.00000056    0.00000012   -0.00000065
     atom   22 type  2   force =     0.00000116   -0.00000020    0.00000030
     atom   23 type  2   force =     0.00000011    0.00000041   -0.00000158
     atom   24 type  2   force =     0.00000232   -0.00000112    0.00000062
     atom   25 type  2   force =     0.00000001    0.00000047   -0.00000223
     atom   26 type  2   force =     0.00000241    0.00000098   -0.00000131
     atom   27 type  2   force =     0.00000094   -0.00000167   -0.00000208
     atom   28 type  2   force =    -0.00000123    0.00000228    0.00000006
     atom   29 type  2   force =    -0.00000158    0.00000095   -0.00000219
     atom   30 type  2   force =    -0.00000277    0.00000018   -0.00000021
     atom   31 type  2   force =    -0.00000177    0.00000123   -0.00000201
     atom   32 type  2   force =     0.00000056   -0.00000098    0.00000047
     atom   33 type  2   force =    -0.00000059   -0.00000075   -0.00000151
     atom   34 type  2   force =     0.00000006   -0.00000029    0.00000100
     atom   35 type  2   force =     0.00000106   -0.00000094   -0.00000285
     atom   36 type  2   force =    -0.00000111    0.00000135    0.00000146
     atom   37 type  2   force =    -0.00000208   -0.00000084    0.00000198
     atom   38 type  2   force =     0.00000012   -0.00000012    0.00000226
     atom   39 type  2   force =    -0.00000214    0.00000126   -0.00000030
     atom   40 type  2   force =     0.00000187   -0.00000069    0.00000167
     atom   41 type  2   force =     0.00000137   -0.00000217    0.00000062
     atom   42 type  2   force =     0.00000091   -0.00000059    0.00000017
     atom   43 type  2   force =     0.00000292   -0.00000152    0.00000319
     atom   44 type  2   force =    -0.00000169   -0.00000008    0.00000154
     atom   45 type  2   force =    -0.00000009    0.00000258    0.00000182
     atom   46 type  2   force =    -0.00000009   -0.00000027    0.00000132
     atom   47 type  2   force =    -0.00000079    0.00000019   -0.00000011
     atom   48 type  2   force =     0.00000015    0.00000016    0.00000126
     atom   49 type  2   force =    -0.00000076    0.00000083    0.00000007
     atom   50 type  2   force =     0.00000159   -0.00000100    0.00000150
     atom   51 type  2   force =     0.00000240   -0.00000008    0.00000051
     atom   52 type  2   force =    -0.00000155    0.00000085    0.00000246
     atom   53 type  2   force =    -0.00000043   -0.00000005   -0.00000056

     Total force =     0.004056     Total SCF correction =     0.000017


     Computing stress (Cartesian axis) and pressure



     -----------------------------------------------
     Non-local corr. energy    =      25.64478325 Ry
     -----------------------------------------------

          total   stress  (Ry/bohr**3)                   (kbar)     P=        7.05
   0.00004462   0.00000008  -0.00000024            6.56        0.01       -0.04
   0.00000008   0.00004470   0.00000014            0.01        6.58        0.02
  -0.00000024   0.00000014   0.00005449           -0.04        0.02        8.02

     kinetic stress (kbar)  14627.69     -0.01     -0.02
                               -0.01  14627.68      0.01
                               -0.02      0.01  14640.52

     local   stress (kbar)  -7476.99     -5.39      3.42
                               -5.39  -7483.09     -1.93
                                3.42     -1.93    802.93

     nonloc. stress (kbar)   -922.80      0.01     -0.02
                                0.01   -922.79      0.01
                               -0.02      0.01   -926.13

     hartree stress (kbar)  11928.46      2.26     -1.34
                                2.26  11931.02      0.75
                               -1.34      0.75   8195.15

     exc-cor stress (kbar)   6859.81      0.01     -0.00
                                0.01   6859.81      0.00
                               -0.00      0.00   6858.81

     corecor stress (kbar) -11161.90     -0.00      0.00
                               -0.00 -11161.91     -0.00
                                0.00     -0.00 -11161.88

     ewald   stress (kbar) -13930.23      3.14     -2.07
                                3.14 -13926.68      1.17
                               -2.07      1.17 -18485.10

     hubbard stress (kbar)      0.00      0.00      0.00
                                0.00      0.00      0.00
                                0.00      0.00      0.00

     DFT-D   stress (kbar)      0.00      0.00      0.00
                                0.00      0.00      0.00
                                0.00      0.00      0.00

     XDM     stress (kbar)      0.00      0.00      0.00
                                0.00      0.00      0.00
                                0.00      0.00      0.00

     dft-nl  stress (kbar)     82.53     -0.00      0.00
                               -0.00     82.53     -0.00
                                0.00     -0.00     83.72

     TS-vdW  stress (kbar)      0.00      0.00      0.00
                                0.00      0.00      0.00
                                0.00      0.00      0.00

     MDB     stress (kbar)      0.00      0.00      0.00
                                0.00      0.00      0.00
                                0.00      0.00      0.00

     3D-RISM stress (kbar)      0.00      0.00      0.00
                                0.00      0.00      0.00
                                0.00      0.00      0.00

     Energy error            =      4.8E-05 Ry
     Gradient error          =      8.5E-04 Ry/Bohr

     bfgs converged in  13 scf cycles and  12 bfgs steps
     (criteria: energy <  1.0E-04 Ry, force <  1.0E-03 Ry/Bohr)

     End of BFGS Geometry Optimization

     Final energy             =  -35528.5832030217 Ry

     File ./PbI2.bfgs deleted, as requested
Begin final coordinates

ATOMIC_POSITIONS (angstrom)
Pb            2.3567729470        4.0816198328        7.3776722590
Pb            0.0589936273        8.0591069569       14.7544855776
Pb            0.0003917461        8.1610471855        7.3762048079
Pb           -2.4128931782       12.3414435418       14.7547078477
Pb           -2.3537610813       12.2405565580        7.3775716823
Pb            6.9503175804        4.0803910165       14.7562357525
Pb            7.0678251603        4.0806694469        7.3790936454
Pb            4.6526109643        8.0580164691       14.7553564910
Pb            4.7114416970        8.1600190450        7.3776548559
Pb            2.3554109186       12.2405603345       14.8195548310
Pb            2.3550291792       12.2409288401        7.3718331232
Pb           11.8948765698        4.0808410568       14.7560120205
Pb           11.7778693819        4.0816726560        7.3777124075
Pb            9.4233875866        8.1598664416       14.6911339022
Pb            9.4237982414        8.1597837467        7.3834352829
Pb            7.1257460543       12.3416147890       14.7553544578
Pb            7.0673548748       12.2405720181        7.3776400361
I             2.3592035261        1.3656019106        5.4942791151
I             2.3534191466        1.3233510518       12.9111231052
I             0.0034261002        5.4372179661        5.4930815750
I            -0.0306971791        5.4519765169       12.9105577292
I            -2.3531822012        9.5238623655        5.4976370329
I            -2.3738667312        9.5078314198       12.8793514660
I             7.0682885973        1.3646825220        5.5034769512
I             7.0606850276        1.3692836920       12.8536064917
I             4.7130248961        5.4367891634        5.4935792067
I             4.7381796309        5.4526017150       12.9113796884
I             2.3574797783        9.5233110355        5.5026463147
I             2.3568459435        9.5154799924       12.8536516686
I            11.7744782080        1.3618515051        5.5040507888
I            11.7809245712        1.3665206454       12.8547529125
I             9.4190915426        5.4349315244        5.4982149868
I             9.4194211461        5.4547731662       12.8805797231
I             7.0642832138        9.5192282637        5.4988470300
I             7.0817599012        9.5060439576       12.8806404668
I            -0.0303223246        2.6995801906        1.8442067129
I             0.0033416485        2.7256817116        9.2610131925
I            -2.3441679637        6.7991935751        1.9016682991
I            -2.3520067505        6.8034974633        9.2518081527
I            -4.7065363004       10.8855814840        1.9005374907
I            -4.7074247374       10.8776828726        9.2512425872
I             4.7372461174        2.6992062883        1.8447504358
I             4.7074864088        2.7212351955        9.2622378837
I             2.3533539499        6.8295164510        1.8439909531
I             2.3521767246        6.7998314055        9.2617299163
I             0.0145921893       10.8846736404        1.8746742140
I            -0.0024678479       10.8744727142        9.2570609383
I             9.4213114264        2.6978800247        1.8758881505
I             9.4248479031        2.7238163169        9.2576309248
I             7.0628199876        6.7986107869        1.9016314783
I             7.0691999550        6.8031006214        9.2526607914
I             4.6919422566       10.8858525697        1.8746240983
I             4.7121232863       10.8773210230        9.2564206373
End final coordinates



     Writing all to output data dir ./PbI2.save/
 
     init_run     :      9.52s CPU      9.98s WALL (       1 calls)
     electrons    :  18368.47s CPU  18601.22s WALL (      13 calls)
     update_pot   :     33.17s CPU     33.47s WALL (      12 calls)
     forces       :     68.55s CPU     70.21s WALL (      13 calls)
     stress       :    926.40s CPU    935.32s WALL (      13 calls)

     Called by init_run:
     wfcinit      :      6.66s CPU      6.90s WALL (       1 calls)
     wfcinit:atom :      0.04s CPU      0.08s WALL (       2 calls)
     wfcinit:wfcr :      6.49s CPU      6.62s WALL (       2 calls)
     potinit      :      1.43s CPU      1.52s WALL (       1 calls)
     hinit0       :      0.39s CPU      0.40s WALL (       1 calls)

     Called by electrons:
     c_bands      :  17603.54s CPU  17816.55s WALL (     223 calls)
     sum_band     :    556.99s CPU    568.01s WALL (     223 calls)
     v_of_rho     :    134.37s CPU    136.97s WALL (     226 calls)
     v_h          :      1.86s CPU      1.89s WALL (     226 calls)
     v_xc         :    146.79s CPU    149.86s WALL (     252 calls)
     newd         :     36.75s CPU     38.89s WALL (     226 calls)
     PAW_pot      :     43.78s CPU     44.44s WALL (     238 calls)
     mix_rho      :      6.09s CPU      6.42s WALL (     223 calls)
     vdW_kernel   :      0.24s CPU      0.25s WALL (       1 calls)

     Called by c_bands:
     init_us_2    :     39.35s CPU     40.27s WALL (     970 calls)
     init_us_2:cp :     39.33s CPU     40.27s WALL (     970 calls)
     cegterg      :  16777.80s CPU  16981.04s WALL (     446 calls)

     Called by sum_band:
     sum_band:wei :      0.47s CPU      0.49s WALL (     223 calls)
     sum_band:loo :    480.59s CPU    486.51s WALL (     223 calls)
     sum_band:buf :     12.38s CPU     13.02s WALL (     446 calls)
     sum_band:ini :     18.15s CPU     18.69s WALL (     446 calls)
     sum_band:cal :    192.09s CPU    193.74s WALL (     470 calls)
     sum_band:bec :      2.80s CPU      2.85s WALL (     470 calls)
     addusdens    :     47.64s CPU     50.64s WALL (     223 calls)
     addusd:skk   :      1.13s CPU      1.16s WALL (     446 calls)
     addusd:dgemm :     27.87s CPU     30.57s WALL (     446 calls)
     addusd:qvan2 :     16.20s CPU     16.38s WALL (     446 calls)

     Called by *egterg:
     cdiaghg      :  11156.99s CPU  11221.74s WALL (    6371 calls)
     cegterg:over :   1145.04s CPU   1171.87s WALL (    5969 calls)
     cegterg:upda :    710.56s CPU    728.77s WALL (    5969 calls)
     cegterg:last :    259.99s CPU    262.28s WALL (     450 calls)
     h_psi        :   2564.98s CPU   2613.24s WALL (    6417 calls)
     s_psi        :    547.26s CPU    552.01s WALL (    6417 calls)
     g_psi        :      3.27s CPU      3.31s WALL (    5969 calls)

     Called by h_psi:
     h_psi:calbec :    596.77s CPU    602.68s WALL (    6417 calls)
     vloc_psi     :   1397.49s CPU   1415.63s WALL (    6417 calls)
     add_vuspsi   :    547.52s CPU    553.03s WALL (    6417 calls)

     General routines
     calbec       :    855.82s CPU    864.02s WALL (    7017 calls)
     fft          :     90.19s CPU     91.30s WALL (   16431 calls)
     ffts         :      2.79s CPU      2.82s WALL (     449 calls)
     fftw         :   1543.11s CPU   1562.38s WALL ( 1491194 calls)
     interpolate  :      1.86s CPU      1.90s WALL (     226 calls)
 
     Parallel routines

     PAW routines
     PAW_pot      :     43.78s CPU     44.44s WALL (     238 calls)
 
     PWSCF        :      5h23m CPU      5h27m WALL

 
   This run was terminated on:  23:10:40   9Feb2024            

=------------------------------------------------------------------------------=
   JOB DONE.
=------------------------------------------------------------------------------=
