
     Program PWSCF v.7.1 starts on 24Mar2024 at 21:23:23 

     This program is part of the open-source Quantum ESPRESSO suite
     for quantum simulation of materials; please cite
         "P. Giannozzi et al., J. Phys.:Condens. Matter 21 395502 (2009);
         "P. Giannozzi et al., J. Phys.:Condens. Matter 29 465901 (2017);
         "P. Giannozzi et al., J. Chem. Phys. 152 154105 (2020);
          URL http://www.quantum-espresso.org", 
     in publications or presentations arising from this work. More details at
     http://www.quantum-espresso.org/quote

     Parallel version (MPI & OpenMP), running on     128 processor cores
     Number of MPI processes:               128
     Threads/MPI process:                     1

     MPI processes distributed on     1 nodes
     2016415 MiB available memory on the printing compute node when the environment starts
 
     Reading input from espresso.pwi
Warning: card &CELL ignored
Warning: card    CELL_DYNAMICS    = 'BFGS' ignored
Warning: card / ignored

     Current dimensions of program PWSCF are:
     Max number of different atomic species (ntypx) = 10
     Max number of k-points (npk) =  40000
     Max angular momentum in pseudopotentials (lmaxx) =  4
     file Pb.pbe-dn-kjpaw_psl.1.0.0.UPF: wavefunction(s)  6S 6P 5D renormalized
     file I.pbe-dn-kjpaw_psl.1.0.0.UPF: wavefunction(s)  5S 5P renormalized

     **************************************************************************
     Initializing libbeef V0.1.2 with the BEEF-vdW functional.
     Citation: Wellendorff et al., PRB 85, 235149 (2012).
     **************************************************************************


     IMPORTANT: XC functional enforced from input :
     Exchange-correlation= BEEF-VDW
                           (   1   4  43  14   2   0   0)
     Any further DFT definition will be discarded
     Please, verify this is what you really want

 
     R & G space division:  proc/nbgrp/npool/nimage =     128
     Subspace diagonalization in iterative solution of the eigenvalue problem:
     a serial algorithm will be used

 
     Parallelization info
     --------------------
     sticks:   dense  smooth     PW     G-vecs:    dense   smooth      PW
     Min         238     190     47                39674    28384    3543
     Max         239     191     48                39685    28397    3554
     Sum       30589   24439   6121              5079105  3634441  454335
 
     Using Slab Decomposition
 


     bravais-lattice index     =            4
     lattice parameter (alat)  =      35.6120  a.u.
     unit-cell volume          =   45937.3577 (a.u.)^3
     number of atoms/cell      =          144
     number of atomic types    =            2
     number of electrons       =      2298.00
     number of Kohn-Sham states=         1379
     kinetic-energy cutoff     =      70.0000  Ry
     charge density cutoff     =     350.0000  Ry
     scf convergence threshold =      1.0E-07
     mixing beta               =       0.7000
     number of iterations used =            8  plain     mixing
     energy convergence thresh.=      1.0E-04
     force convergence thresh. =      1.0E-03
     Exchange-correlation= BEEF-VDW
                           (   1   4  43  14   2   0   0)
     nstep                     =           50


     celldm(1)=  35.612033  celldm(2)=   0.000000  celldm(3)=   1.174479
     celldm(4)=   0.000000  celldm(5)=   0.000000  celldm(6)=   0.000000

     crystal axes: (cart. coord. in units of alat)
               a(1) = (   1.000000   0.000000   0.000000 )  
               a(2) = (  -0.500000   0.866025   0.000000 )  
               a(3) = (   0.000000   0.000000   1.174479 )  

     reciprocal axes: (cart. coord. in units 2 pi/alat)
               b(1) = (  1.000000  0.577350 -0.000000 )  
               b(2) = (  0.000000  1.154701  0.000000 )  
               b(3) = (  0.000000 -0.000000  0.851442 )  


     PseudoPot. # 1 for Pb read from file:
     /trace/group/acmegroup/atimmins/packages/espresso/pseudo/psl_1.0.0/pslibrary.1.0.0/pbe/PSEUDOPOTENTIALS/Pb.pbe-dn-kjpaw_psl.1.0.0.UPF
     MD5 check sum: 39ab5b8a6bbd56b7735ad9f188aac93a
     Pseudo is Projector augmented-wave + core cor, Zval = 14.0
     Generated using 'atomic' code by A. Dal Corso  v.7.1
     Shape of augmentation charge: PSQ
     Using radial grid of 1281 points,  6 beta functions with: 
                l(1) =   0
                l(2) =   0
                l(3) =   1
                l(4) =   1
                l(5) =   2
                l(6) =   2
     Q(r) pseudized with 0 coefficients 


     PseudoPot. # 2 for I  read from file:
     /trace/group/acmegroup/atimmins/packages/espresso/pseudo/psl_1.0.0/pslibrary.1.0.0/pbe/PSEUDOPOTENTIALS/I.pbe-dn-kjpaw_psl.1.0.0.UPF
     MD5 check sum: bfa8781bc1224d19af3f3980e3fab11e
     Pseudo is Projector augmented-wave + core cor, Zval = 17.0
     Generated using 'atomic' code by A. Dal Corso  v.7.1
     Shape of augmentation charge: PSQ
     Using radial grid of 1247 points,  6 beta functions with: 
                l(1) =   0
                l(2) =   0
                l(3) =   1
                l(4) =   1
                l(5) =   2
                l(6) =   2
     Q(r) pseudized with 0 coefficients 


     atomic species   valence    mass     pseudopotential
        Pb            14.00   207.20000     Pb( 1.00)
        I             17.00   126.90447     I ( 1.00)

     No symmetry found


                                    s                        frac. trans.

      isym =  1     identity                                     

 cryst.   s( 1) = (     1          0          0      )
                  (     0          1          0      )
                  (     0          0          1      )

 cart.    s( 1) = (  1.0000000  0.0000000  0.0000000 )
                  (  0.0000000  1.0000000  0.0000000 )
                  (  0.0000000  0.0000000  1.0000000 )


     point group C_1 (1)    
     there are  1 classes
     the character table:

       E    
A      1.00

     the symmetry operations in each class and the name of the first element:

     E        1
          identity                                               

   Cartesian axes

     site n.     atom                  positions (alat units)
         1           Pb  tau(   1) = (   0.1250136   0.2164827   1.1744753  )
         2           Pb  tau(   2) = (   0.1250034   0.2164918   0.3914896  )
         3           Pb  tau(   3) = (   0.1250085   0.2164873   0.7829825  )
         4           Pb  tau(   4) = (   0.0000128   0.4329881   1.1744712  )
         5           Pb  tau(   5) = (   0.0000026   0.4329971   0.3914855  )
         6           Pb  tau(   6) = (   0.0000077   0.4329926   0.7829784  )
         7           Pb  tau(   7) = (  -0.1249881   0.6494934   1.1744671  )
         8           Pb  tau(   8) = (  -0.1249983   0.6495025   0.3914814  )
         9           Pb  tau(   9) = (  -0.1249932   0.6494980   0.7829742  )
        10           Pb  tau(  10) = (  -0.2499889   0.8659988   1.1744630  )
        11           Pb  tau(  11) = (  -0.2499991   0.8660078   0.3914773  )
        12           Pb  tau(  12) = (  -0.2499940   0.8660033   0.7829701  )
        13           Pb  tau(  13) = (   0.3750136   0.2164818   1.1744786  )
        14           Pb  tau(  14) = (   0.3750034   0.2164908   0.3914929  )
        15           Pb  tau(  15) = (   0.3750085   0.2164863   0.7829857  )
        16           Pb  tau(  16) = (   0.2500128   0.4329871   1.1744745  )
        17           Pb  tau(  17) = (   0.2500026   0.4329962   0.3914888  )
        18           Pb  tau(  18) = (   0.2500077   0.4329916   0.7829816  )
        19           Pb  tau(  19) = (   0.1250119   0.6494925   1.1744703  )
        20           Pb  tau(  20) = (   0.1250017   0.6495015   0.3914847  )
        21           Pb  tau(  21) = (   0.1250068   0.6494970   0.7829775  )
        22           Pb  tau(  22) = (   0.0000111   0.8659978   1.1744662  )
        23           Pb  tau(  23) = (   0.0000009   0.8660069   0.3914805  )
        24           Pb  tau(  24) = (   0.0000060   0.8660024   0.7829734  )
        25           Pb  tau(  25) = (   0.6250136   0.2164808   1.1744818  )
        26           Pb  tau(  26) = (   0.6250034   0.2164898   0.3914962  )
        27           Pb  tau(  27) = (   0.6250085   0.2164853   0.7829890  )
        28           Pb  tau(  28) = (   0.5000128   0.4329862   1.1744777  )
        29           Pb  tau(  29) = (   0.5000026   0.4329952   0.3914920  )
        30           Pb  tau(  30) = (   0.5000077   0.4329907   0.7829849  )
        31           Pb  tau(  31) = (   0.3750119   0.6494915   1.1744736  )
        32           Pb  tau(  32) = (   0.3750017   0.6495006   0.3914879  )
        33           Pb  tau(  33) = (   0.3750068   0.6494960   0.7829808  )
        34           Pb  tau(  34) = (   0.2500111   0.8659969   1.1744695  )
        35           Pb  tau(  35) = (   0.2500009   0.8660059   0.3914838  )
        36           Pb  tau(  36) = (   0.2500060   0.8660014   0.7829766  )
        37           Pb  tau(  37) = (   0.8750136   0.2164798   1.1744851  )
        38           Pb  tau(  38) = (   0.8750034   0.2164889   0.3914994  )
        39           Pb  tau(  39) = (   0.8750085   0.2164844   0.7829923  )
        40           Pb  tau(  40) = (   0.7500128   0.4329852   1.1744810  )
        41           Pb  tau(  41) = (   0.7500026   0.4329942   0.3914953  )
        42           Pb  tau(  42) = (   0.7500077   0.4329897   0.7829881  )
        43           Pb  tau(  43) = (   0.6250119   0.6494906   1.1744769  )
        44           Pb  tau(  44) = (   0.6250017   0.6494996   0.3914912  )
        45           Pb  tau(  45) = (   0.6250068   0.6494951   0.7829840  )
        46           Pb  tau(  46) = (   0.5000111   0.8659959   1.1744727  )
        47           Pb  tau(  47) = (   0.5000009   0.8660050   0.3914870  )
        48           Pb  tau(  48) = (   0.5000060   0.8660004   0.7829799  )
        49           I   tau(  49) = (   0.1250105   0.0721505   0.6824253  )
        50           I   tau(  50) = (   0.1250156   0.0721459   1.0739182  )
        51           I   tau(  51) = (   0.0000045   0.2886603   0.2909283  )
        52           I   tau(  52) = (   0.0000096   0.2886558   0.6824212  )
        53           I   tau(  53) = (   0.0000147   0.2886513   1.0739140  )
        54           I   tau(  54) = (  -0.1249963   0.5051657   0.2909242  )
        55           I   tau(  55) = (  -0.1249912   0.5051612   0.6824171  )
        56           I   tau(  56) = (  -0.1249861   0.5051566   1.0739099  )
        57           I   tau(  57) = (  -0.2499971   0.7216710   0.2909201  )
        58           I   tau(  58) = (  -0.2499920   0.7216665   0.6824129  )
        59           I   tau(  59) = (  -0.2499869   0.7216620   1.0739058  )
        60           I   tau(  60) = (   0.3750054   0.0721540   0.2909357  )
        61           I   tau(  61) = (   0.3750105   0.0721495   0.6824286  )
        62           I   tau(  62) = (   0.3750156   0.0721450   1.0739214  )
        63           I   tau(  63) = (   0.2500045   0.2886594   0.2909316  )
        64           I   tau(  64) = (   0.2500096   0.2886548   0.6824244  )
        65           I   tau(  65) = (   0.2500147   0.2886503   1.0739173  )
        66           I   tau(  66) = (   0.1250037   0.5051647   0.2909275  )
        67           I   tau(  67) = (   0.1250088   0.5051602   0.6824203  )
        68           I   tau(  68) = (   0.1250139   0.5051557   1.0739132  )
        69           I   tau(  69) = (   0.0000029   0.7216701   0.2909233  )
        70           I   tau(  70) = (   0.0000080   0.7216656   0.6824162  )
        71           I   tau(  71) = (   0.0000131   0.7216610   1.0739090  )
        72           I   tau(  72) = (   0.6250054   0.0721530   0.2909390  )
        73           I   tau(  73) = (   0.6250105   0.0721485   0.6824318  )
        74           I   tau(  74) = (   0.6250156   0.0721440   1.0739247  )
        75           I   tau(  75) = (   0.5000045   0.2886584   0.2909348  )
        76           I   tau(  76) = (   0.5000096   0.2886539   0.6824277  )
        77           I   tau(  77) = (   0.5000147   0.2886494   1.0739205  )
        78           I   tau(  78) = (   0.3750037   0.5051638   0.2909307  )
        79           I   tau(  79) = (   0.3750088   0.5051592   0.6824236  )
        80           I   tau(  80) = (   0.3750139   0.5051547   1.0739164  )
        81           I   tau(  81) = (   0.2500029   0.7216691   0.2909266  )
        82           I   tau(  82) = (   0.2500080   0.7216646   0.6824194  )
        83           I   tau(  83) = (   0.2500131   0.7216601   1.0739123  )
        84           I   tau(  84) = (   0.8750054   0.0721521   0.2909422  )
        85           I   tau(  85) = (   0.8750105   0.0721476   0.6824351  )
        86           I   tau(  86) = (   0.8750156   0.0721430   1.0739279  )
        87           I   tau(  87) = (   0.7500045   0.2886574   0.2909381  )
        88           I   tau(  88) = (   0.7500096   0.2886529   0.6824310  )
        89           I   tau(  89) = (   0.7500147   0.2886484   1.0739238  )
        90           I   tau(  90) = (   0.6250037   0.5051628   0.2909340  )
        91           I   tau(  91) = (   0.6250088   0.5051583   0.6824268  )
        92           I   tau(  92) = (   0.6250139   0.5051538   1.0739197  )
        93           I   tau(  93) = (   0.5000029   0.7216681   0.2909299  )
        94           I   tau(  94) = (   0.5000080   0.7216636   0.6824227  )
        95           I   tau(  95) = (   0.5000131   0.7216591   1.0739156  )
        96           I   tau(  96) = (  -0.0000017   0.1443297   0.1005555  )
        97           I   tau(  97) = (   0.0000034   0.1443252   0.4920483  )
        98           I   tau(  98) = (   0.0000085   0.1443207   0.8835412  )
        99           I   tau(  99) = (  -0.1250025   0.3608351   0.1005514  )
       100           I   tau( 100) = (  -0.1249974   0.3608306   0.4920442  )
       101           I   tau( 101) = (  -0.1249923   0.3608260   0.8835371  )
       102           I   tau( 102) = (  -0.2500034   0.5773404   0.1005472  )
       103           I   tau( 103) = (  -0.2499983   0.5773359   0.4920401  )
       104           I   tau( 104) = (  -0.2499932   0.5773314   0.8835329  )
       105           I   tau( 105) = (  -0.3750042   0.7938458   0.1005431  )
       106           I   tau( 106) = (  -0.3749991   0.7938413   0.4920360  )
       107           I   tau( 107) = (  -0.3749940   0.7938368   0.8835288  )
       108           I   tau( 108) = (   0.2499983   0.1443288   0.1005587  )
       109           I   tau( 109) = (   0.2500034   0.1443242   0.4920516  )
       110           I   tau( 110) = (   0.2500085   0.1443197   0.8835444  )
       111           I   tau( 111) = (   0.1249975   0.3608341   0.1005546  )
       112           I   tau( 112) = (   0.1250026   0.3608296   0.4920475  )
       113           I   tau( 113) = (   0.1250077   0.3608251   0.8835403  )
       114           I   tau( 114) = (  -0.0000034   0.5773395   0.1005505  )
       115           I   tau( 115) = (   0.0000017   0.5773350   0.4920433  )
       116           I   tau( 116) = (   0.0000068   0.5773304   0.8835362  )
       117           I   tau( 117) = (  -0.1250042   0.7938448   0.1005464  )
       118           I   tau( 118) = (  -0.1249991   0.7938403   0.4920392  )
       119           I   tau( 119) = (  -0.1249940   0.7938358   0.8835321  )
       120           I   tau( 120) = (   0.4999983   0.1443278   0.1005620  )
       121           I   tau( 121) = (   0.5000034   0.1443233   0.4920548  )
       122           I   tau( 122) = (   0.5000085   0.1443188   0.8835477  )
       123           I   tau( 123) = (   0.3749975   0.3608332   0.1005579  )
       124           I   tau( 124) = (   0.3750026   0.3608286   0.4920507  )
       125           I   tau( 125) = (   0.3750077   0.3608241   0.8835436  )
       126           I   tau( 126) = (   0.2499966   0.5773385   0.1005537  )
       127           I   tau( 127) = (   0.2500017   0.5773340   0.4920466  )
       128           I   tau( 128) = (   0.2500068   0.5773295   0.8835394  )
       129           I   tau( 129) = (   0.1249958   0.7938439   0.1005496  )
       130           I   tau( 130) = (   0.1250009   0.7938394   0.4920425  )
       131           I   tau( 131) = (   0.1250060   0.7938348   0.8835353  )
       132           I   tau( 132) = (   0.7499983   0.1443268   0.1005653  )
       133           I   tau( 133) = (   0.7500034   0.1443223   0.4920581  )
       134           I   tau( 134) = (   0.7500085   0.1443178   0.8835509  )
       135           I   tau( 135) = (   0.6249975   0.3608322   0.1005611  )
       136           I   tau( 136) = (   0.6250026   0.3608277   0.4920540  )
       137           I   tau( 137) = (   0.6250077   0.3608232   0.8835468  )
       138           I   tau( 138) = (   0.4999966   0.5773376   0.1005570  )
       139           I   tau( 139) = (   0.5000017   0.5773330   0.4920499  )
       140           I   tau( 140) = (   0.5000068   0.5773285   0.8835427  )
       141           I   tau( 141) = (   0.3749958   0.7938429   0.1005529  )
       142           I   tau( 142) = (   0.3750009   0.7938384   0.4920457  )
       143           I   tau( 143) = (   0.3750060   0.7938339   0.8835386  )
       144           Pb  tau( 144) = (   0.1250054   0.0721550   0.2909325  )

   Crystallographic axes

     site n.     atom                  positions (cryst. coord.)
         1           Pb  tau(   1) = (  0.2500000  0.2499727  0.9999973  )
         2           Pb  tau(   2) = (  0.2499950  0.2499832  0.3333306  )
         3           Pb  tau(   3) = (  0.2499975  0.2499780  0.6666639  )
         4           Pb  tau(   4) = (  0.2499986  0.4999716  0.9999938  )
         5           Pb  tau(   5) = (  0.2499936  0.4999820  0.3333271  )
         6           Pb  tau(   6) = (  0.2499961  0.4999768  0.6666604  )
         7           Pb  tau(   7) = (  0.2499972  0.7499704  0.9999902  )
         8           Pb  tau(   8) = (  0.2499922  0.7499809  0.3333236  )
         9           Pb  tau(   9) = (  0.2499947  0.7499757  0.6666569  )
        10           Pb  tau(  10) = (  0.2499957  0.9999693  0.9999867  )
        11           Pb  tau(  11) = (  0.2499908  0.9999797  0.3333201  )
        12           Pb  tau(  12) = (  0.2499932  0.9999745  0.6666534  )
        13           Pb  tau(  13) = (  0.4999994  0.2499716  1.0000000  )
        14           Pb  tau(  14) = (  0.4999944  0.2499821  0.3333334  )
        15           Pb  tau(  15) = (  0.4999969  0.2499768  0.6666667  )
        16           Pb  tau(  16) = (  0.4999980  0.4999705  0.9999965  )
        17           Pb  tau(  17) = (  0.4999930  0.4999809  0.3333299  )
        18           Pb  tau(  18) = (  0.4999955  0.4999757  0.6666632  )
        19           Pb  tau(  19) = (  0.4999966  0.7499693  0.9999930  )
        20           Pb  tau(  20) = (  0.4999916  0.7499798  0.3333264  )
        21           Pb  tau(  21) = (  0.4999941  0.7499745  0.6666597  )
        22           Pb  tau(  22) = (  0.4999952  0.9999682  0.9999895  )
        23           Pb  tau(  23) = (  0.4999902  0.9999786  0.3333228  )
        24           Pb  tau(  24) = (  0.4999927  0.9999734  0.6666562  )
        25           Pb  tau(  25) = (  0.7499989  0.2499705  1.0000028  )
        26           Pb  tau(  26) = (  0.7499939  0.2499809  0.3333362  )
        27           Pb  tau(  27) = (  0.7499964  0.2499757  0.6666695  )
        28           Pb  tau(  28) = (  0.7499975  0.4999694  0.9999993  )
        29           Pb  tau(  29) = (  0.7499925  0.4999798  0.3333326  )
        30           Pb  tau(  30) = (  0.7499950  0.4999746  0.6666660  )
        31           Pb  tau(  31) = (  0.7499960  0.7499682  0.9999958  )
        32           Pb  tau(  32) = (  0.7499910  0.7499786  0.3333291  )
        33           Pb  tau(  33) = (  0.7499935  0.7499734  0.6666625  )
        34           Pb  tau(  34) = (  0.7499946  0.9999671  0.9999923  )
        35           Pb  tau(  35) = (  0.7499896  0.9999775  0.3333256  )
        36           Pb  tau(  36) = (  0.7499921  0.9999723  0.6666590  )
        37           Pb  tau(  37) = (  0.9999983  0.2499694  1.0000056  )
        38           Pb  tau(  38) = (  0.9999933  0.2499798  0.3333389  )
        39           Pb  tau(  39) = (  0.9999958  0.2499746  0.6666723  )
        40           Pb  tau(  40) = (  0.9999969  0.4999682  1.0000021  )
        41           Pb  tau(  41) = (  0.9999919  0.4999787  0.3333354  )
        42           Pb  tau(  42) = (  0.9999944  0.4999735  0.6666687  )
        43           Pb  tau(  43) = (  0.9999955  0.7499671  0.9999986  )
        44           Pb  tau(  44) = (  0.9999905  0.7499775  0.3333319  )
        45           Pb  tau(  45) = (  0.9999930  0.7499723  0.6666652  )
        46           Pb  tau(  46) = (  0.9999941  0.9999659  0.9999951  )
        47           Pb  tau(  47) = (  0.9999891  0.9999764  0.3333284  )
        48           Pb  tau(  48) = (  0.9999916  0.9999712  0.6666617  )
        49           I   tau(  49) = (  0.1666666  0.0833122  0.5810454  )
        50           I   tau(  50) = (  0.1666691  0.0833070  0.9143787  )
        51           I   tau(  51) = (  0.1666626  0.3333162  0.2477085  )
        52           I   tau(  52) = (  0.1666651  0.3333110  0.5810418  )
        53           I   tau(  53) = (  0.1666676  0.3333058  0.9143752  )
        54           I   tau(  54) = (  0.1666612  0.5833151  0.2477050  )
        55           I   tau(  55) = (  0.1666637  0.5833099  0.5810383  )
        56           I   tau(  56) = (  0.1666662  0.5833047  0.9143717  )
        57           I   tau(  57) = (  0.1666598  0.8333139  0.2477015  )
        58           I   tau(  58) = (  0.1666623  0.8333087  0.5810348  )
        59           I   tau(  59) = (  0.1666648  0.8333035  0.9143682  )
        60           I   tau(  60) = (  0.4166635  0.0833163  0.2477148  )
        61           I   tau(  61) = (  0.4166660  0.0833111  0.5810481  )
        62           I   tau(  62) = (  0.4166685  0.0833058  0.9143815  )
        63           I   tau(  63) = (  0.4166621  0.3333151  0.2477113  )
        64           I   tau(  64) = (  0.4166646  0.3333099  0.5810446  )
        65           I   tau(  65) = (  0.4166671  0.3333047  0.9143780  )
        66           I   tau(  66) = (  0.4166607  0.5833140  0.2477078  )
        67           I   tau(  67) = (  0.4166632  0.5833088  0.5810411  )
        68           I   tau(  68) = (  0.4166657  0.5833035  0.9143744  )
        69           I   tau(  69) = (  0.4166593  0.8333128  0.2477043  )
        70           I   tau(  70) = (  0.4166618  0.8333076  0.5810376  )
        71           I   tau(  71) = (  0.4166643  0.8333024  0.9143709  )
        72           I   tau(  72) = (  0.6666629  0.0833152  0.2477176  )
        73           I   tau(  73) = (  0.6666654  0.0833099  0.5810509  )
        74           I   tau(  74) = (  0.6666679  0.0833047  0.9143842  )
        75           I   tau(  75) = (  0.6666615  0.3333140  0.2477141  )
        76           I   tau(  76) = (  0.6666640  0.3333088  0.5810474  )
        77           I   tau(  77) = (  0.6666665  0.3333036  0.9143807  )
        78           I   tau(  78) = (  0.6666601  0.5833129  0.2477106  )
        79           I   tau(  79) = (  0.6666626  0.5833076  0.5810439  )
        80           I   tau(  80) = (  0.6666651  0.5833024  0.9143772  )
        81           I   tau(  81) = (  0.6666587  0.8333117  0.2477070  )
        82           I   tau(  82) = (  0.6666612  0.8333065  0.5810404  )
        83           I   tau(  83) = (  0.6666637  0.8333013  0.9143737  )
        84           I   tau(  84) = (  0.9166624  0.0833141  0.2477203  )
        85           I   tau(  85) = (  0.9166649  0.0833088  0.5810537  )
        86           I   tau(  86) = (  0.9166674  0.0833036  0.9143870  )
        87           I   tau(  87) = (  0.9166610  0.3333129  0.2477168  )
        88           I   tau(  88) = (  0.9166635  0.3333077  0.5810502  )
        89           I   tau(  89) = (  0.9166660  0.3333025  0.9143835  )
        90           I   tau(  90) = (  0.9166596  0.5833118  0.2477133  )
        91           I   tau(  91) = (  0.9166621  0.5833065  0.5810467  )
        92           I   tau(  92) = (  0.9166646  0.5833013  0.9143800  )
        93           I   tau(  93) = (  0.9166582  0.8333106  0.2477098  )
        94           I   tau(  94) = (  0.9166607  0.8333054  0.5810431  )
        95           I   tau(  95) = (  0.9166632  0.8333002  0.9143765  )
        96           I   tau(  96) = (  0.0833271  0.1666576  0.0856171  )
        97           I   tau(  97) = (  0.0833296  0.1666524  0.4189505  )
        98           I   tau(  98) = (  0.0833321  0.1666472  0.7522838  )
        99           I   tau(  99) = (  0.0833257  0.4166565  0.0856136  )
       100           I   tau( 100) = (  0.0833282  0.4166513  0.4189470  )
       101           I   tau( 101) = (  0.0833307  0.4166460  0.7522803  )
       102           I   tau( 102) = (  0.0833243  0.6666553  0.0856101  )
       103           I   tau( 103) = (  0.0833268  0.6666501  0.4189434  )
       104           I   tau( 104) = (  0.0833293  0.6666449  0.7522768  )
       105           I   tau( 105) = (  0.0833229  0.9166542  0.0856066  )
       106           I   tau( 106) = (  0.0833254  0.9166489  0.4189399  )
       107           I   tau( 107) = (  0.0833279  0.9166437  0.7522733  )
       108           I   tau( 108) = (  0.3333265  0.1666565  0.0856199  )
       109           I   tau( 109) = (  0.3333290  0.1666513  0.4189532  )
       110           I   tau( 110) = (  0.3333315  0.1666461  0.7522866  )
       111           I   tau( 111) = (  0.3333251  0.4166554  0.0856164  )
       112           I   tau( 112) = (  0.3333276  0.4166501  0.4189497  )
       113           I   tau( 113) = (  0.3333301  0.4166449  0.7522831  )
       114           I   tau( 114) = (  0.3333237  0.6666542  0.0856129  )
       115           I   tau( 115) = (  0.3333262  0.6666490  0.4189462  )
       116           I   tau( 116) = (  0.3333287  0.6666438  0.7522795  )
       117           I   tau( 117) = (  0.3333223  0.9166531  0.0856094  )
       118           I   tau( 118) = (  0.3333248  0.9166478  0.4189427  )
       119           I   tau( 119) = (  0.3333273  0.9166426  0.7522760  )
       120           I   tau( 120) = (  0.5833260  0.1666554  0.0856227  )
       121           I   tau( 121) = (  0.5833285  0.1666502  0.4189560  )
       122           I   tau( 122) = (  0.5833310  0.1666450  0.7522893  )
       123           I   tau( 123) = (  0.5833246  0.4166542  0.0856192  )
       124           I   tau( 124) = (  0.5833271  0.4166490  0.4189525  )
       125           I   tau( 125) = (  0.5833296  0.4166438  0.7522858  )
       126           I   tau( 126) = (  0.5833232  0.6666531  0.0856157  )
       127           I   tau( 127) = (  0.5833257  0.6666479  0.4189490  )
       128           I   tau( 128) = (  0.5833282  0.6666427  0.7522823  )
       129           I   tau( 129) = (  0.5833218  0.9166519  0.0856121  )
       130           I   tau( 130) = (  0.5833243  0.9166467  0.4189455  )
       131           I   tau( 131) = (  0.5833268  0.9166415  0.7522788  )
       132           I   tau( 132) = (  0.8333254  0.1666543  0.0856254  )
       133           I   tau( 133) = (  0.8333279  0.1666491  0.4189588  )
       134           I   tau( 134) = (  0.8333304  0.1666438  0.7522921  )
       135           I   tau( 135) = (  0.8333240  0.4166531  0.0856219  )
       136           I   tau( 136) = (  0.8333265  0.4166479  0.4189553  )
       137           I   tau( 137) = (  0.8333290  0.4166427  0.7522886  )
       138           I   tau( 138) = (  0.8333226  0.6666520  0.0856184  )
       139           I   tau( 139) = (  0.8333251  0.6666468  0.4189518  )
       140           I   tau( 140) = (  0.8333276  0.6666415  0.7522851  )
       141           I   tau( 141) = (  0.8333212  0.9166508  0.0856149  )
       142           I   tau( 142) = (  0.8333237  0.9166456  0.4189482  )
       143           I   tau( 143) = (  0.8333262  0.9166404  0.7522816  )
       144           Pb  tau( 144) = (  0.1666641  0.0833174  0.2477120  )

     number of k points=     1  Gaussian smearing, width (Ry)=  0.0100
                       cart. coord. in units 2pi/alat
        k(    1) = (   0.0000000   0.0000000   0.0000000), wk =   2.0000000

                       cryst. coord.
        k(    1) = (   0.0000000   0.0000000   0.0000000), wk =   2.0000000

     Dense  grid:  5079105 G-vectors     FFT dimensions: ( 216, 216, 250)

     Smooth grid:  3634441 G-vectors     FFT dimensions: ( 192, 192, 225)

     Dynamical RAM for                 wfc:      74.68 MB

     Dynamical RAM for     wfc (w. buffer):      74.68 MB

     Dynamical RAM for           str. fact:       1.21 MB

     Dynamical RAM for           local pot:       0.00 MB

     Dynamical RAM for          nlocal pot:     140.37 MB

     Dynamical RAM for                qrad:       3.00 MB

     Dynamical RAM for          rho,v,vnew:       3.95 MB

     Dynamical RAM for               rhoin:       1.32 MB

     Dynamical RAM for            rho*nmix:       9.69 MB

     Dynamical RAM for           G-vectors:       2.49 MB

     Dynamical RAM for          h,s,v(r/c):    1392.80 MB

     Dynamical RAM for          <psi|beta>:      54.54 MB

     Dynamical RAM for                 psi:     298.71 MB

     Dynamical RAM for                hpsi:     298.71 MB

     Dynamical RAM for                spsi:     298.71 MB

     Dynamical RAM for      wfcinit/wfcrot:     192.89 MB

     Dynamical RAM for           addusdens:     170.12 MB

     Dynamical RAM for          addusforce:     284.61 MB

     Dynamical RAM for         addusstress:     121.69 MB

     Estimated static dynamical RAM per process >     232.39 MB

     Estimated max dynamical RAM per process >       2.52 GB

     Estimated total dynamical RAM >     323.19 GB

     Atomic positions and unit cell read from directory:
     ./PbI2.save/
     Atomic positions from file used, from input discarded
 

     Check: negative core charge=   -0.000001

     The initial density is read from file :
     ./PbI2.save/charge-density


     starting charge    2299.0000, renormalised to    2298.0000


     %%%%%%%%%%%%%%%%%%%%%%%%%%%%%%%%%%%%%%%%%%%%%%%%%%%%%%%%%%%%%%%%%%%%%%%%
     %                                                                      %
     % You are using vdW-DF, which was implemented by the Thonhauser group. %
     % Please cite the following two papers that made this development      %
     % possible and the two reviews that describe the various versions:     %
     %                                                                      %
     %   T. Thonhauser et al., PRL 115, 136402 (2015).                      %
     %   T. Thonhauser et al., PRB 76, 125112 (2007).                       %
     %   K. Berland et al., Rep. Prog. Phys. 78, 066501 (2015).             %
     %   D.C. Langreth et al., J. Phys.: Condens. Matter 21, 084203 (2009). %
     %                                                                      %
     % If you are calculating stress with vdW-DF, please also cite:         %
     %                                                                      %
     %   R. Sabatini et al., J. Phys.: Condens. Matter 24, 424209 (2012).   %
     %                                                                      %
     %%%%%%%%%%%%%%%%%%%%%%%%%%%%%%%%%%%%%%%%%%%%%%%%%%%%%%%%%%%%%%%%%%%%%%%%

     %%%%%%%%%%%%%%%%%%%%%%%%%%%%%%%%%%%%%%%%%%%%%%%%%%%%%%%%%%%%%%%%%%%%%%%%
     %                                                                      %
     %  vdW-DF NEWS:                                                        %
     %                                                                      %
     %  * vdW-DF3 is now available. DOI: 10.1021/acs.jctc.0c00471           %
     %    use with input_dft = 'vdW-DF3-opt1' or 'vdW-DF3-opt2'             %
     %                                                                      %
     %  * Unscreened and range-separated vdW-DF hybrid functionals          %
     %    DOI: 10.1063/1.4986522 and 10.1088/1361-648X/ac2ad2               %
     %    use with input_dft = 'vdW-DF-cx0' (etc) and 'vdW-DF-ahcx'         %
     %                                                                      %
     %%%%%%%%%%%%%%%%%%%%%%%%%%%%%%%%%%%%%%%%%%%%%%%%%%%%%%%%%%%%%%%%%%%%%%%%


     Carrying out vdW-DF run using the following parameters:
     Nqs    =  20  Npoints =  1024  r_max =  100.000
     q_mesh =  0.00001000  0.04494208  0.09755937  0.15916263
               0.23128650  0.31572767  0.41458969  0.53033537
               0.66584808  0.82450364  1.01025438  1.22772762
               1.48234092  1.78043706  2.12944203  2.53805004
               3.01644009  3.57652955  4.23227104  5.00000000


     -----------------------------------------------
     Non-local corr. energy    =      68.71486784 Ry
     -----------------------------------------------

     Wavefunctions not found or not readable, recomputing them from scratch
     Starting wfcs are 1296 randomized atomic wfcs +   83 random wfcs
     Checking if some PAW data can be deallocated... 
       PAW data deallocated on   95 nodes for type:  1
       PAW data deallocated on   33 nodes for type:  2

     total cpu time spent up to now is       36.1 secs

     Self-consistent Calculation

     iteration #  1     ecut=    70.00 Ry     beta= 0.70
     Davidson diagonalization with overlap

---- Real-time Memory Report at c_bands before calling an iterative solver
           780 MiB given to the printing process from OS
             0 MiB allocation reported by mallinfo(arena+hblkhd)
       1981343 MiB available memory on the node where the printing process lives
------------------
     ethr =  1.00E-05,  avg # of iterations = 25.0


     -----------------------------------------------
     Non-local corr. energy    =      68.78287441 Ry
     -----------------------------------------------


     total cpu time spent up to now is     1146.4 secs

     total energy              =  -97467.93356416 Ry
     estimated scf accuracy    <       0.08310720 Ry

     iteration #  2     ecut=    70.00 Ry     beta= 0.70
     Davidson diagonalization with overlap

---- Real-time Memory Report at c_bands before calling an iterative solver
          2435 MiB given to the printing process from OS
             0 MiB allocation reported by mallinfo(arena+hblkhd)
       1957005 MiB available memory on the node where the printing process lives
------------------
     ethr =  3.62E-06,  avg # of iterations = 13.0


     -----------------------------------------------
     Non-local corr. energy    =      68.77213439 Ry
     -----------------------------------------------


     total cpu time spent up to now is     1781.4 secs

     total energy              =  -97467.79934484 Ry
     estimated scf accuracy    <       1.02847418 Ry

     iteration #  3     ecut=    70.00 Ry     beta= 0.70
     Davidson diagonalization with overlap

---- Real-time Memory Report at c_bands before calling an iterative solver
          2435 MiB given to the printing process from OS
             0 MiB allocation reported by mallinfo(arena+hblkhd)
       1956649 MiB available memory on the node where the printing process lives
------------------
     ethr =  3.62E-06,  avg # of iterations = 16.0


     -----------------------------------------------
     Non-local corr. energy    =      68.76159766 Ry
     -----------------------------------------------


     total cpu time spent up to now is     2566.1 secs

     total energy              =  -97467.97226498 Ry
     estimated scf accuracy    <       0.06382332 Ry

     iteration #  4     ecut=    70.00 Ry     beta= 0.70
     Davidson diagonalization with overlap

---- Real-time Memory Report at c_bands before calling an iterative solver
          2435 MiB given to the printing process from OS
             0 MiB allocation reported by mallinfo(arena+hblkhd)
       1956359 MiB available memory on the node where the printing process lives
------------------
     ethr =  2.78E-06,  avg # of iterations = 18.0


     -----------------------------------------------
     Non-local corr. energy    =      68.75210148 Ry
     -----------------------------------------------


     total cpu time spent up to now is     3139.4 secs

     total energy              =  -97467.97767836 Ry
     estimated scf accuracy    <       0.01905312 Ry

     iteration #  5     ecut=    70.00 Ry     beta= 0.70
     Davidson diagonalization with overlap

---- Real-time Memory Report at c_bands before calling an iterative solver
          2435 MiB given to the printing process from OS
             0 MiB allocation reported by mallinfo(arena+hblkhd)
       1956038 MiB available memory on the node where the printing process lives
------------------
     ethr =  8.29E-07,  avg # of iterations = 14.0


     -----------------------------------------------
     Non-local corr. energy    =      68.74787146 Ry
     -----------------------------------------------


     total cpu time spent up to now is     3574.4 secs

     total energy              =  -97467.97887834 Ry
     estimated scf accuracy    <       0.00504678 Ry

     iteration #  6     ecut=    70.00 Ry     beta= 0.70
     Davidson diagonalization with overlap

---- Real-time Memory Report at c_bands before calling an iterative solver
          2435 MiB given to the printing process from OS
             0 MiB allocation reported by mallinfo(arena+hblkhd)
       1955753 MiB available memory on the node where the printing process lives
------------------
     ethr =  2.20E-07,  avg # of iterations = 16.0


     -----------------------------------------------
     Non-local corr. energy    =      68.74160586 Ry
     -----------------------------------------------


     total cpu time spent up to now is     4060.0 secs

     total energy              =  -97467.97849855 Ry
     estimated scf accuracy    <       0.00255351 Ry

     iteration #  7     ecut=    70.00 Ry     beta= 0.70
     Davidson diagonalization with overlap

---- Real-time Memory Report at c_bands before calling an iterative solver
          2435 MiB given to the printing process from OS
             0 MiB allocation reported by mallinfo(arena+hblkhd)
       1955436 MiB available memory on the node where the printing process lives
------------------
     c_bands:  1 eigenvalues not converged
     ethr =  1.11E-07,  avg # of iterations = 20.0


     -----------------------------------------------
     Non-local corr. energy    =      68.74006221 Ry
     -----------------------------------------------


     total cpu time spent up to now is     4802.1 secs

     total energy              =  -97467.97870316 Ry
     estimated scf accuracy    <       0.00079608 Ry

     iteration #  8     ecut=    70.00 Ry     beta= 0.70
     Davidson diagonalization with overlap

---- Real-time Memory Report at c_bands before calling an iterative solver
          2435 MiB given to the printing process from OS
             0 MiB allocation reported by mallinfo(arena+hblkhd)
       1955136 MiB available memory on the node where the printing process lives
------------------
     c_bands:  1 eigenvalues not converged
     ethr =  3.46E-08,  avg # of iterations = 20.0


     -----------------------------------------------
     Non-local corr. energy    =      68.74046298 Ry
     -----------------------------------------------


     total cpu time spent up to now is     5561.5 secs

     total energy              =  -97467.97886689 Ry
     estimated scf accuracy    <       0.00026195 Ry

     iteration #  9     ecut=    70.00 Ry     beta= 0.70
     Davidson diagonalization with overlap

---- Real-time Memory Report at c_bands before calling an iterative solver
          2435 MiB given to the printing process from OS
             0 MiB allocation reported by mallinfo(arena+hblkhd)
       1954861 MiB available memory on the node where the printing process lives
------------------
     c_bands:  1 eigenvalues not converged
     ethr =  1.14E-08,  avg # of iterations = 20.0


     -----------------------------------------------
     Non-local corr. energy    =      68.74082000 Ry
     -----------------------------------------------


     total cpu time spent up to now is     6267.8 secs

     total energy              =  -97467.97891295 Ry
     estimated scf accuracy    <       0.00002348 Ry

     iteration # 10     ecut=    70.00 Ry     beta= 0.70
     Davidson diagonalization with overlap

---- Real-time Memory Report at c_bands before calling an iterative solver
          2435 MiB given to the printing process from OS
             0 MiB allocation reported by mallinfo(arena+hblkhd)
       1954552 MiB available memory on the node where the printing process lives
------------------
     c_bands:  3 eigenvalues not converged
     ethr =  1.02E-09,  avg # of iterations = 20.0


     -----------------------------------------------
     Non-local corr. energy    =      68.74035957 Ry
     -----------------------------------------------


     total cpu time spent up to now is     6738.6 secs

     total energy              =  -97467.97892668 Ry
     estimated scf accuracy    <       0.00000653 Ry

     iteration # 11     ecut=    70.00 Ry     beta= 0.70
     Davidson diagonalization with overlap

---- Real-time Memory Report at c_bands before calling an iterative solver
          2671 MiB given to the printing process from OS
             0 MiB allocation reported by mallinfo(arena+hblkhd)
       1954220 MiB available memory on the node where the printing process lives
------------------
     c_bands:  1 eigenvalues not converged
     ethr =  2.84E-10,  avg # of iterations = 20.0


     -----------------------------------------------
     Non-local corr. energy    =      68.74018849 Ry
     -----------------------------------------------


     total cpu time spent up to now is     7426.1 secs

     total energy              =  -97467.97892698 Ry
     estimated scf accuracy    <       0.00000177 Ry

     iteration # 12     ecut=    70.00 Ry     beta= 0.70
     Davidson diagonalization with overlap

---- Real-time Memory Report at c_bands before calling an iterative solver
          2671 MiB given to the printing process from OS
             0 MiB allocation reported by mallinfo(arena+hblkhd)
       1954225 MiB available memory on the node where the printing process lives
------------------
     c_bands:  1 eigenvalues not converged
     ethr =  7.71E-11,  avg # of iterations = 20.0


     -----------------------------------------------
     Non-local corr. energy    =      68.73994233 Ry
     -----------------------------------------------


     total cpu time spent up to now is     8203.1 secs

     total energy              =  -97467.97892710 Ry
     estimated scf accuracy    <       0.00000091 Ry

     iteration # 13     ecut=    70.00 Ry     beta= 0.70
     Davidson diagonalization with overlap

---- Real-time Memory Report at c_bands before calling an iterative solver
          2671 MiB given to the printing process from OS
             0 MiB allocation reported by mallinfo(arena+hblkhd)
       1954215 MiB available memory on the node where the printing process lives
------------------
     c_bands:  1 eigenvalues not converged
     ethr =  3.94E-11,  avg # of iterations = 20.0


     -----------------------------------------------
     Non-local corr. energy    =      68.73999651 Ry
     -----------------------------------------------


     total cpu time spent up to now is     9024.1 secs

     total energy              =  -97467.97892733 Ry
     estimated scf accuracy    <       0.00000018 Ry

     iteration # 14     ecut=    70.00 Ry     beta= 0.70
     Davidson diagonalization with overlap

---- Real-time Memory Report at c_bands before calling an iterative solver
          2671 MiB given to the printing process from OS
             0 MiB allocation reported by mallinfo(arena+hblkhd)
       1954221 MiB available memory on the node where the printing process lives
------------------
     c_bands:  1 eigenvalues not converged
     ethr =  7.82E-12,  avg # of iterations = 20.0


     -----------------------------------------------
     Non-local corr. energy    =      68.74008854 Ry
     -----------------------------------------------


     total cpu time spent up to now is     9842.3 secs

     End of self-consistent calculation

          k = 0.0000 0.0000 0.0000 (454335 PWs)   bands (ev):

   -41.7573 -41.7572 -41.7572 -41.7256 -41.7256 -41.7255 -41.7221 -41.7221
   -41.7220 -41.6279 -41.6278 -41.6278 -41.6276 -41.6275 -41.6275 -41.1908
   -41.1907 -41.1907 -41.1703 -41.1702 -41.1702 -41.1689 -41.1688 -41.1688
   -41.1119 -41.1119 -41.1119 -41.1056 -41.1056 -41.1055 -41.1052 -41.1052
   -41.1051 -41.0972 -41.0972 -41.0971 -41.0967 -41.0967 -41.0967 -41.0547
   -41.0547 -41.0547 -41.0542 -41.0541 -41.0541 -41.0332 -41.0332 -41.0332
   -41.0331 -41.0331 -41.0331 -41.0248 -41.0248 -41.0248 -41.0248 -41.0247
   -41.0247 -41.0194 -41.0193 -41.0193 -41.0193 -41.0193 -41.0193 -40.9939
   -40.9939 -40.9938 -40.9931 -40.9931 -40.9931 -40.9921 -40.9921 -40.9921
   -40.9920 -40.9920 -40.9920 -40.9917 -40.9917 -40.9917 -40.9916 -40.9916
   -40.9916 -40.9770 -40.9770 -40.9770 -40.9757 -40.9757 -40.9757 -40.9713
   -40.9713 -40.9713 -40.9493 -40.9493 -40.9493 -40.9493 -40.9492 -40.9492
   -40.9489 -40.9489 -40.9489 -40.9489 -40.9489 -40.9489 -40.9389 -40.9389
   -40.9388 -40.9388 -40.9388 -40.9388 -40.9350 -40.9350 -40.9349 -40.9349
   -40.9349 -40.9349 -40.9332 -40.9331 -40.9331 -40.9331 -40.9331 -40.9331
   -40.9308 -40.9308 -40.9197 -40.9197 -40.9158 -40.8942 -40.8942 -40.8942
   -40.8918 -40.8918 -40.8917 -40.8909 -40.8909 -40.8909 -40.8871 -40.8871
   -40.8871 -40.8871 -40.8871 -40.8871 -40.8865 -40.8865 -40.8865 -40.8865
   -40.8865 -40.8864 -40.8854 -40.8854 -40.8854 -40.8847 -40.8847 -40.8847
   -40.8804 -40.8804 -40.8804 -40.8804 -40.8804 -40.8804 -40.8793 -40.8793
   -40.8792 -40.8787 -40.8787 -40.8787 -40.8747 -40.8747 -40.8747 -40.8747
   -40.8747 -40.8747 -40.8739 -40.8739 -40.8739 -40.8738 -40.8738 -40.8738
   -40.8727 -40.8727 -40.8727 -40.8720 -40.8720 -40.8720 -40.8709 -40.8708
   -40.8708 -40.8386 -40.8386 -40.8369 -40.8369 -40.8369 -40.8364 -40.8364
   -40.8364 -40.8340 -40.8339 -40.8339 -40.8339 -40.8339 -40.8332 -40.8332
   -40.8332 -40.8329 -40.8329 -40.8329 -40.8323 -40.8298 -40.8298 -40.8298
   -40.8293 -40.8293 -40.8293 -40.8282 -40.8282 -40.8282 -40.8277 -40.8277
   -40.8277 -40.8273 -40.8273 -40.8273 -40.8136 -40.8136 -40.8135 -40.8129
   -40.8129 -40.8129 -40.8063 -40.8063 -40.8063 -40.8063 -40.8062 -40.8062
   -40.8033 -40.8033 -40.8033 -40.8018 -40.8018 -40.8018 -40.8006 -40.8006
   -40.8006 -40.7998 -40.7998 -40.7998 -40.7964 -40.7964 -40.7963 -40.7959
   -40.7959 -40.7959 -40.7554 -40.7554 -40.7554 -40.7550 -40.7550 -40.7550
   -40.7544 -40.7544 -40.7544 -40.7541 -40.7541 -40.7541 -40.7534 -40.7534
   -40.7534 -40.7506 -40.7506 -40.7506 -40.7506 -40.7506 -40.7506 -40.7496
   -40.7496 -40.7496 -40.7496 -40.7496 -40.7496 -40.7480 -40.7480 -40.7480
   -40.7479 -40.7479 -40.7479 -40.7457 -40.7457 -40.7457 -40.7457 -40.7457
   -40.7457 -40.7454 -40.7454 -40.7454 -40.7454 -40.7454 -40.7454 -40.7424
   -40.7423 -40.7423 -40.7406 -40.7406 -40.7406 -40.7394 -40.7394 -40.7394
   -40.7361 -40.7361 -40.7360 -40.7352 -40.7352 -40.7352 -40.7262 -40.7262
   -40.7257 -40.7254 -40.7254 -40.4688 -40.4688 -40.4688 -40.4685 -40.4685
   -40.4684 -40.4684 -40.4684 -40.4684 -40.4684 -40.4684 -40.4678 -40.4678
   -40.4677 -40.4659 -40.4659 -40.4659 -40.4659 -40.4659 -40.4659 -40.4658
   -40.4658 -40.4657 -40.4656 -40.4656 -40.4656 -40.4656 -40.4656 -40.4656
   -40.4655 -40.4655 -40.4655 -40.4651 -40.4651 -40.4651 -40.4651 -40.4651
   -40.4651 -40.4648 -40.4648 -40.4648 -40.4648 -40.4648 -40.4648 -40.4646
   -40.4646 -40.4646 -40.4646 -40.4646 -40.4646 -40.4544 -40.4544 -40.4544
   -40.4539 -40.4539 -40.4539 -40.4536 -40.4536 -40.4536 -40.4533 -40.4533
   -40.4533 -40.4530 -40.4530 -40.4530 -40.4473 -40.4470 -40.4470 -40.4470
   -40.4468 -40.4468 -40.4468 -40.4467 -40.4467 -40.4467 -40.4465 -40.4465
   -40.4461 -40.4461 -40.4461 -40.4460 -40.4460 -40.4460 -40.4459 -40.4459
   -40.4459 -40.4454 -40.4454 -40.4454 -40.4453 -40.4453 -40.4453 -40.4441
   -40.4441 -40.4441 -40.4441 -40.4441 -40.4441 -40.4428 -40.4428 -40.4415
   -40.4415 -40.4415 -40.4412 -40.4411 -40.4411 -40.4411 -40.4411 -40.4411
   -40.4411 -40.4410 -40.4410 -40.4404 -40.4404 -40.4404 -40.4403 -40.4403
   -40.4403 -40.4403 -40.4403 -40.4403 -40.4403 -40.4403 -40.4403 -40.4401
   -40.4401 -40.4401 -40.4401 -40.4401 -40.4401 -40.4399 -40.4399 -40.4399
   -40.4399 -40.4399 -40.4399 -40.4390 -40.4390 -40.4390 -40.4390 -40.4389
   -40.4389 -40.4384 -40.4384 -40.4384 -40.4382 -40.4382 -40.4382 -40.4382
   -40.4382 -40.4382 -40.4382 -40.4382 -40.4382 -40.4382 -40.4381 -40.4381
   -40.4381 -40.4381 -40.4381 -14.4191 -14.4191 -14.3995 -14.3966 -14.3966
   -13.3813 -13.3772 -13.3771 -13.3501 -13.3481 -13.3481 -13.3445 -13.3445
   -13.3427 -13.3226 -13.3225 -13.3137 -13.3061 -13.3045 -13.3045 -13.2477
   -13.2477 -13.2460 -13.2336 -13.2336 -13.2317 -13.2197 -13.2191 -13.2190
   -13.2171 -13.2171 -13.2164 -13.2164 -13.2147 -13.2147 -13.2109 -13.2106
   -13.2106 -13.2089 -13.2022 -13.2021 -13.1999 -13.1974 -13.1973 -13.1953
   -13.1952 -13.1945 -13.1938 -13.1938 -13.1924 -13.0625 -13.0625 -13.0564
   -13.0537 -13.0462 -13.0451 -13.0451 -13.0433 -13.0433 -13.0374 -13.0357
   -13.0357 -13.0328 -13.0328 -13.0313 -13.0087 -13.0072 -13.0072 -13.0047
   -13.0023 -13.0022 -12.9983 -12.9983 -12.9962 -12.9946 -12.9938 -12.9937
   -12.9915 -12.9915 -12.9904 -12.9889 -12.9884 -12.9883 -12.9877 -12.9873
   -12.9872 -12.9865 -12.9865 -12.9861 -12.9853 -12.9843 -12.9843 -12.9839
   -12.9839 -12.9828 -12.9828 -12.9818 -12.9804 -12.9802 -12.9802 -12.9791
   -12.9786 -12.9780 -12.9780 -12.9751 -12.9746 -12.9746 -12.9730 -12.9727
   -12.9727 -12.9670 -12.9670 -12.9667 -12.9663 -12.9663 -12.9655 -12.9631
   -12.9630 -12.9625 -12.9605 -12.9592 -12.9592 -12.9583 -12.9582 -12.9576
   -12.9576 -12.9568 -12.9452 -12.9433 -12.9433 -12.9427 -12.9427 -12.9424
   -12.9384 -12.9384 -12.9381 -12.9277 -12.9275 -12.9275 -12.9268 -12.9267
   -12.9266 -12.9235 -12.9234 -12.9234 -12.8981 -12.8981 -12.8862 -12.8827
   -12.8827 -12.8781 -12.8717 -12.8717 -12.8659 -12.8659 -12.8640 -12.8591
   -12.8571 -12.8571 -12.8548 -12.8539 -12.8539 -12.8526 -12.8526 -12.8512
   -12.6170 -12.6170 -12.6115 -12.6080 -12.6080 -12.6048 -12.6043 -12.6043
   -12.6038 -12.6016 -12.6016 -12.6009 -12.6003 -12.6003 -12.6003 -12.5981
   -12.5981 -12.5972 -12.5947 -12.5947 -12.5928 -12.5928 -12.5925 -12.5911
   -12.5902 -12.5902 -12.5883 -12.5883 -12.5873 -12.5871 -12.5871 -12.5870
   -12.5869 -12.5860 -12.5860 -12.5859 -12.5856 -12.5855 -12.5855 -12.5850
   -12.5848 -12.5848 -12.5836 -12.5836 -12.5830 -12.5822 -12.5822 -12.5818
   -12.5817 -12.5817 -12.5814 -12.5814 -12.5814 -12.5812 -12.5812 -12.5810
   -12.5810 -12.5810 -12.5808 -12.5808 -12.5802 -12.5802 -12.5790 -12.5786
   -12.5786 -12.5785 -12.5785 -12.5772 -12.5772 -12.5771 -12.5771 -12.5756
   -12.5756 -12.5755 -12.5754 -12.5754 -12.5746 -12.5735 -12.5728 -12.5728
    -8.7256  -8.4672  -8.4672  -8.2092  -8.1760  -8.0685  -8.0684  -8.0502
    -8.0502  -8.0239  -8.0166  -8.0166  -7.9537  -7.9246  -7.9087  -7.9087
    -7.8890  -7.8255  -7.8255  -7.8083  -7.8047  -7.7827  -7.7820  -7.7820
    -7.7705  -7.7704  -7.7553  -7.7530  -7.7530  -7.7300  -7.7268  -7.7268
    -7.7155  -7.7065  -7.7065  -7.6936  -7.6885  -7.6826  -7.6825  -7.6641
    -7.6573  -7.6573  -7.6495  -7.6278  -7.6201  -7.6201  -7.5975  -7.5975
    -7.5972  -7.5863  -7.5863  -7.5805  -7.5733  -7.5693  -7.5693  -7.5469
    -7.5469  -7.5443  -7.5417  -7.5417  -7.5398  -7.5211  -7.5210  -7.5133
    -7.4962  -7.4960  -7.4960  -7.4734  -7.4734  -7.4686  -7.3106  -7.3027
    -7.3022  -7.2998  -7.2997  -7.2942  -7.2942  -7.2805  -7.2805  -7.2792
    -7.2297  -7.2289  -7.2289  -7.2227  -7.2227  -7.2223  -7.1819  -7.1819
    -7.1816  -7.1669  -7.1668  -7.1667  -7.1667  -7.1595  -7.1595  -4.8286
    -3.9314  -3.9314  -3.9130  -3.8907  -3.8902  -3.8902  -3.8329  -3.8329
    -3.7351  -3.7350  -3.7227  -3.7071  -3.6674  -3.6605  -3.6605  -3.6423
    -3.6117  -3.5993  -3.5993  -3.5476  -3.5475  -3.5273  -3.4698  -3.4563
    -3.4562  -3.4383  -3.4383  -3.3649  -3.3649  -3.3385  -3.3013  -3.3005
    -3.3005  -3.2900  -3.2898  -3.2898  -3.2865  -3.2864  -3.2864  -3.2744
    -3.1702  -3.0398  -3.0340  -3.0340  -3.0327  -3.0297  -3.0297  -2.8198
     0.5004   0.5005   0.6434   0.9146   0.9146   0.9366   0.9659   0.9660
     0.9854   1.0197   1.0197   1.0571   1.0987   1.0987   1.1424   1.1705
     1.1814   1.1814   1.2603   1.2629   1.2651   1.2651   1.3090   1.3090
     1.3324   1.3359   1.3359   1.3429   1.3429   1.3535   1.3748   1.3797
     1.3797   1.3867   1.3867   1.3926   1.4211   1.4231   1.4231   1.5108
     1.5108   1.5250   1.5250   1.5279   1.5482   1.5623   1.5623   1.5887
     1.5887   1.6148   1.6174   1.6220   1.6220   1.6388   1.6389   1.6761
     1.7050   1.7113   1.7113   1.7358   1.7454   1.7454   1.7560   1.7560
     1.7565   1.7664   1.7788   1.7788   1.7846   1.8017   1.8395   1.8395
     1.8449   1.8554   1.8554   1.8793   1.8852   1.8852   1.8879   1.8939
     1.8939   1.9190   1.9190   1.9212   1.9264   1.9465   1.9466   1.9576
     1.9747   1.9747   1.9772   1.9987   1.9987   2.0020   2.0020   2.0589
     2.0590   2.0685   2.0783   2.0992   2.1081   2.1082   2.1348   2.1348
     2.1431   2.1519   2.1711   2.1711   2.1746   2.1891   2.1904   2.1904
     2.2097   2.2238   2.2290   2.2290   2.2425   2.2425   2.2502   2.2519
     2.2519   2.2570   2.2572   2.2585   2.2585   2.2640   2.2640   2.2793
     2.2793   2.2805   2.2947   2.3034   2.3034   2.3134   2.3134   2.3287
     2.3423   2.3423   2.3900   2.4054   2.4407   2.4410   2.4410   2.5399
     2.5399   2.5467   2.5554   2.5555   2.5593   2.5636   2.5636   2.5879
     2.5879   2.5949   2.6001   2.6034   2.6034   2.6107   2.6107   2.6218
     2.6218   2.6233   2.6266   2.6266   2.6285   2.6392   2.6392   2.6538
     2.6641   2.6661   2.6661   2.6701   2.6979   2.6979   2.7192   2.7192
     2.7208   2.7353   2.7354   2.7573   2.7752   2.7754   2.7754   2.7791
     2.7791   2.7814   2.7919   2.7923   2.7962   2.8034   2.8034   2.8304
     2.8304   2.8381   2.8381   2.8456   2.8456   2.8611   2.8712   2.8712
     2.8789   2.8801   2.8801   2.9124   2.9257   2.9257   2.9321   2.9322
     2.9322   2.9791   2.9888   2.9888   3.0182   3.0182   3.0182   3.0295
     3.0296   3.0346   3.0425   3.0425   3.0597   3.0597   3.0639   3.0834
     3.0927   3.0927   3.0987   3.0987   3.1026   3.1201   3.1201   3.1300
     3.1323   3.1323   3.1354   3.1376   3.1510   3.1511   3.1607   3.1662
     3.1662   3.1662   3.1715   3.1730   3.1730   3.1923   3.1923   3.1925
     3.2043   3.2043   3.2328   3.2620   3.2620   3.2631   3.2632   3.2689
     3.2714   3.2714   3.2730   3.2764   3.2764   3.2876   3.3113   3.3113
     3.3216   3.3267   3.3357   3.3357   3.3597   3.3600   3.3600   3.3736
     3.5669   3.6152   3.6213   3.6213   3.6251   3.6254   3.6254   3.6256
     3.6271   3.6271   3.6285   3.6293   3.6293   4.6407   5.2581   5.2584
     5.7717   5.9672   6.0411   6.2801   6.2802   6.3660   6.3892   6.3893
     6.4013   6.4337   6.4516   6.4516   6.5300   6.5300   6.5491   6.5491
     6.5578   6.5824   6.5824   6.5932   6.6809   6.6810   6.6848   6.7531
     6.7531   6.7938   6.7938   6.8221   6.8252   6.8974   6.8974   6.9196
     6.9196   6.9376   6.9403   6.9554   6.9554   6.9570   6.9570   6.9611
     6.9955   7.0104   7.0139   7.0140   7.0303   7.0448   7.0448   7.0657
     7.0657   7.0781   7.0781   7.0812   7.1025   7.1123   7.1131   7.1131
     7.1393   7.1394   7.1575   7.1636   7.1636   7.1798   7.1838   7.1838
     7.1938   7.1938   7.1957   7.2251   7.2251   7.2382   7.2382   7.2482
     7.2577   7.2756   7.2757   7.2777   7.2849   7.2849   7.3015   7.3015
     7.3033   7.3082   7.3200   7.3200   7.3391   7.3391   7.3548   7.4093
     7.4093   7.4202   7.4529   7.4572   7.4572   7.5089   7.5089   7.5186
     7.5193   7.5194   7.5324   7.5420   7.5420   7.5480   7.5480   7.5519
     7.5566   7.5575   7.5575   7.5779   7.5779   7.5828   7.5848   7.5953
     7.5954   7.6401   7.6460   7.6460   7.6481   7.6924   7.6936   7.6936
     7.7022   7.7028   7.7030   7.7030   7.7043   7.7043   7.7545   7.7545
     7.7725   7.7758   7.7758   7.7767   7.7785   7.7785   7.7806   7.9899
     7.9981   7.9981   7.9993   8.0009   8.0009   8.1613   8.1633   8.1633
     9.1103   9.1103   9.1256   9.4734   9.5152   9.5152   9.6389   9.6492
     9.6492   9.6864   9.7467   9.7467   9.8237   9.8237   9.8264   9.8457
     9.9159   9.9470   9.9470   9.9644   9.9678   9.9678  10.0159  10.0159
    10.0165  10.0612  10.0709  10.0709  10.1928  10.2363  10.2426  10.2426
    10.2664  10.2664  10.2842  10.2887  10.2888  10.3191  10.3296  10.3297
    10.3311  10.3362  10.3480  10.3480  10.3502  10.3502  10.3508  10.4589
    10.4707  10.4707  10.4854  10.4855  10.4856  10.4886  10.6067  10.6556
    10.6557  10.6903  10.6903  10.7165  10.7545  10.7602  10.7602  10.8018
    10.8108  10.8162  10.8162  10.8176  10.8664  10.8665  10.9029  10.9030
    10.9285  10.9285  10.9291  10.9310  10.9362  10.9362  11.0319  11.0320
    11.0334  11.0674  11.0894

     occupation numbers 
     1.0000   1.0000   1.0000   1.0000   1.0000   1.0000   1.0000   1.0000
     1.0000   1.0000   1.0000   1.0000   1.0000   1.0000   1.0000   1.0000
     1.0000   1.0000   1.0000   1.0000   1.0000   1.0000   1.0000   1.0000
     1.0000   1.0000   1.0000   1.0000   1.0000   1.0000   1.0000   1.0000
     1.0000   1.0000   1.0000   1.0000   1.0000   1.0000   1.0000   1.0000
     1.0000   1.0000   1.0000   1.0000   1.0000   1.0000   1.0000   1.0000
     1.0000   1.0000   1.0000   1.0000   1.0000   1.0000   1.0000   1.0000
     1.0000   1.0000   1.0000   1.0000   1.0000   1.0000   1.0000   1.0000
     1.0000   1.0000   1.0000   1.0000   1.0000   1.0000   1.0000   1.0000
     1.0000   1.0000   1.0000   1.0000   1.0000   1.0000   1.0000   1.0000
     1.0000   1.0000   1.0000   1.0000   1.0000   1.0000   1.0000   1.0000
     1.0000   1.0000   1.0000   1.0000   1.0000   1.0000   1.0000   1.0000
     1.0000   1.0000   1.0000   1.0000   1.0000   1.0000   1.0000   1.0000
     1.0000   1.0000   1.0000   1.0000   1.0000   1.0000   1.0000   1.0000
     1.0000   1.0000   1.0000   1.0000   1.0000   1.0000   1.0000   1.0000
     1.0000   1.0000   1.0000   1.0000   1.0000   1.0000   1.0000   1.0000
     1.0000   1.0000   1.0000   1.0000   1.0000   1.0000   1.0000   1.0000
     1.0000   1.0000   1.0000   1.0000   1.0000   1.0000   1.0000   1.0000
     1.0000   1.0000   1.0000   1.0000   1.0000   1.0000   1.0000   1.0000
     1.0000   1.0000   1.0000   1.0000   1.0000   1.0000   1.0000   1.0000
     1.0000   1.0000   1.0000   1.0000   1.0000   1.0000   1.0000   1.0000
     1.0000   1.0000   1.0000   1.0000   1.0000   1.0000   1.0000   1.0000
     1.0000   1.0000   1.0000   1.0000   1.0000   1.0000   1.0000   1.0000
     1.0000   1.0000   1.0000   1.0000   1.0000   1.0000   1.0000   1.0000
     1.0000   1.0000   1.0000   1.0000   1.0000   1.0000   1.0000   1.0000
     1.0000   1.0000   1.0000   1.0000   1.0000   1.0000   1.0000   1.0000
     1.0000   1.0000   1.0000   1.0000   1.0000   1.0000   1.0000   1.0000
     1.0000   1.0000   1.0000   1.0000   1.0000   1.0000   1.0000   1.0000
     1.0000   1.0000   1.0000   1.0000   1.0000   1.0000   1.0000   1.0000
     1.0000   1.0000   1.0000   1.0000   1.0000   1.0000   1.0000   1.0000
     1.0000   1.0000   1.0000   1.0000   1.0000   1.0000   1.0000   1.0000
     1.0000   1.0000   1.0000   1.0000   1.0000   1.0000   1.0000   1.0000
     1.0000   1.0000   1.0000   1.0000   1.0000   1.0000   1.0000   1.0000
     1.0000   1.0000   1.0000   1.0000   1.0000   1.0000   1.0000   1.0000
     1.0000   1.0000   1.0000   1.0000   1.0000   1.0000   1.0000   1.0000
     1.0000   1.0000   1.0000   1.0000   1.0000   1.0000   1.0000   1.0000
     1.0000   1.0000   1.0000   1.0000   1.0000   1.0000   1.0000   1.0000
     1.0000   1.0000   1.0000   1.0000   1.0000   1.0000   1.0000   1.0000
     1.0000   1.0000   1.0000   1.0000   1.0000   1.0000   1.0000   1.0000
     1.0000   1.0000   1.0000   1.0000   1.0000   1.0000   1.0000   1.0000
     1.0000   1.0000   1.0000   1.0000   1.0000   1.0000   1.0000   1.0000
     1.0000   1.0000   1.0000   1.0000   1.0000   1.0000   1.0000   1.0000
     1.0000   1.0000   1.0000   1.0000   1.0000   1.0000   1.0000   1.0000
     1.0000   1.0000   1.0000   1.0000   1.0000   1.0000   1.0000   1.0000
     1.0000   1.0000   1.0000   1.0000   1.0000   1.0000   1.0000   1.0000
     1.0000   1.0000   1.0000   1.0000   1.0000   1.0000   1.0000   1.0000
     1.0000   1.0000   1.0000   1.0000   1.0000   1.0000   1.0000   1.0000
     1.0000   1.0000   1.0000   1.0000   1.0000   1.0000   1.0000   1.0000
     1.0000   1.0000   1.0000   1.0000   1.0000   1.0000   1.0000   1.0000
     1.0000   1.0000   1.0000   1.0000   1.0000   1.0000   1.0000   1.0000
     1.0000   1.0000   1.0000   1.0000   1.0000   1.0000   1.0000   1.0000
     1.0000   1.0000   1.0000   1.0000   1.0000   1.0000   1.0000   1.0000
     1.0000   1.0000   1.0000   1.0000   1.0000   1.0000   1.0000   1.0000
     1.0000   1.0000   1.0000   1.0000   1.0000   1.0000   1.0000   1.0000
     1.0000   1.0000   1.0000   1.0000   1.0000   1.0000   1.0000   1.0000
     1.0000   1.0000   1.0000   1.0000   1.0000   1.0000   1.0000   1.0000
     1.0000   1.0000   1.0000   1.0000   1.0000   1.0000   1.0000   1.0000
     1.0000   1.0000   1.0000   1.0000   1.0000   1.0000   1.0000   1.0000
     1.0000   1.0000   1.0000   1.0000   1.0000   1.0000   1.0000   1.0000
     1.0000   1.0000   1.0000   1.0000   1.0000   1.0000   1.0000   1.0000
     1.0000   1.0000   1.0000   1.0000   1.0000   1.0000   1.0000   1.0000
     1.0000   1.0000   1.0000   1.0000   1.0000   1.0000   1.0000   1.0000
     1.0000   1.0000   1.0000   1.0000   1.0000   1.0000   1.0000   1.0000
     1.0000   1.0000   1.0000   1.0000   1.0000   1.0000   1.0000   1.0000
     1.0000   1.0000   1.0000   1.0000   1.0000   1.0000   1.0000   1.0000
     1.0000   1.0000   1.0000   1.0000   1.0000   1.0000   1.0000   1.0000
     1.0000   1.0000   1.0000   1.0000   1.0000   1.0000   1.0000   1.0000
     1.0000   1.0000   1.0000   1.0000   1.0000   1.0000   1.0000   1.0000
     1.0000   1.0000   1.0000   1.0000   1.0000   1.0000   1.0000   1.0000
     1.0000   1.0000   1.0000   1.0000   1.0000   1.0000   1.0000   1.0000
     1.0000   1.0000   1.0000   1.0000   1.0000   1.0000   1.0000   1.0000
     1.0000   1.0000   1.0000   1.0000   1.0000   1.0000   1.0000   1.0000
     1.0000   1.0000   1.0000   1.0000   1.0000   1.0000   1.0000   1.0000
     1.0000   1.0000   1.0000   1.0000   1.0000   1.0000   1.0000   1.0000
     1.0000   1.0000   1.0000   1.0000   1.0000   1.0000   1.0000   1.0000
     1.0000   1.0000   1.0000   1.0000   1.0000   1.0000   1.0000   1.0000
     1.0000   1.0000   1.0000   1.0000   1.0000   1.0000   1.0000   1.0000
     1.0000   1.0000   1.0000   1.0000   1.0000   1.0000   1.0000   1.0000
     1.0000   1.0000   1.0000   1.0000   1.0000   1.0000   1.0000   1.0000
     1.0000   1.0000   1.0000   1.0000   1.0000   1.0000   1.0000   1.0000
     1.0000   1.0000   1.0000   1.0000   1.0000   1.0000   1.0000   1.0000
     1.0000   1.0000   1.0000   1.0000   1.0000   1.0000   1.0000   1.0000
     1.0000   1.0000   1.0000   1.0000   1.0000   1.0000   1.0000   1.0000
     1.0000   1.0000   1.0000   1.0000   1.0000   1.0000   1.0000   1.0000
     1.0000   1.0000   1.0000   1.0000   1.0000   1.0000   1.0000   1.0000
     1.0000   1.0000   1.0000   1.0000   1.0000   1.0000   1.0000   1.0000
     1.0000   1.0000   1.0000   1.0000   1.0000   1.0000   1.0000   1.0000
     1.0000   1.0000   1.0000   1.0000   1.0000   1.0000   1.0000   1.0000
     1.0000   1.0000   1.0000   1.0000   1.0000   1.0000   1.0000   1.0000
     1.0000   1.0000   1.0000   1.0000   1.0000   1.0000   1.0000   1.0000
     1.0000   1.0000   1.0000   1.0000   1.0000   1.0000   1.0000   1.0000
     1.0000   1.0000   1.0000   1.0000   1.0000   1.0000   1.0000   1.0000
     1.0000   1.0000   1.0000   1.0000   1.0000   1.0000   1.0000   1.0000
     1.0000   1.0000   1.0000   1.0000   1.0000   1.0000   1.0000   1.0000
     1.0000   1.0000   1.0000   1.0000   1.0000   1.0000   1.0000   1.0000
     1.0000   1.0000   1.0000   1.0000   1.0000   1.0000   1.0000   1.0000
     1.0000   1.0000   1.0000   1.0000   1.0000   1.0000   1.0000   1.0000
     1.0000   1.0000   1.0000   1.0000   1.0000   1.0000   1.0000   1.0000
     1.0000   1.0000   1.0000   1.0000   1.0000   1.0000   1.0000   1.0000
     1.0000   1.0000   1.0000   1.0000   1.0000   1.0000   1.0000   1.0000
     1.0000   1.0000   1.0000   1.0000   1.0000   1.0000   1.0000   1.0000
     1.0000   1.0000   1.0000   1.0000   1.0000   1.0000   1.0000   1.0000
     1.0000   1.0000   1.0000   1.0000   1.0000   1.0000   1.0000   1.0000
     1.0000   1.0000   1.0000   1.0000   1.0000   1.0000   1.0000   1.0000
     1.0000   1.0000   1.0000   1.0000   1.0000   1.0000   1.0000   1.0000
     1.0000   1.0000   1.0000   1.0000   1.0000   1.0000   1.0000   1.0000
     1.0000   1.0000   1.0000   1.0000   1.0000   1.0000   1.0000   1.0000
     1.0000   1.0000   1.0000   1.0000   1.0000   1.0000   1.0000   1.0000
     1.0000   1.0000   1.0000   1.0000   1.0000   1.0000   1.0000   1.0000
     1.0000   1.0000   1.0000   1.0000   1.0000   1.0000   1.0000   1.0000
     1.0000   1.0000   1.0000   1.0000   1.0000   1.0000   1.0000   1.0000
     1.0000   1.0000   1.0000   1.0000   1.0000   1.0000   1.0000   1.0000
     1.0000   1.0000   1.0000   1.0000   1.0000   1.0000   1.0000   1.0000
     1.0000   1.0000   1.0000   1.0000   1.0000   1.0000   1.0000   1.0000
     1.0000   1.0000   1.0000   1.0000   1.0000   1.0000   1.0000   1.0000
     1.0000   1.0000   1.0000   1.0000   1.0000   1.0000   1.0000   1.0000
     1.0000   1.0000   1.0000   1.0000   1.0000   1.0000   1.0000   1.0000
     1.0000   1.0000   1.0000   1.0000   1.0000   1.0000   1.0000   1.0000
     1.0000   1.0000   1.0000   1.0000   1.0000   1.0000   1.0000   1.0000
     1.0000   1.0000   1.0000   1.0000   1.0000   1.0000   1.0000   1.0000
     1.0000   1.0000   1.0000   1.0000   1.0000   1.0000   1.0000   1.0000
     1.0000   1.0000   1.0000   1.0000   1.0000   1.0000   1.0000   1.0000
     1.0000   1.0000   1.0000   1.0000   1.0000   1.0000   1.0000   1.0000
     1.0000   1.0000   1.0000   1.0000   1.0000   1.0000   1.0000   1.0000
     1.0000   1.0000   1.0000   1.0000   1.0000   1.0000   1.0000   1.0000
     1.0000   1.0000   1.0000   1.0000   1.0000   1.0000   1.0000   1.0000
     1.0000   1.0000   1.0000   1.0000   1.0000   1.0000   1.0000   1.0000
     1.0000   1.0000   1.0000   1.0000   1.0000   1.0000   1.0000   1.0000
     1.0000   1.0000   1.0000   1.0000   1.0000   1.0000   1.0000   1.0000
     1.0000   1.0000   1.0000   1.0000   1.0000   1.0000   1.0000   1.0000
     1.0000   1.0000   1.0000   1.0000   1.0000   1.0000   1.0000   1.0000
     1.0000   1.0000   1.0000   1.0000   1.0000   1.0000   1.0000   1.0000
     1.0000   1.0000   1.0000   1.0000   1.0000   1.0000   1.0000   1.0000
     1.0000   1.0000   1.0000   1.0000   1.0000   1.0000   1.0000   1.0000
     1.0000   1.0000   1.0000   1.0000   1.0000   1.0000   1.0000   1.0000
     1.0000   1.0000   1.0000   1.0000   1.0000   1.0000   1.0000   1.0000
     1.0000   1.0000   1.0000   1.0000   1.0000   1.0000   1.0000   1.0000
     1.0000   1.0000   1.0000   1.0000   1.0000   1.0000   1.0000   1.0000
     1.0000   1.0000   1.0000   1.0000   1.0000   1.0000   1.0000   1.0000
     1.0000   1.0000   1.0000   1.0000   1.0000   1.0000   1.0000   1.0000
     1.0000   1.0000   1.0000   1.0000   1.0000   1.0000   1.0000   1.0000
     1.0000   1.0000   1.0000   1.0000   1.0000   1.0000   1.0000   1.0000
     1.0000   1.0000   1.0000   1.0000   1.0000   1.0000   1.0000   1.0000
     1.0000   1.0000   1.0000   1.0000   1.0000   0.0000   0.0000   0.0000
     0.0000   0.0000   0.0000   0.0000   0.0000   0.0000   0.0000   0.0000
     0.0000   0.0000   0.0000   0.0000   0.0000   0.0000   0.0000   0.0000
     0.0000   0.0000   0.0000   0.0000   0.0000   0.0000   0.0000   0.0000
     0.0000   0.0000   0.0000   0.0000   0.0000   0.0000   0.0000   0.0000
     0.0000   0.0000   0.0000   0.0000   0.0000   0.0000   0.0000   0.0000
     0.0000   0.0000   0.0000   0.0000   0.0000   0.0000   0.0000   0.0000
     0.0000   0.0000   0.0000   0.0000   0.0000   0.0000   0.0000   0.0000
     0.0000   0.0000   0.0000   0.0000   0.0000   0.0000   0.0000   0.0000
     0.0000   0.0000   0.0000   0.0000   0.0000   0.0000   0.0000   0.0000
     0.0000   0.0000   0.0000   0.0000   0.0000   0.0000   0.0000   0.0000
     0.0000   0.0000   0.0000   0.0000   0.0000   0.0000   0.0000   0.0000
     0.0000   0.0000   0.0000   0.0000   0.0000   0.0000   0.0000   0.0000
     0.0000   0.0000   0.0000   0.0000   0.0000   0.0000   0.0000   0.0000
     0.0000   0.0000   0.0000   0.0000   0.0000   0.0000   0.0000   0.0000
     0.0000   0.0000   0.0000   0.0000   0.0000   0.0000   0.0000   0.0000
     0.0000   0.0000   0.0000   0.0000   0.0000   0.0000   0.0000   0.0000
     0.0000   0.0000   0.0000   0.0000   0.0000   0.0000   0.0000   0.0000
     0.0000   0.0000   0.0000   0.0000   0.0000   0.0000   0.0000   0.0000
     0.0000   0.0000   0.0000   0.0000   0.0000   0.0000   0.0000   0.0000
     0.0000   0.0000   0.0000   0.0000   0.0000   0.0000   0.0000   0.0000
     0.0000   0.0000   0.0000   0.0000   0.0000   0.0000   0.0000   0.0000
     0.0000   0.0000   0.0000   0.0000   0.0000   0.0000   0.0000   0.0000
     0.0000   0.0000   0.0000   0.0000   0.0000   0.0000   0.0000   0.0000
     0.0000   0.0000   0.0000   0.0000   0.0000   0.0000   0.0000   0.0000
     0.0000   0.0000   0.0000   0.0000   0.0000   0.0000   0.0000   0.0000
     0.0000   0.0000   0.0000   0.0000   0.0000   0.0000   0.0000   0.0000
     0.0000   0.0000   0.0000   0.0000   0.0000   0.0000   0.0000   0.0000
     0.0000   0.0000   0.0000   0.0000   0.0000   0.0000   0.0000   0.0000
     0.0000   0.0000   0.0000

     the Fermi energy is     4.1550 ev

!    total energy              =  -97467.97892741 Ry
     total all-electron energy =  -3401001.067653 Ry
     estimated scf accuracy    <       0.00000007 Ry
     smearing contrib. (-TS)   =      -0.00000003 Ry
     internal energy E=F+TS    =  -97467.97892738 Ry

     The total energy is F=E-TS. E is the sum of the following terms:
     one-electron contribution =  -17810.94340519 Ry
     hartree contribution      =    9958.84004787 Ry
     xc contribution           =   -6782.59508352 Ry
     ewald contribution        =  -14783.73326463 Ry
     one-center paw contrib.   =  -68049.54722190 Ry
      -> PAW hartree energy AE =     191.93772515 Ry
      -> PAW hartree energy PS =    -192.41309872 Ry
      -> PAW xc energy AE      =   -1596.85986734 Ry
      -> PAW xc energy PS      =      66.62238898 Ry
      -> total E_H with PAW    =    9958.36467429 Ry
      -> total E_XC with PAW   =   -8312.83256187 Ry

     convergence has been achieved in  14 iterations


     -----------------------------------------------
     Non-local corr. energy    =      68.74008854 Ry
     -----------------------------------------------


     Forces acting on atoms (cartesian axes, Ry/au):

     atom    1 type  1   force =    -0.00000033    0.00496054   -0.00711561
     atom    2 type  1   force =    -0.00000010    0.02078874    0.00950298
     atom    3 type  1   force =    -0.00000040    0.00025583    0.00113226
     atom    4 type  1   force =    -0.00000455    0.00190757   -0.00135069
     atom    5 type  1   force =    -0.00325126    0.00364143   -0.00070117
     atom    6 type  1   force =    -0.00038933    0.00024189    0.00119045
     atom    7 type  1   force =     0.00165034   -0.00095930   -0.00135149
     atom    8 type  1   force =     0.00152629   -0.00463400   -0.00070355
     atom    9 type  1   force =     0.00001447   -0.00045705    0.00118975
     atom   10 type  1   force =     0.00429730   -0.00248071   -0.00711929
     atom   11 type  1   force =     0.01800374   -0.01039361    0.00950404
     atom   12 type  1   force =     0.00022114   -0.00012709    0.00113179
     atom   13 type  1   force =     0.00552373    0.00318950   -0.00479989
     atom   14 type  1   force =     0.00478157    0.00276127    0.00083433
     atom   15 type  1   force =     0.00058235    0.00033668    0.00101196
     atom   16 type  1   force =     0.00000475    0.00190730   -0.00135132
     atom   17 type  1   force =     0.00325184    0.00364167   -0.00070139
     atom   18 type  1   force =     0.00038894    0.00024168    0.00119050
     atom   19 type  1   force =    -0.00000026    0.00000018   -0.00125919
     atom   20 type  1   force =     0.00000014    0.00000181   -0.00055635
     atom   21 type  1   force =     0.00000003   -0.00000006    0.00131105
     atom   22 type  1   force =     0.00165515   -0.00094957   -0.00135191
     atom   23 type  1   force =     0.00477835    0.00099549   -0.00070392
     atom   24 type  1   force =     0.00040371    0.00021683    0.00119000
     atom   25 type  1   force =     0.00000039   -0.00035770   -0.00031402
     atom   26 type  1   force =    -0.00000130    0.00084691    0.00066482
     atom   27 type  1   force =    -0.00000036   -0.00002406    0.00039989
     atom   28 type  1   force =    -0.00031143    0.00017763   -0.00031236
     atom   29 type  1   force =     0.00073416   -0.00042162    0.00066402
     atom   30 type  1   force =    -0.00002129    0.00001232    0.00040067
     atom   31 type  1   force =    -0.00164995   -0.00095895   -0.00135145
     atom   32 type  1   force =    -0.00152643   -0.00463138   -0.00070130
     atom   33 type  1   force =    -0.00001430   -0.00045777    0.00119018
     atom   34 type  1   force =    -0.00165475   -0.00094950   -0.00135157
     atom   35 type  1   force =    -0.00477591    0.00099373   -0.00070023
     atom   36 type  1   force =    -0.00040461    0.00021720    0.00119009
     atom   37 type  1   force =    -0.00552028    0.00318741   -0.00479795
     atom   38 type  1   force =    -0.00478248    0.00276177    0.00083412
     atom   39 type  1   force =    -0.00058252    0.00033696    0.00101180
     atom   40 type  1   force =     0.00031118    0.00017713   -0.00031284
     atom   41 type  1   force =    -0.00073514   -0.00042077    0.00066505
     atom   42 type  1   force =     0.00002139    0.00001217    0.00040030
     atom   43 type  1   force =     0.00000007   -0.00638461   -0.00480427
     atom   44 type  1   force =    -0.00000014   -0.00551916    0.00083436
     atom   45 type  1   force =    -0.00000013   -0.00067189    0.00101157
     atom   46 type  1   force =    -0.00429703   -0.00248018   -0.00711806
     atom   47 type  1   force =    -0.01800250   -0.01039253    0.00950338
     atom   48 type  1   force =    -0.00022111   -0.00012684    0.00113196
     atom   49 type  2   force =    -0.00000000    0.00000067   -0.00079294
     atom   50 type  2   force =     0.00000071   -0.00000055    0.00107807
     atom   51 type  2   force =     0.00256034   -0.00252515   -0.00055301
     atom   52 type  2   force =     0.00017164   -0.00024385   -0.00089054
     atom   53 type  2   force =     0.00114422   -0.00154075    0.00124074
     atom   54 type  2   force =     0.00084333    0.00048830    0.00110918
     atom   55 type  2   force =     0.00002445    0.00001455   -0.00046183
     atom   56 type  2   force =    -0.00011108   -0.00006369    0.00091966
     atom   57 type  2   force =    -0.00090085    0.00346979   -0.00055330
     atom   58 type  2   force =    -0.00012535    0.00027187   -0.00089070
     atom   59 type  2   force =    -0.00076592    0.00176343    0.00123919
     atom   60 type  2   force =    -0.00345754   -0.00095621   -0.00055210
     atom   61 type  2   force =    -0.00029762   -0.00002761   -0.00089214
     atom   62 type  2   force =    -0.00190610   -0.00021768    0.00123976
     atom   63 type  2   force =    -0.00255779   -0.00252604   -0.00055352
     atom   64 type  2   force =    -0.00017321   -0.00024363   -0.00089153
     atom   65 type  2   force =    -0.00114338   -0.00154134    0.00124065
     atom   66 type  2   force =    -0.00000004   -0.00025093    0.00024215
     atom   67 type  2   force =     0.00000020   -0.00018424   -0.00115598
     atom   68 type  2   force =     0.00000029   -0.00047861    0.00087618
     atom   69 type  2   force =    -0.00021667    0.00012599    0.00024279
     atom   70 type  2   force =    -0.00016061    0.00009372   -0.00115510
     atom   71 type  2   force =    -0.00041436    0.00023970    0.00087489
     atom   72 type  2   force =    -0.00000232   -0.00097237    0.00110919
     atom   73 type  2   force =    -0.00000080   -0.00002787   -0.00046099
     atom   74 type  2   force =    -0.00000026    0.00012888    0.00091935
     atom   75 type  2   force =    -0.00108270   -0.00062454    0.00012491
     atom   76 type  2   force =    -0.00009407   -0.00005457   -0.00012823
     atom   77 type  2   force =    -0.00275748   -0.00158898    0.00143801
     atom   78 type  2   force =    -0.00084394    0.00048637    0.00111019
     atom   79 type  2   force =    -0.00002523    0.00001443   -0.00046162
     atom   80 type  2   force =     0.00011117   -0.00006426    0.00091842
     atom   81 type  2   force =     0.00021686    0.00012612    0.00024291
     atom   82 type  2   force =     0.00015962    0.00009303   -0.00115504
     atom   83 type  2   force =     0.00041422    0.00023955    0.00087474
     atom   84 type  2   force =     0.00346138   -0.00095666   -0.00055094
     atom   85 type  2   force =     0.00029775   -0.00002755   -0.00089274
     atom   86 type  2   force =     0.00190544   -0.00021923    0.00123992
     atom   87 type  2   force =     0.00108256   -0.00062450    0.00012436
     atom   88 type  2   force =     0.00009468   -0.00005487   -0.00013051
     atom   89 type  2   force =     0.00275614   -0.00159006    0.00143789
     atom   90 type  2   force =     0.00000005    0.00125275    0.00012435
     atom   91 type  2   force =    -0.00000058    0.00011199   -0.00013196
     atom   92 type  2   force =    -0.00000176    0.00318224    0.00143717
     atom   93 type  2   force =     0.00090380    0.00347145   -0.00055273
     atom   94 type  2   force =     0.00012502    0.00027187   -0.00089111
     atom   95 type  2   force =     0.00076497    0.00176323    0.00123904
     atom   96 type  2   force =     0.01270371   -0.00733237    0.01062397
     atom   97 type  2   force =     0.00230791   -0.00133078   -0.00080296
     atom   98 type  2   force =     0.00018007   -0.00010296   -0.00008987
     atom   99 type  2   force =     0.00003402   -0.00100381    0.00057029
     atom  100 type  2   force =     0.00090726   -0.00080713   -0.00028580
     atom  101 type  2   force =     0.00019352   -0.00010612   -0.00013807
     atom  102 type  2   force =    -0.00085385    0.00053261    0.00056972
     atom  103 type  2   force =    -0.00024606    0.00119153   -0.00028561
     atom  104 type  2   force =     0.00000451    0.00022190   -0.00013506
     atom  105 type  2   force =    -0.00000006    0.01466491    0.01062938
[...]
I             2.3557576420        1.3596463986       20.2878687410
I             0.0311374269        5.4002054587        5.5093621560
I            -0.0023323020        5.4364082139       12.8856894008
I            -0.0182479735        5.4315221443       20.2423895295
I            -2.3520891221        9.5218297766        5.4676281834
I            -2.3611838420        9.5167141095       12.8793096580
I            -2.3587841536        9.5179017606       20.2683326686
I            -4.7297048355       13.6465241759        5.5093314026
I            -4.7154062066       13.5997068776       12.8856860101
I            -4.7271267047       13.5876607919       20.2420222188
I             7.0174286754        1.3524506392        5.5094126528
I             7.0651585718        1.3636121638       12.8856702697
I             7.0694598543        1.3795640248       20.2421542691
I             4.6803005238        5.4001843272        5.5093061690
I             4.7137351874        5.4364117679       12.8856667959
I             4.7298064754        5.4315651558       20.2423244248
I             2.3557118523        9.5074018353        5.4878255347
I             2.3557190850        9.5051947039       12.8472039626
I             2.3557163504        9.5214593877       20.2491912361
I            -0.0106199355       13.6061681838        5.4878262201
I            -0.0126143230       13.6073214566       12.8472162278
I             0.0014590174       13.5992035566       20.2492149697
I            11.7782797070        1.3557206793        5.4677113327
I            11.7782470582        1.3662807543       12.8792918938
I            11.7782955937        1.3635245711       20.2683675442
I             9.4225895928        5.4397605696        5.5047026434
I             9.4247678992        5.4411313421       12.8855198833
I             9.3904719519        5.4209043188       20.2449246553
I             7.0635620206        9.5218352102        5.4675967929
I             7.0726027844        9.5167121400       12.8793016955
I             7.0702635526        9.5179233074       20.2683014649
I             4.7220994457       13.6062023858        5.4878325411
I             4.7240728004       13.6073334497       12.8472188135
I             4.7099894815       13.5992116821       20.2492043471
I            16.5391708327        1.3524993183        5.5094421375
I            16.4913284158        1.3636181578       12.8857022039
I            16.4872887241        1.3795886687       20.2422700571
I            14.1339618206        5.4397566899        5.5047337978
I            14.1317245889        5.4411331719       12.8855445824
I            14.1663715173        5.4208471488       20.2450293256
I            11.7782732834        9.5199289897        5.5046575378
I            11.7782462662        9.5174850154       12.8855333284
I            11.7783691796        9.5565125019       20.2447270180
I             9.4412451505       13.6465795845        5.5093025098
I             9.4268170918       13.5997095963       12.8856958697
I             9.4387251460       13.5877249089       20.2420744378
I             0.1106578958        2.6556237020        2.0755272856
I            -0.0044764000        2.7223636405        9.2903224097
I             0.0002937665        2.7197066481       16.6604197502
I            -2.3615680709        6.7964374744        1.9103061612
I            -2.3517036246        6.8140332901        9.2680953644
I            -2.3468438033        6.8031556638       16.6572634270
I            -4.7171430372       10.8761847934        1.9101025039
I            -4.6969612281       10.8761795988        9.2680180304
I            -4.7040228660       10.8858964248       16.6572238765
I            -7.0666842169       15.0863667210        2.0751391506
I            -7.0668096308       14.9546738869        9.2902956419
I            -7.0668209453       14.9603126372       16.6604325803
I             4.6012523813        2.6557363597        2.0754092856
I             4.7159516624        2.7223772691        9.2903102184
I             4.7111349385        2.7197042421       16.6604078226
I             2.3557528229        6.8016030321        1.8704418131
I             2.3557535955        6.7693049116        9.3503625317
I             2.3557111952        6.8058362237       16.6561564886
I             0.0034450227       10.8817194174        1.8994026171
I            -0.0189443920       10.8688577591        9.2273601148
I             0.0161707685       10.8892616864       16.6403325450
I            -2.3539915877       14.9590511494        1.8703505333
I            -2.3818005112       14.9750679880        9.3505596348
I            -2.3504027871       14.9570901997       16.6561183064
I             9.4228282428        2.7267006823        1.9103241115
I             9.4330096760        2.7092987761        9.2681064702
I             9.4210680700        2.7106195416       16.6571980245
I             7.0730798291        6.7964404181        1.9101845838
I             7.0631486218        6.8140083573        9.2680240743
I             7.0582764800        6.8031339508       16.6572501519
I             4.7080419560       10.8817448092        1.8993655628
I             4.7304599563       10.8688370939        9.2273196060
I             4.6952776460       10.8892387901       16.6403384221
I             2.3557650067       14.9561814638        1.8994612836
I             2.3557388984       14.9818552121        9.2274643823
I             2.3557040470       14.9414058802       16.6403131148
I            14.1337614048        2.7266639724        1.9103855996
I            14.1234999881        2.7093061185        9.2681544691
I            14.1354107163        2.7106158754       16.6572240769
I            11.7782614544        6.7998480982        1.8873604867
I            11.7782586253        6.7998508118        9.2946426172
I            11.7782476087        6.7998859629       16.6815925363
I             9.4286223226       10.8762004745        1.9100453847
I             9.4084275247       10.8761820121        9.2679955948
I             9.4154592223       10.8858860494       16.6572373226
I             7.0654731841       14.9590371091        1.8703737310
I             7.0933298045       14.9750850802        9.3504778460
I             7.0618251506       14.9570894971       16.6561393004
Pb            2.3560307172        1.3587876425        3.6410634965



     Writing config-only to output data dir ./PbI2.save/
     NEW-OLD atomic charge density approx. for the potential

     Check: negative core charge=   -0.000001


     -----------------------------------------------
     Non-local corr. energy    =      68.74238792 Ry
     -----------------------------------------------


     total cpu time spent up to now is   148581.6 secs

     Self-consistent Calculation

     iteration #  1     ecut=    70.00 Ry     beta= 0.70
     Davidson diagonalization with overlap

---- Real-time Memory Report at c_bands before calling an iterative solver
          2671 MiB given to the printing process from OS
             0 MiB allocation reported by mallinfo(arena+hblkhd)
       1962183 MiB available memory on the node where the printing process lives
------------------
     ethr =  1.00E-06,  avg # of iterations =  6.0


     -----------------------------------------------
     Non-local corr. energy    =      68.73016970 Ry
     -----------------------------------------------


     total cpu time spent up to now is   149005.8 secs

     total energy              =  -97467.99894492 Ry
     estimated scf accuracy    <       0.00624583 Ry

     iteration #  2     ecut=    70.00 Ry     beta= 0.70
     Davidson diagonalization with overlap

---- Real-time Memory Report at c_bands before calling an iterative solver
          2671 MiB given to the printing process from OS
             0 MiB allocation reported by mallinfo(arena+hblkhd)
       1950054 MiB available memory on the node where the printing process lives
------------------
     ethr =  2.72E-07,  avg # of iterations = 13.0


     -----------------------------------------------
     Non-local corr. energy    =      68.73465450 Ry
     -----------------------------------------------


     total cpu time spent up to now is   149555.1 secs

     total energy              =  -97468.00165001 Ry
     estimated scf accuracy    <       0.00946983 Ry

     iteration #  3     ecut=    70.00 Ry     beta= 0.70
     Davidson diagonalization with overlap

---- Real-time Memory Report at c_bands before calling an iterative solver
          2671 MiB given to the printing process from OS
             0 MiB allocation reported by mallinfo(arena+hblkhd)
       1950033 MiB available memory on the node where the printing process lives
------------------
     ethr =  2.72E-07,  avg # of iterations = 17.0


     -----------------------------------------------
     Non-local corr. energy    =      68.73580432 Ry
     -----------------------------------------------


     total cpu time spent up to now is   150204.1 secs

     total energy              =  -97468.00265003 Ry
     estimated scf accuracy    <       0.00488295 Ry

     iteration #  4     ecut=    70.00 Ry     beta= 0.70
     Davidson diagonalization with overlap

---- Real-time Memory Report at c_bands before calling an iterative solver
          2671 MiB given to the printing process from OS
             0 MiB allocation reported by mallinfo(arena+hblkhd)
       1949981 MiB available memory on the node where the printing process lives
------------------
     ethr =  2.12E-07,  avg # of iterations = 19.0


     -----------------------------------------------
     Non-local corr. energy    =      68.73684172 Ry
     -----------------------------------------------


     total cpu time spent up to now is   150780.6 secs

     total energy              =  -97468.00330568 Ry
     estimated scf accuracy    <       0.00093476 Ry

     iteration #  5     ecut=    70.00 Ry     beta= 0.70
     Davidson diagonalization with overlap

---- Real-time Memory Report at c_bands before calling an iterative solver
          2671 MiB given to the printing process from OS
             0 MiB allocation reported by mallinfo(arena+hblkhd)
       1949847 MiB available memory on the node where the printing process lives
------------------
     c_bands:  1 eigenvalues not converged
     ethr =  4.07E-08,  avg # of iterations = 20.0


     -----------------------------------------------
     Non-local corr. energy    =      68.73839586 Ry
     -----------------------------------------------


     total cpu time spent up to now is   151314.9 secs

     total energy              =  -97468.00336431 Ry
     estimated scf accuracy    <       0.00058453 Ry

     iteration #  6     ecut=    70.00 Ry     beta= 0.70
     Davidson diagonalization with overlap

---- Real-time Memory Report at c_bands before calling an iterative solver
          2671 MiB given to the printing process from OS
             0 MiB allocation reported by mallinfo(arena+hblkhd)
       1949698 MiB available memory on the node where the printing process lives
------------------
     ethr =  2.54E-08,  avg # of iterations =  9.0


     -----------------------------------------------
     Non-local corr. energy    =      68.74046020 Ry
     -----------------------------------------------


     total cpu time spent up to now is   151566.4 secs

     total energy              =  -97468.00338430 Ry
     estimated scf accuracy    <       0.00029710 Ry

     iteration #  7     ecut=    70.00 Ry     beta= 0.70
     Davidson diagonalization with overlap

---- Real-time Memory Report at c_bands before calling an iterative solver
          2671 MiB given to the printing process from OS
             0 MiB allocation reported by mallinfo(arena+hblkhd)
       1949548 MiB available memory on the node where the printing process lives
------------------
     ethr =  1.29E-08,  avg # of iterations = 16.0


     -----------------------------------------------
     Non-local corr. energy    =      68.74177417 Ry
     -----------------------------------------------


     total cpu time spent up to now is   151966.8 secs

     total energy              =  -97468.00339816 Ry
     estimated scf accuracy    <       0.00006101 Ry

     iteration #  8     ecut=    70.00 Ry     beta= 0.70
     Davidson diagonalization with overlap

---- Real-time Memory Report at c_bands before calling an iterative solver
          2671 MiB given to the printing process from OS
             0 MiB allocation reported by mallinfo(arena+hblkhd)
       1949389 MiB available memory on the node where the printing process lives
------------------
     ethr =  2.65E-09,  avg # of iterations = 18.0


     -----------------------------------------------
     Non-local corr. energy    =      68.74206071 Ry
     -----------------------------------------------


     total cpu time spent up to now is   152529.4 secs

     total energy              =  -97468.00340479 Ry
     estimated scf accuracy    <       0.00000473 Ry

     iteration #  9     ecut=    70.00 Ry     beta= 0.70
     Davidson diagonalization with overlap

---- Real-time Memory Report at c_bands before calling an iterative solver
          2671 MiB given to the printing process from OS
             0 MiB allocation reported by mallinfo(arena+hblkhd)
       1949207 MiB available memory on the node where the printing process lives
------------------
     ethr =  2.06E-10,  avg # of iterations = 12.0


     -----------------------------------------------
     Non-local corr. energy    =      68.74222380 Ry
     -----------------------------------------------


     total cpu time spent up to now is   153439.2 secs

     total energy              =  -97468.00340728 Ry
     estimated scf accuracy    <       0.00000148 Ry

     iteration # 10     ecut=    70.00 Ry     beta= 0.70
     Davidson diagonalization with overlap

---- Real-time Memory Report at c_bands before calling an iterative solver
          2671 MiB given to the printing process from OS
             0 MiB allocation reported by mallinfo(arena+hblkhd)
       1948970 MiB available memory on the node where the printing process lives
------------------
     ethr =  6.45E-11,  avg # of iterations = 19.0


     -----------------------------------------------
     Non-local corr. energy    =      68.74237618 Ry
     -----------------------------------------------


     total cpu time spent up to now is   154012.9 secs

     total energy              =  -97468.00340751 Ry
     estimated scf accuracy    <       0.00000036 Ry

     iteration # 11     ecut=    70.00 Ry     beta= 0.70
     Davidson diagonalization with overlap

---- Real-time Memory Report at c_bands before calling an iterative solver
          2671 MiB given to the printing process from OS
             0 MiB allocation reported by mallinfo(arena+hblkhd)
       1948919 MiB available memory on the node where the printing process lives
------------------
     ethr =  1.58E-11,  avg # of iterations = 19.0


     -----------------------------------------------
     Non-local corr. energy    =      68.74240241 Ry
     -----------------------------------------------


     total cpu time spent up to now is   154708.4 secs

     total energy              =  -97468.00340754 Ry
     estimated scf accuracy    <       0.00000020 Ry

     iteration # 12     ecut=    70.00 Ry     beta= 0.70
     Davidson diagonalization with overlap

---- Real-time Memory Report at c_bands before calling an iterative solver
          2671 MiB given to the printing process from OS
             0 MiB allocation reported by mallinfo(arena+hblkhd)
       1948957 MiB available memory on the node where the printing process lives
------------------

     Maximum CPU time exceeded

     max_seconds     =  154800.00
     elapsed seconds =  155374.76
     Calculation stopped in k-point loop, point #     1
     Calculation stopped in scf loop at iteration #    11

     Writing config to output data dir ./PbI2.save/
     Message from routine punch:
     wavefunctions written to file
 
     init_run     :     33.02s CPU     34.44s WALL (       1 calls)
     electrons    : 146677.01s CPU 148675.95s WALL (      18 calls)
     update_pot   :     58.87s CPU     59.33s WALL (      17 calls)
     forces       :    359.22s CPU    371.39s WALL (      17 calls)
     stress       :   6057.34s CPU   6119.74s WALL (      17 calls)

     Called by init_run:
     wfcinit      :     26.60s CPU     27.35s WALL (       1 calls)
     wfcinit:atom :      0.08s CPU      0.14s WALL (       1 calls)
     wfcinit:wfcr :     26.18s CPU     26.61s WALL (       1 calls)
     potinit      :      1.71s CPU      2.00s WALL (       1 calls)
     hinit0       :      0.73s CPU      0.77s WALL (       1 calls)

     Called by electrons:
     c_bands      : 144510.39s CPU 146378.69s WALL (     220 calls)
     sum_band     :   1717.12s CPU   1794.08s WALL (     219 calls)
     v_of_rho     :    175.20s CPU    181.23s WALL (     225 calls)
     v_h          :      2.20s CPU      2.22s WALL (     225 calls)
     v_xc         :    205.30s CPU    211.90s WALL (     259 calls)
     newd         :    118.42s CPU    161.70s WALL (     225 calls)
     PAW_pot      :    136.60s CPU    137.71s WALL (     242 calls)
     mix_rho      :      8.74s CPU      9.24s WALL (     219 calls)
     vdW_kernel   :      0.26s CPU      0.27s WALL (       1 calls)

     Called by c_bands:
     init_us_2    :     47.54s CPU     48.32s WALL (     457 calls)
     init_us_2:cp :     47.53s CPU     48.31s WALL (     457 calls)
     cegterg      : 144370.94s CPU 146126.09s WALL (     221 calls)

     Called by sum_band:
     sum_band:wei :      0.09s CPU      0.10s WALL (     219 calls)
     sum_band:loo :   1593.22s CPU   1605.48s WALL (     219 calls)
     sum_band:buf :      0.00s CPU      0.00s WALL (     219 calls)
     sum_band:ini :     34.77s CPU     35.22s WALL (     219 calls)
     sum_band:cal :    927.98s CPU    934.77s WALL (     236 calls)
     sum_band:bec :     10.11s CPU     10.30s WALL (     236 calls)
     addusdens    :    109.24s CPU    163.32s WALL (     219 calls)
     addusd:skk   :      6.53s CPU     19.55s WALL (     438 calls)
     addusd:dgemm :     60.88s CPU    100.10s WALL (     438 calls)
     addusd:qvan2 :     39.72s CPU     40.08s WALL (     438 calls)

     Called by *egterg:
     cdiaghg      : 122627.94s CPU 123488.81s WALL (    3924 calls)
     cegterg:over :   4797.40s CPU   4929.14s WALL (    3733 calls)
     cegterg:upda :   2996.20s CPU   3043.84s WALL (    3733 calls)
     cegterg:last :   1300.51s CPU   1310.44s WALL (     225 calls)
     h_psi        :   8882.22s CPU   9011.12s WALL (    3955 calls)
     s_psi        :   2485.38s CPU   2526.06s WALL (    3955 calls)
     g_psi        :     11.09s CPU     11.24s WALL (    3733 calls)

     Called by h_psi:
     h_psi:calbec :   2710.40s CPU   2730.53s WALL (    3955 calls)
     vloc_psi     :   3642.92s CPU   3675.02s WALL (    3955 calls)
     add_vuspsi   :   2484.93s CPU   2527.31s WALL (    3955 calls)

     General routines
     calbec       :   3975.85s CPU   4005.51s WALL (    4276 calls)
     fft          :    164.89s CPU    166.74s WALL (   17043 calls)
     ffts         :      4.31s CPU      4.44s WALL (     444 calls)
     fftw         :   4131.37s CPU   4166.68s WALL ( 2039575 calls)
     interpolate  :      4.26s CPU      4.31s WALL (     225 calls)
     davcio       :      0.00s CPU      0.05s WALL (      19 calls)
 
     Parallel routines

     PAW routines
     PAW_pot      :    136.60s CPU    137.71s WALL (     242 calls)
 
     PWSCF        :   1d18h34m CPU   1d19h 9m WALL

 
   This run was terminated on:  16:33: 7  26Mar2024            

=------------------------------------------------------------------------------=
   JOB DONE.
=------------------------------------------------------------------------------=
