
     Program PWSCF v.7.1 starts on  3Mar2024 at  8:13:16 

     This program is part of the open-source Quantum ESPRESSO suite
     for quantum simulation of materials; please cite
         "P. Giannozzi et al., J. Phys.:Condens. Matter 21 395502 (2009);
         "P. Giannozzi et al., J. Phys.:Condens. Matter 29 465901 (2017);
         "P. Giannozzi et al., J. Chem. Phys. 152 154105 (2020);
          URL http://www.quantum-espresso.org", 
     in publications or presentations arising from this work. More details at
     http://www.quantum-espresso.org/quote

     Parallel version (MPI & OpenMP), running on     128 processor cores
     Number of MPI processes:               128
     Threads/MPI process:                     1

     MPI processes distributed on     1 nodes
     1553509 MiB available memory on the printing compute node when the environment starts
 
     Reading input from espresso.pwi
Warning: card &CELL ignored
Warning: card    CELL_DYNAMICS    = 'BFGS' ignored
Warning: card / ignored

     Current dimensions of program PWSCF are:
     Max number of different atomic species (ntypx) = 10
     Max number of k-points (npk) =  40000
     Max angular momentum in pseudopotentials (lmaxx) =  4
     file Pb.pbe-dn-kjpaw_psl.1.0.0.UPF: wavefunction(s)  6S 6P 5D renormalized
     file I.pbe-dn-kjpaw_psl.1.0.0.UPF: wavefunction(s)  5S 5P renormalized

     **************************************************************************
     Initializing libbeef V0.1.2 with the BEEF-vdW functional.
     Citation: Wellendorff et al., PRB 85, 235149 (2012).
     **************************************************************************


     IMPORTANT: XC functional enforced from input :
     Exchange-correlation= BEEF-VDW
                           (   1   4  43  14   2   0   0)
     Any further DFT definition will be discarded
     Please, verify this is what you really want

 
     R & G space division:  proc/nbgrp/npool/nimage =     128
     Subspace diagonalization in iterative solution of the eigenvalue problem:
     a serial algorithm will be used

 
     Parallelization info
     --------------------
     sticks:   dense  smooth     PW     G-vecs:    dense   smooth      PW
     Min         238     190     47                26444    18918    2361
     Max         239     191     48                26451    18927    2368
     Sum       30577   24439   6121              3385235  2422379  302703
 
     Using Slab Decomposition
 


     bravais-lattice index     =            4
     lattice parameter (alat)  =      35.6073  a.u.
     unit-cell volume          =   30614.2220 (a.u.)^3
     number of atoms/cell      =           96
     number of atomic types    =            2
     number of electrons       =      1532.00
     number of Kohn-Sham states=          919
     kinetic-energy cutoff     =      70.0000  Ry
     charge density cutoff     =     350.0000  Ry
     scf convergence threshold =      1.0E-07
     mixing beta               =       0.7000
     number of iterations used =            8  plain     mixing
     Exchange-correlation= BEEF-VDW
                           (   1   4  43  14   2   0   0)

     celldm(1)=  35.607290  celldm(2)=   0.000000  celldm(3)=   0.783025
     celldm(4)=   0.000000  celldm(5)=   0.000000  celldm(6)=   0.000000

     crystal axes: (cart. coord. in units of alat)
               a(1) = (   1.000000   0.000000   0.000000 )  
               a(2) = (  -0.500000   0.866025   0.000000 )  
               a(3) = (   0.000000   0.000000   0.783025 )  

     reciprocal axes: (cart. coord. in units 2 pi/alat)
               b(1) = (  1.000000  0.577350 -0.000000 )  
               b(2) = (  0.000000  1.154701  0.000000 )  
               b(3) = (  0.000000 -0.000000  1.277098 )  


     PseudoPot. # 1 for Pb read from file:
     /trace/group/acmegroup/atimmins/packages/espresso/pseudo/psl_1.0.0/pslibrary.1.0.0/pbe/PSEUDOPOTENTIALS/Pb.pbe-dn-kjpaw_psl.1.0.0.UPF
     MD5 check sum: 39ab5b8a6bbd56b7735ad9f188aac93a
     Pseudo is Projector augmented-wave + core cor, Zval = 14.0
     Generated using 'atomic' code by A. Dal Corso  v.7.1
     Shape of augmentation charge: PSQ
     Using radial grid of 1281 points,  6 beta functions with: 
                l(1) =   0
                l(2) =   0
                l(3) =   1
                l(4) =   1
                l(5) =   2
                l(6) =   2
     Q(r) pseudized with 0 coefficients 


     PseudoPot. # 2 for I  read from file:
     /trace/group/acmegroup/atimmins/packages/espresso/pseudo/psl_1.0.0/pslibrary.1.0.0/pbe/PSEUDOPOTENTIALS/I.pbe-dn-kjpaw_psl.1.0.0.UPF
     MD5 check sum: bfa8781bc1224d19af3f3980e3fab11e
     Pseudo is Projector augmented-wave + core cor, Zval = 17.0
     Generated using 'atomic' code by A. Dal Corso  v.7.1
     Shape of augmentation charge: PSQ
     Using radial grid of 1247 points,  6 beta functions with: 
                l(1) =   0
                l(2) =   0
                l(3) =   1
                l(4) =   1
                l(5) =   2
                l(6) =   2
     Q(r) pseudized with 0 coefficients 


     atomic species   valence    mass     pseudopotential
        Pb            14.00   207.20000     Pb( 1.00)
        I             17.00   126.90447     I ( 1.00)

     No symmetry found


                                    s                        frac. trans.

      isym =  1     identity                                     

 cryst.   s( 1) = (     1          0          0      )
                  (     0          1          0      )
                  (     0          0          1      )

 cart.    s( 1) = (  1.0000000  0.0000000  0.0000000 )
                  (  0.0000000  1.0000000  0.0000000 )
                  (  0.0000000  0.0000000  1.0000000 )


     point group C_1 (1)    
     there are  1 classes
     the character table:

       E    
A      1.00

     the symmetry operations in each class and the name of the first element:

     E        1
          identity                                               

   Cartesian axes

     site n.     atom                  positions (alat units)
         1           Pb  tau(   1) = (   0.1250086   0.2164870   0.7830203  )
         2           Pb  tau(   2) = (   0.1250034   0.2164916   0.3915076  )
         3           Pb  tau(   3) = (   0.0000077   0.4329922   0.7830161  )
         4           Pb  tau(   4) = (   0.0000025   0.4329968   0.3915034  )
         5           Pb  tau(   5) = (  -0.1249932   0.6494975   0.7830119  )
         6           Pb  tau(   6) = (  -0.1249984   0.6495021   0.3914992  )
         7           Pb  tau(   7) = (  -0.2499941   0.8660028   0.7830077  )
         8           Pb  tau(   8) = (  -0.2499993   0.8660074   0.3914950  )
         9           Pb  tau(   9) = (   0.3750086   0.2164859   0.7830237  )
        10           Pb  tau(  10) = (   0.3750034   0.2164905   0.3915110  )
        11           Pb  tau(  11) = (   0.2500077   0.4329912   0.7830194  )
        12           Pb  tau(  12) = (   0.2500025   0.4329958   0.3915068  )
        13           Pb  tau(  13) = (   0.1250068   0.6494965   0.7830152  )
        14           Pb  tau(  14) = (   0.1250016   0.6495011   0.3915026  )
        15           Pb  tau(  15) = (   0.0000059   0.8660017   0.7830110  )
        16           Pb  tau(  16) = (   0.0000007   0.8660063   0.3914983  )
        17           Pb  tau(  17) = (   0.6250086   0.2164849   0.7830270  )
        18           Pb  tau(  18) = (   0.6250034   0.2164895   0.3915143  )
        19           Pb  tau(  19) = (   0.5000077   0.4329901   0.7830228  )
        20           Pb  tau(  20) = (   0.5000025   0.4329947   0.3915101  )
        21           Pb  tau(  21) = (   0.3750068   0.6494954   0.7830186  )
        22           Pb  tau(  22) = (   0.3750016   0.6495000   0.3915059  )
        23           Pb  tau(  23) = (   0.2500059   0.8660007   0.7830144  )
        24           Pb  tau(  24) = (   0.2500007   0.8660053   0.3915017  )
        25           Pb  tau(  25) = (   0.8750086   0.2164838   0.7830303  )
        26           Pb  tau(  26) = (   0.8750034   0.2164884   0.3915177  )
        27           Pb  tau(  27) = (   0.7500077   0.4329891   0.7830261  )
        28           Pb  tau(  28) = (   0.7500025   0.4329937   0.3915135  )
        29           Pb  tau(  29) = (   0.6250068   0.6494944   0.7830219  )
        30           Pb  tau(  30) = (   0.6250016   0.6494990   0.3915092  )
        31           Pb  tau(  31) = (   0.5000059   0.8659996   0.7830177  )
        32           Pb  tau(  32) = (   0.5000007   0.8660042   0.3915050  )
        33           I   tau(  33) = (   0.1250108   0.0721500   0.6824290  )
        34           I   tau(  34) = (   0.0000047   0.2886599   0.2909121  )
        35           I   tau(  35) = (   0.0000099   0.2886553   0.6824248  )
        36           I   tau(  36) = (  -0.1249962   0.5051652   0.2909079  )
        37           I   tau(  37) = (  -0.1249910   0.5051606   0.6824206  )
        38           I   tau(  38) = (  -0.2499972   0.7216704   0.2909037  )
        39           I   tau(  39) = (  -0.2499919   0.7216658   0.6824164  )
        40           I   tau(  40) = (   0.3750056   0.0721536   0.2909197  )
        41           I   tau(  41) = (   0.3750108   0.0721490   0.6824324  )
        42           I   tau(  42) = (   0.2500047   0.2886589   0.2909155  )
        43           I   tau(  43) = (   0.2500099   0.2886543   0.6824282  )
        44           I   tau(  44) = (   0.1250038   0.5051641   0.2909113  )
        45           I   tau(  45) = (   0.1250090   0.5051595   0.6824240  )
        46           I   tau(  46) = (   0.0000028   0.7216694   0.2909071  )
        47           I   tau(  47) = (   0.0000081   0.7216648   0.6824197  )
        48           I   tau(  48) = (   0.6250056   0.0721525   0.2909230  )
        49           I   tau(  49) = (   0.6250108   0.0721479   0.6824357  )
        50           I   tau(  50) = (   0.5000047   0.2886578   0.2909188  )
        51           I   tau(  51) = (   0.5000099   0.2886532   0.6824315  )
        52           I   tau(  52) = (   0.3750038   0.5051631   0.2909146  )
        53           I   tau(  53) = (   0.3750090   0.5051585   0.6824273  )
        54           I   tau(  54) = (   0.2500028   0.7216683   0.2909104  )
        55           I   tau(  55) = (   0.2500081   0.7216637   0.6824231  )
        56           I   tau(  56) = (   0.8750056   0.0721515   0.2909264  )
        57           I   tau(  57) = (   0.8750108   0.0721469   0.6824391  )
        58           I   tau(  58) = (   0.7500047   0.2886567   0.2909222  )
        59           I   tau(  59) = (   0.7500099   0.2886521   0.6824348  )
        60           I   tau(  60) = (   0.6250038   0.5051620   0.2909180  )
        61           I   tau(  61) = (   0.6250090   0.5051574   0.6824306  )
        62           I   tau(  62) = (   0.5000028   0.7216673   0.2909137  )
        63           I   tau(  63) = (   0.5000081   0.7216627   0.6824264  )
        64           I   tau(  64) = (  -0.0000018   0.1443297   0.1005933  )
        65           I   tau(  65) = (   0.0000034   0.1443251   0.4921060  )
        66           I   tau(  66) = (  -0.1250027   0.3608350   0.1005891  )
        67           I   tau(  67) = (  -0.1249975   0.3608304   0.4921018  )
        68           I   tau(  68) = (  -0.2500036   0.5773403   0.1005849  )
        69           I   tau(  69) = (  -0.2499984   0.5773357   0.4920975  )
        70           I   tau(  70) = (  -0.3750045   0.7938455   0.1005807  )
        71           I   tau(  71) = (  -0.3749993   0.7938409   0.4920933  )
        72           I   tau(  72) = (   0.2499982   0.1443287   0.1005966  )
        73           I   tau(  73) = (   0.2500034   0.1443241   0.4921093  )
        74           I   tau(  74) = (   0.1249973   0.3608340   0.1005924  )
        75           I   tau(  75) = (   0.1250025   0.3608294   0.4921051  )
        76           I   tau(  76) = (  -0.0000036   0.5773392   0.1005882  )
        77           I   tau(  77) = (   0.0000016   0.5773346   0.4921009  )
        78           I   tau(  78) = (  -0.1250045   0.7938445   0.1005840  )
        79           I   tau(  79) = (  -0.1249993   0.7938399   0.4920967  )
        80           I   tau(  80) = (   0.4999982   0.1443276   0.1006000  )
        81           I   tau(  81) = (   0.5000034   0.1443230   0.4921126  )
        82           I   tau(  82) = (   0.3749973   0.3608329   0.1005958  )
        83           I   tau(  83) = (   0.3750025   0.3608283   0.4921084  )
        84           I   tau(  84) = (   0.2499964   0.5773382   0.1005915  )
        85           I   tau(  85) = (   0.2500016   0.5773336   0.4921042  )
        86           I   tau(  86) = (   0.1249955   0.7938434   0.1005873  )
        87           I   tau(  87) = (   0.1250007   0.7938388   0.4921000  )
        88           I   tau(  88) = (   0.7499982   0.1443266   0.1006033  )
        89           I   tau(  89) = (   0.7500034   0.1443220   0.4921160  )
        90           I   tau(  90) = (   0.6249973   0.3608319   0.1005991  )
        91           I   tau(  91) = (   0.6250025   0.3608273   0.4921118  )
        92           I   tau(  92) = (   0.4999964   0.5773371   0.1005949  )
        93           I   tau(  93) = (   0.5000016   0.5773325   0.4921076  )
        94           I   tau(  94) = (   0.3749955   0.7938424   0.1005907  )
        95           I   tau(  95) = (   0.3750007   0.7938378   0.4921034  )
        96           Pb  tau(  96) = (   0.1250056   0.0721546   0.2909163  )

   Crystallographic axes

     site n.     atom                  positions (cryst. coord.)
         1           Pb  tau(   1) = (  0.2499975  0.2499776  0.9999935  )
         2           Pb  tau(   2) = (  0.2499949  0.2499829  0.4999935  )
         3           Pb  tau(   3) = (  0.2499959  0.4999764  0.9999882  )
         4           Pb  tau(   4) = (  0.2499933  0.4999817  0.4999882  )
         5           Pb  tau(   5) = (  0.2499944  0.7499751  0.9999828  )
         6           Pb  tau(   6) = (  0.2499918  0.7499804  0.4999828  )
         7           Pb  tau(   7) = (  0.2499928  0.9999739  0.9999774  )
         8           Pb  tau(   8) = (  0.2499903  0.9999792  0.4999774  )
         9           Pb  tau(   9) = (  0.4999968  0.2499764  0.9999978  )
        10           Pb  tau(  10) = (  0.4999943  0.2499817  0.4999978  )
        11           Pb  tau(  11) = (  0.4999953  0.4999752  0.9999924  )
        12           Pb  tau(  12) = (  0.4999927  0.4999805  0.4999924  )
        13           Pb  tau(  13) = (  0.4999938  0.7499739  0.9999871  )
        14           Pb  tau(  14) = (  0.4999912  0.7499792  0.4999871  )
        15           Pb  tau(  15) = (  0.4999922  0.9999727  0.9999817  )
        16           Pb  tau(  16) = (  0.4999896  0.9999780  0.4999817  )
        17           Pb  tau(  17) = (  0.7499962  0.2499752  1.0000021  )
        18           Pb  tau(  18) = (  0.7499936  0.2499805  0.5000021  )
        19           Pb  tau(  19) = (  0.7499947  0.4999739  0.9999967  )
        20           Pb  tau(  20) = (  0.7499921  0.4999793  0.4999967  )
        21           Pb  tau(  21) = (  0.7499932  0.7499727  0.9999913  )
        22           Pb  tau(  22) = (  0.7499906  0.7499780  0.4999913  )
        23           Pb  tau(  23) = (  0.7499916  0.9999714  0.9999860  )
        24           Pb  tau(  24) = (  0.7499890  0.9999767  0.4999860  )
        25           Pb  tau(  25) = (  0.9999956  0.2499740  1.0000064  )
        26           Pb  tau(  26) = (  0.9999930  0.2499793  0.5000064  )
        27           Pb  tau(  27) = (  0.9999941  0.4999727  1.0000010  )
        28           Pb  tau(  28) = (  0.9999915  0.4999780  0.5000010  )
        29           Pb  tau(  29) = (  0.9999926  0.7499715  0.9999956  )
        30           Pb  tau(  30) = (  0.9999900  0.7499768  0.4999956  )
        31           Pb  tau(  31) = (  0.9999910  0.9999702  0.9999902  )
        32           Pb  tau(  32) = (  0.9999884  0.9999755  0.4999902  )
        33           I   tau(  33) = (  0.1666667  0.0833117  0.8715286  )
        34           I   tau(  34) = (  0.1666625  0.3333157  0.3715233  )
        35           I   tau(  35) = (  0.1666651  0.3333104  0.8715233  )
        36           I   tau(  36) = (  0.1666610  0.5833145  0.3715179  )
        37           I   tau(  37) = (  0.1666636  0.5833092  0.8715179  )
        38           I   tau(  38) = (  0.1666595  0.8333132  0.3715125  )
        39           I   tau(  39) = (  0.1666621  0.8333079  0.8715125  )
        40           I   tau(  40) = (  0.4166635  0.0833158  0.3715329  )
        41           I   tau(  41) = (  0.4166661  0.0833105  0.8715329  )
        42           I   tau(  42) = (  0.4166619  0.3333145  0.3715275  )
        43           I   tau(  43) = (  0.4166645  0.3333092  0.8715275  )
        44           I   tau(  44) = (  0.4166604  0.5833133  0.3715222  )
        45           I   tau(  45) = (  0.4166630  0.5833080  0.8715221  )
        46           I   tau(  46) = (  0.4166589  0.8333120  0.3715168  )
        47           I   tau(  47) = (  0.4166614  0.8333067  0.8715168  )
        48           I   tau(  48) = (  0.6666629  0.0833146  0.3715372  )
        49           I   tau(  49) = (  0.6666655  0.0833093  0.8715372  )
        50           I   tau(  50) = (  0.6666613  0.3333133  0.3715318  )
        51           I   tau(  51) = (  0.6666639  0.3333080  0.8715318  )
        52           I   tau(  52) = (  0.6666598  0.5833121  0.3715264  )
        53           I   tau(  53) = (  0.6666624  0.5833068  0.8715264  )
        54           I   tau(  54) = (  0.6666582  0.8333108  0.3715210  )
        55           I   tau(  55) = (  0.6666608  0.8333055  0.8715210  )
        56           I   tau(  56) = (  0.9166623  0.0833134  0.3715414  )
        57           I   tau(  57) = (  0.9166648  0.0833080  0.8715414  )
        58           I   tau(  58) = (  0.9166607  0.3333121  0.3715361  )
        59           I   tau(  59) = (  0.9166633  0.3333068  0.8715361  )
        60           I   tau(  60) = (  0.9166592  0.5833108  0.3715307  )
        61           I   tau(  61) = (  0.9166618  0.5833055  0.8715307  )
        62           I   tau(  62) = (  0.9166576  0.8333096  0.3715253  )
        63           I   tau(  63) = (  0.9166602  0.8333043  0.8715253  )
        64           I   tau(  64) = (  0.0833270  0.1666576  0.1284675  )
        65           I   tau(  65) = (  0.0833296  0.1666523  0.6284675  )
        66           I   tau(  66) = (  0.0833255  0.4166564  0.1284621  )
        67           I   tau(  67) = (  0.0833281  0.4166511  0.6284621  )
        68           I   tau(  68) = (  0.0833239  0.6666551  0.1284567  )
        69           I   tau(  69) = (  0.0833265  0.6666498  0.6284567  )
        70           I   tau(  70) = (  0.0833224  0.9166539  0.1284513  )
        71           I   tau(  71) = (  0.0833250  0.9166486  0.6284513  )
        72           I   tau(  72) = (  0.3333264  0.1666564  0.1284717  )
        73           I   tau(  73) = (  0.3333290  0.1666511  0.6284717  )
        74           I   tau(  74) = (  0.3333249  0.4166552  0.1284664  )
        75           I   tau(  75) = (  0.3333275  0.4166499  0.6284663  )
        76           I   tau(  76) = (  0.3333233  0.6666539  0.1284610  )
        77           I   tau(  77) = (  0.3333259  0.6666486  0.6284610  )
        78           I   tau(  78) = (  0.3333218  0.9166527  0.1284556  )
        79           I   tau(  79) = (  0.3333244  0.9166473  0.6284556  )
        80           I   tau(  80) = (  0.5833258  0.1666552  0.1284760  )
        81           I   tau(  81) = (  0.5833284  0.1666499  0.6284760  )
        82           I   tau(  82) = (  0.5833243  0.4166539  0.1284706  )
        83           I   tau(  83) = (  0.5833269  0.4166486  0.6284706  )
        84           I   tau(  84) = (  0.5833227  0.6666527  0.1284652  )
        85           I   tau(  85) = (  0.5833253  0.6666474  0.6284652  )
        86           I   tau(  86) = (  0.5833212  0.9166514  0.1284599  )
        87           I   tau(  87) = (  0.5833238  0.9166461  0.6284599  )
        88           I   tau(  88) = (  0.8333252  0.1666540  0.1284803  )
        89           I   tau(  89) = (  0.8333278  0.1666487  0.6284803  )
        90           I   tau(  90) = (  0.8333237  0.4166527  0.1284749  )
        91           I   tau(  91) = (  0.8333262  0.4166474  0.6284749  )
        92           I   tau(  92) = (  0.8333221  0.6666515  0.1284695  )
        93           I   tau(  93) = (  0.8333247  0.6666462  0.6284695  )
        94           I   tau(  94) = (  0.8333206  0.9166502  0.1284641  )
        95           I   tau(  95) = (  0.8333232  0.9166449  0.6284641  )
        96           Pb  tau(  96) = (  0.1666641  0.0833170  0.3715286  )

     number of k points=     1  Gaussian smearing, width (Ry)=  0.0100
                       cart. coord. in units 2pi/alat
        k(    1) = (   0.0000000   0.0000000   0.0000000), wk =   2.0000000

                       cryst. coord.
        k(    1) = (   0.0000000   0.0000000   0.0000000), wk =   2.0000000

     Dense  grid:  3385235 G-vectors     FFT dimensions: ( 216, 216, 180)

     Smooth grid:  2422379 G-vectors     FFT dimensions: ( 192, 192, 150)

     Dynamical RAM for                 wfc:      33.16 MB

     Dynamical RAM for     wfc (w. buffer):      33.16 MB

     Dynamical RAM for           str. fact:       0.81 MB

     Dynamical RAM for           local pot:       0.00 MB

     Dynamical RAM for          nlocal pot:      62.36 MB

     Dynamical RAM for                qrad:       3.00 MB

     Dynamical RAM for          rho,v,vnew:       3.35 MB

     Dynamical RAM for               rhoin:       1.12 MB

     Dynamical RAM for            rho*nmix:       6.46 MB

     Dynamical RAM for           G-vectors:       1.66 MB

     Dynamical RAM for          h,s,v(r/c):     618.57 MB

     Dynamical RAM for          <psi|beta>:      24.23 MB

     Dynamical RAM for                 psi:     132.66 MB

     Dynamical RAM for                hpsi:     132.66 MB

     Dynamical RAM for                spsi:     132.66 MB

     Dynamical RAM for      wfcinit/wfcrot:      85.67 MB

     Dynamical RAM for           addusdens:     100.50 MB

     Dynamical RAM for          addusforce:     150.99 MB

     Dynamical RAM for         addusstress:      81.13 MB

     Estimated static dynamical RAM per process >     110.22 MB

     Estimated max dynamical RAM per process >       1.13 GB

     Estimated total dynamical RAM >     144.68 GB

     Atomic positions and unit cell read from directory:
     ./PbI2.save/
     Atomic positions from file used, from input discarded
 

     Check: negative core charge=   -0.000001

     The initial density is read from file :
     ./PbI2.save/charge-density



     %%%%%%%%%%%%%%%%%%%%%%%%%%%%%%%%%%%%%%%%%%%%%%%%%%%%%%%%%%%%%%%%%%%%%%%%
     %                                                                      %
     % You are using vdW-DF, which was implemented by the Thonhauser group. %
     % Please cite the following two papers that made this development      %
     % possible and the two reviews that describe the various versions:     %
     %                                                                      %
     %   T. Thonhauser et al., PRL 115, 136402 (2015).                      %
     %   T. Thonhauser et al., PRB 76, 125112 (2007).                       %
     %   K. Berland et al., Rep. Prog. Phys. 78, 066501 (2015).             %
     %   D.C. Langreth et al., J. Phys.: Condens. Matter 21, 084203 (2009). %
     %                                                                      %
     % If you are calculating stress with vdW-DF, please also cite:         %
     %                                                                      %
     %   R. Sabatini et al., J. Phys.: Condens. Matter 24, 424209 (2012).   %
     %                                                                      %
     %%%%%%%%%%%%%%%%%%%%%%%%%%%%%%%%%%%%%%%%%%%%%%%%%%%%%%%%%%%%%%%%%%%%%%%%

     %%%%%%%%%%%%%%%%%%%%%%%%%%%%%%%%%%%%%%%%%%%%%%%%%%%%%%%%%%%%%%%%%%%%%%%%
     %                                                                      %
     %  vdW-DF NEWS:                                                        %
     %                                                                      %
     %  * vdW-DF3 is now available. DOI: 10.1021/acs.jctc.0c00471           %
     %    use with input_dft = 'vdW-DF3-opt1' or 'vdW-DF3-opt2'             %
     %                                                                      %
     %  * Unscreened and range-separated vdW-DF hybrid functionals          %
     %    DOI: 10.1063/1.4986522 and 10.1088/1361-648X/ac2ad2               %
     %    use with input_dft = 'vdW-DF-cx0' (etc) and 'vdW-DF-ahcx'         %
     %                                                                      %
     %%%%%%%%%%%%%%%%%%%%%%%%%%%%%%%%%%%%%%%%%%%%%%%%%%%%%%%%%%%%%%%%%%%%%%%%


     Carrying out vdW-DF run using the following parameters:
     Nqs    =  20  Npoints =  1024  r_max =  100.000
     q_mesh =  0.00001000  0.04494208  0.09755937  0.15916263
               0.23128650  0.31572767  0.41458969  0.53033537
               0.66584808  0.82450364  1.01025438  1.22772762
               1.48234092  1.78043706  2.12944203  2.53805004
               3.01644009  3.57652955  4.23227104  5.00000000


     -----------------------------------------------
     Non-local corr. energy    =      45.71461553 Ry
     -----------------------------------------------

     Starting wfcs from file
     Checking if some PAW data can be deallocated... 
       PAW data deallocated on   63 nodes for type:  1
       PAW data deallocated on   65 nodes for type:  2

     total cpu time spent up to now is       20.6 secs

     Self-consistent Calculation

     iteration #  1     ecut=    70.00 Ry     beta= 0.70
     Davidson diagonalization with overlap

---- Real-time Memory Report at c_bands before calling an iterative solver
           374 MiB given to the printing process from OS
             0 MiB allocation reported by mallinfo(arena+hblkhd)
       1527853 MiB available memory on the node where the printing process lives
------------------
     ethr =  1.00E-05,  avg # of iterations =  1.0

     Threshold (ethr) on eigenvalues was too large:
     Diagonalizing with lowered threshold

     Davidson diagonalization with overlap

---- Real-time Memory Report at c_bands before calling an iterative solver
           964 MiB given to the printing process from OS
             0 MiB allocation reported by mallinfo(arena+hblkhd)
       1512377 MiB available memory on the node where the printing process lives
------------------
     c_bands:  2 eigenvalues not converged
     ethr =  3.10E-13,  avg # of iterations = 20.0


     -----------------------------------------------
     Non-local corr. energy    =      45.71461521 Ry
     -----------------------------------------------


     total cpu time spent up to now is      251.5 secs

     End of self-consistent calculation

          k = 0.0000 0.0000 0.0000 (302703 PWs)   bands (ev):

   -41.2093 -41.2091 -41.2090 -41.1880 -41.1878 -41.1878 -41.1876 -41.1876
   -41.1875 -41.1267 -41.1265 -41.1264 -41.1263 -41.1261 -41.1260 -40.9951
   -40.9950 -40.9950 -40.9837 -40.9837 -40.9836 -40.9834 -40.9834 -40.9833
   -40.9517 -40.9517 -40.9516 -40.9512 -40.9512 -40.9511 -40.9414 -40.9414
   -40.9414 -40.9414 -40.9412 -40.9412 -40.9344 -40.9344 -40.9343 -40.9343
   -40.9342 -40.9342 -40.9322 -40.9322 -40.9322 -40.9321 -40.9320 -40.9320
   -40.9120 -40.9120 -40.9119 -40.9119 -40.9118 -40.9118 -40.9115 -40.9114
   -40.9114 -40.9114 -40.9113 -40.9112 -40.8899 -40.8898 -40.8898 -40.8897
   -40.8897 -40.8897 -40.8893 -40.8893 -40.8892 -40.8892 -40.8892 -40.8892
   -40.8815 -40.8815 -40.8814 -40.8814 -40.8814 -40.8814 -40.8787 -40.8786
   -40.8786 -40.8786 -40.8786 -40.8785 -40.8774 -40.8773 -40.8773 -40.8773
   -40.8772 -40.8772 -40.8604 -40.8603 -40.8603 -40.8598 -40.8597 -40.8597
   -40.8584 -40.8584 -40.8550 -40.8549 -40.8549 -40.8544 -40.8544 -40.8543
   -40.8536 -40.8535 -40.8535 -40.8490 -40.8490 -40.8455 -40.8412 -40.8411
   -40.8411 -40.8407 -40.8407 -40.8406 -40.8402 -40.8402 -40.8400 -40.8389
   -40.8389 -40.8388 -40.8388 -40.8388 -40.8387 -40.8387 -40.8386 -40.8386
   -40.8384 -40.8383 -40.8382 -40.8378 -40.8378 -40.8376 -40.8352 -40.8352
   -40.8350 -40.8346 -40.8346 -40.8344 -40.8228 -40.8227 -40.8227 -40.8227
   -40.8226 -40.8226 -40.8220 -40.8219 -40.8219 -40.8209 -40.8208 -40.8208
   -40.8205 -40.8204 -40.8204 -40.8195 -40.8195 -40.8146 -40.8146 -40.8128
   -40.7694 -40.7693 -40.7692 -40.7682 -40.7681 -40.7680 -40.7577 -40.7575
   -40.7575 -40.7443 -40.7441 -40.7441 -40.7434 -40.7433 -40.7432 -40.6522
   -40.6521 -40.6521 -40.6493 -40.6492 -40.6492 -40.6488 -40.6488 -40.6487
   -40.6422 -40.6421 -40.6421 -40.6416 -40.6415 -40.6415 -40.6143 -40.6143
   -40.6142 -40.6135 -40.6135 -40.6134 -40.6123 -40.6123 -40.6122 -40.6108
   -40.6107 -40.6107 -40.6097 -40.6097 -40.6096 -40.6096 -40.6096 -40.6095
   -40.6095 -40.6094 -40.6094 -40.6077 -40.6076 -40.6076 -40.6056 -40.6056
   -40.6055 -40.6055 -40.6054 -40.6054 -40.6049 -40.6049 -40.6048 -40.6048
   -40.6048 -40.6047 -40.6045 -40.6045 -40.6044 -40.6044 -40.6043 -40.6043
   -40.6040 -40.6040 -40.6040 -40.6039 -40.6039 -40.6039 -40.6023 -40.6022
   -40.6022 -40.6022 -40.6021 -40.6021 -40.6021 -40.6020 -40.6020 -40.6020
   -40.6019 -40.6019 -40.6017 -40.6017 -40.6017 -40.6016 -40.6016 -40.6016
   -40.6012 -40.6011 -40.6011 -40.6011 -40.6010 -40.6010 -40.5938 -40.5937
   -40.5937 -40.5936 -40.5936 -40.5936 -40.5882 -40.5881 -40.5881 -40.5880
   -40.5880 -40.5880 -40.5858 -40.5857 -40.5857 -40.5857 -40.5857 -40.5856
   -40.5321 -40.5321 -40.5321 -40.5306 -40.5306 -40.5224 -40.5223 -40.5223
   -40.5205 -40.5204 -40.5203 -40.5197 -40.5197 -40.5196 -40.5196 -40.5196
   -40.5195 -40.5181 -40.5180 -40.5180 -40.5110 -40.5110 -40.5110 -40.5104
   -40.5103 -40.5103 -40.4990 -40.4989 -40.4987 -40.4977 -40.4977 -40.4975
   -40.4915 -40.4914 -40.4912 -13.4866 -13.4866 -13.3585 -13.3585 -13.3013
   -13.1102 -13.1100 -13.1076 -13.0982 -13.0981 -13.0976 -13.0907 -13.0906
   -13.0898 -13.0867 -13.0859 -13.0857 -13.0857 -13.0845 -13.0844 -13.0837
   -13.0811 -13.0803 -13.0801 -13.0781 -13.0780 -13.0739 -13.0737 -13.0735
   -13.0715 -13.0710 -13.0709 -13.0678 -13.0677 -13.0677 -13.0214 -13.0214
   -13.0194 -13.0155 -13.0091 -13.0090 -13.0056 -13.0044 -13.0044 -13.0017
   -12.9999 -12.9999 -12.9971 -12.9971 -12.9954 -12.9947 -12.9947 -12.9946
   -12.9919 -12.9894 -12.9893 -12.9848 -12.9848 -12.9827 -12.9813 -12.9812
   -12.9780 -12.9760 -12.9756 -12.9755 -12.9752 -12.9751 -12.9751 -12.9739
   -12.9738 -12.9734 -12.9733 -12.9724 -12.9723 -12.9699 -12.9699 -12.9686
   -12.9683 -12.9682 -12.9669 -12.9667 -12.9666 -12.9565 -12.9548 -12.9548
   -12.7866 -12.7865 -12.7844 -12.7770 -12.7768 -12.7768 -12.7677 -12.7676
   -12.7675 -12.7668 -12.7666 -12.7665 -12.7654 -12.7654 -12.7596 -12.7594
   -12.7593 -12.7588 -12.7588 -12.7575 -12.7525 -12.7502 -12.7481 -12.7481
   -12.7477 -12.7477 -12.7443 -12.7432 -12.7420 -12.7419 -12.7402 -12.7393
   -12.7393 -12.7374 -12.7374 -12.7370 -12.7370 -12.7356 -12.7349 -12.7349
   -12.7343 -12.7319 -12.7318 -12.7316 -12.7251 -12.7251 -12.7246 -12.7246
   -12.7245 -12.7237 -12.7230 -12.7229 -12.7223 -12.7193 -12.7186 -12.7184
   -12.7183 -12.7178 -12.7178 -12.7144 -12.7143 -12.7135 -12.7132 -12.7131
   -12.7123 -12.6974 -12.6973 -12.6796 -12.6757 -12.6710 -12.6708 -12.6560
   -12.6511 -12.6510 -12.6467 -12.6401 -12.6400 -12.6319 -12.6308 -12.6307
    -8.2433  -8.1019  -8.0449  -8.0449  -7.9773  -7.9735  -7.9735  -7.9003
    -7.9002  -7.8787  -7.8681  -7.7560  -7.7559  -7.7408  -7.7405  -7.7225
    -7.7158  -7.7158  -7.7076  -7.7076  -7.7021  -7.7021  -7.6923  -7.6742
    -7.6640  -7.6588  -7.6588  -7.6568  -7.6568  -7.6379  -7.6378  -7.6364
    -7.6099  -7.5866  -7.5843  -7.5843  -7.5699  -7.5655  -7.5655  -7.5309
    -7.5309  -7.4791  -7.4466  -7.4415  -7.4415  -7.4392  -7.4305  -7.4305
    -7.3839  -7.3838  -7.3729  -7.3620  -7.3620  -7.3504  -7.3283  -7.3283
    -7.3174  -7.3173  -7.3112  -7.2959  -7.2694  -7.2593  -7.2592  -4.0053
    -3.7692  -3.7646  -3.7645  -3.7452  -3.7451  -3.7035  -3.7035  -3.6898
    -3.6874  -3.5359  -3.4884  -3.4883  -3.4825  -3.4508  -3.4508  -3.4481
    -3.4396  -3.4395  -3.4355  -3.4310  -3.4309  -3.4288  -3.3424  -3.3422
    -3.2891  -3.2361  -3.1853  -3.1844  -3.1843  -3.1159  -3.1158  -2.9797
     0.7929   0.7929   0.8280   1.1049   1.1050   1.1474   1.1512   1.1512
     1.1661   1.1847   1.1847   1.2272   1.2533   1.2533   1.3129   1.3349
     1.3349   1.3397   1.4080   1.4253   1.4254   1.4358   1.4735   1.4735
     1.5030   1.5030   1.5062   1.5234   1.5357   1.5357   1.5660   1.5660
     1.6277   1.6456   1.6456   1.6725   1.6848   1.6849   1.7020   1.7020
     1.7179   1.7341   1.7416   1.7417   1.7514   1.7514   1.7738   1.7738
     1.7878   1.7979   1.8037   1.8426   1.8426   1.8477   1.9664   2.0145
     2.0145   2.0382   2.0590   2.0591   2.0915   2.0916   2.1014   2.1014
     2.1305   2.1405   2.1405   2.1413   2.1487   2.1487   2.1634   2.1647
     2.1863   2.2011   2.2143   2.2144   2.2153   2.2248   2.2248   2.2733
     2.2733   2.2967   2.3070   2.3307   2.3307   2.3517   2.3531   2.3531
     2.3644   2.3644   2.4058   2.4058   2.4250   2.4426   2.4426   2.4537
     2.4557   2.4742   2.5182   2.5182   2.5380   2.5380   2.5526   2.5627
     2.5627   2.5957   2.5957   2.6087   2.6160   2.6160   2.6253   2.6475
     2.6760   2.6873   2.6874   2.7108   2.7217   2.7236   2.7236   2.7370
     2.7370   2.7646   2.7646   2.8103   2.8142   2.8142   2.8297   2.8446
     2.8446   2.8804   2.8877   2.8877   2.9037   2.9037   2.9115   2.9661
     2.9661   2.9898   2.9899   3.0099   3.0121   3.0121   3.0258   3.0335
     3.0431   3.0477   3.0478   3.0504   3.0504   3.0683   3.0684   3.0720
     3.0725   3.0725   3.0978   3.0978   3.1060   3.1320   3.1320   3.1338
     3.1462   3.1462   3.1531   3.1532   3.1563   3.1679   3.1888   3.1903
     3.1997   3.2054   3.2055   3.2248   3.2248   3.2466   3.2466   3.2473
     3.3634   3.3634   3.3658   3.4568   3.4599   3.4600   3.4840   3.4841
     3.4986   3.5040   3.5041   3.5140   3.5145   4.8102   5.5930   5.5932
     5.9001   6.1606   6.3160   6.4466   6.4466   6.4806   6.4807   6.4942
     6.5521   6.5521   6.5683   6.6847   6.7105   6.7106   6.7738   6.7739
     6.7951   6.8226   6.8226   6.8399   6.8400   6.9091   6.9282   6.9520
     6.9520   6.9634   6.9635   7.0296   7.0296   7.0552   7.0648   7.0648
     7.0924   7.0925   7.1064   7.1129   7.1343   7.1450   7.1451   7.1855
     7.2072   7.2198   7.2198   7.2326   7.2402   7.2402   7.2753   7.2753
     7.2904   7.2904   7.2929   7.2997   7.3584   7.3585   7.3906   7.3906
     7.4035   7.4435   7.4435   7.4491   7.4645   7.4704   7.4704   7.4840
     7.4888   7.4889   7.4945   7.5258   7.5258   7.5395   7.5411   7.5412
     7.5600   7.5601   7.5615   7.5757   7.5925   7.5925   7.6000   7.6067
     7.6067   7.6488   7.6489   7.6801   7.6801   7.6952   7.7398   7.8088
     7.8089   7.8282   7.8389   7.8390   7.8777   8.0804   8.0905   8.0905
     9.1988   9.1988   9.2175   9.7725   9.7880   9.7880   9.8304   9.8488
     9.8488   9.8729   9.8732   9.8732   9.8955  10.0369  10.0613  10.0613
    10.0916  10.1142  10.1265  10.1265  10.1405  10.1405  10.1533  10.2026
    10.2026  10.2846  10.3403  10.3477  10.3477  10.3779  10.3779  10.4899
    10.5482  10.5482  10.5609  10.5749  10.5943  10.5944  10.8225  10.8226
    10.8269  10.8491  10.8492  10.8600  10.8786  10.9359  10.9359  10.9872
    10.9965  10.9965  11.1131  11.1240  11.1241  11.2072  11.2132

     occupation numbers 
     1.0000   1.0000   1.0000   1.0000   1.0000   1.0000   1.0000   1.0000
     1.0000   1.0000   1.0000   1.0000   1.0000   1.0000   1.0000   1.0000
     1.0000   1.0000   1.0000   1.0000   1.0000   1.0000   1.0000   1.0000
     1.0000   1.0000   1.0000   1.0000   1.0000   1.0000   1.0000   1.0000
     1.0000   1.0000   1.0000   1.0000   1.0000   1.0000   1.0000   1.0000
     1.0000   1.0000   1.0000   1.0000   1.0000   1.0000   1.0000   1.0000
     1.0000   1.0000   1.0000   1.0000   1.0000   1.0000   1.0000   1.0000
     1.0000   1.0000   1.0000   1.0000   1.0000   1.0000   1.0000   1.0000
     1.0000   1.0000   1.0000   1.0000   1.0000   1.0000   1.0000   1.0000
     1.0000   1.0000   1.0000   1.0000   1.0000   1.0000   1.0000   1.0000
     1.0000   1.0000   1.0000   1.0000   1.0000   1.0000   1.0000   1.0000
     1.0000   1.0000   1.0000   1.0000   1.0000   1.0000   1.0000   1.0000
     1.0000   1.0000   1.0000   1.0000   1.0000   1.0000   1.0000   1.0000
     1.0000   1.0000   1.0000   1.0000   1.0000   1.0000   1.0000   1.0000
     1.0000   1.0000   1.0000   1.0000   1.0000   1.0000   1.0000   1.0000
     1.0000   1.0000   1.0000   1.0000   1.0000   1.0000   1.0000   1.0000
     1.0000   1.0000   1.0000   1.0000   1.0000   1.0000   1.0000   1.0000
     1.0000   1.0000   1.0000   1.0000   1.0000   1.0000   1.0000   1.0000
     1.0000   1.0000   1.0000   1.0000   1.0000   1.0000   1.0000   1.0000
     1.0000   1.0000   1.0000   1.0000   1.0000   1.0000   1.0000   1.0000
     1.0000   1.0000   1.0000   1.0000   1.0000   1.0000   1.0000   1.0000
     1.0000   1.0000   1.0000   1.0000   1.0000   1.0000   1.0000   1.0000
     1.0000   1.0000   1.0000   1.0000   1.0000   1.0000   1.0000   1.0000
     1.0000   1.0000   1.0000   1.0000   1.0000   1.0000   1.0000   1.0000
     1.0000   1.0000   1.0000   1.0000   1.0000   1.0000   1.0000   1.0000
     1.0000   1.0000   1.0000   1.0000   1.0000   1.0000   1.0000   1.0000
     1.0000   1.0000   1.0000   1.0000   1.0000   1.0000   1.0000   1.0000
     1.0000   1.0000   1.0000   1.0000   1.0000   1.0000   1.0000   1.0000
     1.0000   1.0000   1.0000   1.0000   1.0000   1.0000   1.0000   1.0000
     1.0000   1.0000   1.0000   1.0000   1.0000   1.0000   1.0000   1.0000
     1.0000   1.0000   1.0000   1.0000   1.0000   1.0000   1.0000   1.0000
     1.0000   1.0000   1.0000   1.0000   1.0000   1.0000   1.0000   1.0000
     1.0000   1.0000   1.0000   1.0000   1.0000   1.0000   1.0000   1.0000
     1.0000   1.0000   1.0000   1.0000   1.0000   1.0000   1.0000   1.0000
     1.0000   1.0000   1.0000   1.0000   1.0000   1.0000   1.0000   1.0000
     1.0000   1.0000   1.0000   1.0000   1.0000   1.0000   1.0000   1.0000
     1.0000   1.0000   1.0000   1.0000   1.0000   1.0000   1.0000   1.0000
     1.0000   1.0000   1.0000   1.0000   1.0000   1.0000   1.0000   1.0000
     1.0000   1.0000   1.0000   1.0000   1.0000   1.0000   1.0000   1.0000
     1.0000   1.0000   1.0000   1.0000   1.0000   1.0000   1.0000   1.0000
     1.0000   1.0000   1.0000   1.0000   1.0000   1.0000   1.0000   1.0000
     1.0000   1.0000   1.0000   1.0000   1.0000   1.0000   1.0000   1.0000
     1.0000   1.0000   1.0000   1.0000   1.0000   1.0000   1.0000   1.0000
     1.0000   1.0000   1.0000   1.0000   1.0000   1.0000   1.0000   1.0000
     1.0000   1.0000   1.0000   1.0000   1.0000   1.0000   1.0000   1.0000
     1.0000   1.0000   1.0000   1.0000   1.0000   1.0000   1.0000   1.0000
     1.0000   1.0000   1.0000   1.0000   1.0000   1.0000   1.0000   1.0000
     1.0000   1.0000   1.0000   1.0000   1.0000   1.0000   1.0000   1.0000
     1.0000   1.0000   1.0000   1.0000   1.0000   1.0000   1.0000   1.0000
     1.0000   1.0000   1.0000   1.0000   1.0000   1.0000   1.0000   1.0000
     1.0000   1.0000   1.0000   1.0000   1.0000   1.0000   1.0000   1.0000
     1.0000   1.0000   1.0000   1.0000   1.0000   1.0000   1.0000   1.0000
     1.0000   1.0000   1.0000   1.0000   1.0000   1.0000   1.0000   1.0000
     1.0000   1.0000   1.0000   1.0000   1.0000   1.0000   1.0000   1.0000
     1.0000   1.0000   1.0000   1.0000   1.0000   1.0000   1.0000   1.0000
     1.0000   1.0000   1.0000   1.0000   1.0000   1.0000   1.0000   1.0000
     1.0000   1.0000   1.0000   1.0000   1.0000   1.0000   1.0000   1.0000
     1.0000   1.0000   1.0000   1.0000   1.0000   1.0000   1.0000   1.0000
     1.0000   1.0000   1.0000   1.0000   1.0000   1.0000   1.0000   1.0000
     1.0000   1.0000   1.0000   1.0000   1.0000   1.0000   1.0000   1.0000
     1.0000   1.0000   1.0000   1.0000   1.0000   1.0000   1.0000   1.0000
     1.0000   1.0000   1.0000   1.0000   1.0000   1.0000   1.0000   1.0000
     1.0000   1.0000   1.0000   1.0000   1.0000   1.0000   1.0000   1.0000
     1.0000   1.0000   1.0000   1.0000   1.0000   1.0000   1.0000   1.0000
     1.0000   1.0000   1.0000   1.0000   1.0000   1.0000   1.0000   1.0000
     1.0000   1.0000   1.0000   1.0000   1.0000   1.0000   1.0000   1.0000
     1.0000   1.0000   1.0000   1.0000   1.0000   1.0000   1.0000   1.0000
     1.0000   1.0000   1.0000   1.0000   1.0000   1.0000   1.0000   1.0000
     1.0000   1.0000   1.0000   1.0000   1.0000   1.0000   1.0000   1.0000
     1.0000   1.0000   1.0000   1.0000   1.0000   1.0000   1.0000   1.0000
     1.0000   1.0000   1.0000   1.0000   1.0000   1.0000   1.0000   1.0000
     1.0000   1.0000   1.0000   1.0000   1.0000   1.0000   1.0000   1.0000
     1.0000   1.0000   1.0000   1.0000   1.0000   1.0000   1.0000   1.0000
     1.0000   1.0000   1.0000   1.0000   1.0000   1.0000   1.0000   1.0000
     1.0000   1.0000   1.0000   1.0000   1.0000   1.0000   1.0000   1.0000
     1.0000   1.0000   1.0000   1.0000   1.0000   1.0000   1.0000   1.0000
     1.0000   1.0000   1.0000   1.0000   1.0000   1.0000   1.0000   1.0000
     1.0000   1.0000   1.0000   1.0000   1.0000   1.0000   1.0000   1.0000
     1.0000   1.0000   1.0000   1.0000   1.0000   1.0000   1.0000   1.0000
     1.0000   1.0000   1.0000   1.0000   1.0000   1.0000   1.0000   1.0000
     1.0000   1.0000   1.0000   1.0000   1.0000   1.0000   1.0000   1.0000
     1.0000   1.0000   1.0000   1.0000   1.0000   1.0000   1.0000   1.0000
     1.0000   1.0000   1.0000   1.0000   1.0000   1.0000   1.0000   1.0000
     1.0000   1.0000   1.0000   1.0000   1.0000   1.0000   1.0000   1.0000
     1.0000   1.0000   1.0000   1.0000   1.0000   1.0000   1.0000   1.0000
     1.0000   1.0000   1.0000   1.0000   1.0000   1.0000   1.0000   1.0000
     1.0000   1.0000   1.0000   1.0000   1.0000   1.0000   1.0000   1.0000
     1.0000   1.0000   1.0000   1.0000   1.0000   1.0000   1.0000   1.0000
     1.0000   1.0000   1.0000   1.0000   1.0000   1.0000   1.0000   1.0000
     1.0000   1.0000   1.0000   1.0000   1.0000   1.0000   1.0000   1.0000
     1.0000   1.0000   1.0000   1.0000   1.0000   1.0000   1.0000   1.0000
     1.0000   1.0000   1.0000   1.0000   1.0000   1.0000   1.0000   1.0000
     1.0000   1.0000   1.0000   1.0000   1.0000   1.0000   1.0000   1.0000
     1.0000   1.0000   1.0000   1.0000   1.0000   1.0000   1.0000   1.0000
     1.0000   1.0000   1.0000   1.0000   1.0000   1.0000   1.0000   1.0000
     1.0000   1.0000   1.0000   1.0000   1.0000   1.0000   0.0000   0.0000
     0.0000   0.0000   0.0000   0.0000   0.0000   0.0000   0.0000   0.0000
     0.0000   0.0000   0.0000   0.0000   0.0000   0.0000   0.0000   0.0000
     0.0000   0.0000   0.0000   0.0000   0.0000   0.0000   0.0000   0.0000
     0.0000   0.0000   0.0000   0.0000   0.0000   0.0000   0.0000   0.0000
     0.0000   0.0000   0.0000   0.0000   0.0000   0.0000   0.0000   0.0000
     0.0000   0.0000   0.0000   0.0000   0.0000   0.0000   0.0000   0.0000
     0.0000   0.0000   0.0000   0.0000   0.0000   0.0000   0.0000   0.0000
     0.0000   0.0000   0.0000   0.0000   0.0000   0.0000   0.0000   0.0000
     0.0000   0.0000   0.0000   0.0000   0.0000   0.0000   0.0000   0.0000
     0.0000   0.0000   0.0000   0.0000   0.0000   0.0000   0.0000   0.0000
     0.0000   0.0000   0.0000   0.0000   0.0000   0.0000   0.0000   0.0000
     0.0000   0.0000   0.0000   0.0000   0.0000   0.0000   0.0000   0.0000
     0.0000   0.0000   0.0000   0.0000   0.0000   0.0000   0.0000   0.0000
     0.0000   0.0000   0.0000   0.0000   0.0000   0.0000   0.0000   0.0000
     0.0000   0.0000   0.0000   0.0000   0.0000   0.0000   0.0000   0.0000
     0.0000   0.0000   0.0000   0.0000   0.0000   0.0000   0.0000   0.0000
     0.0000   0.0000   0.0000   0.0000   0.0000   0.0000   0.0000   0.0000
     0.0000   0.0000   0.0000   0.0000   0.0000   0.0000   0.0000   0.0000
     0.0000   0.0000   0.0000   0.0000   0.0000   0.0000   0.0000

     the Fermi energy is     5.1939 ev

!    total energy              =  -65089.13369738 Ry
     total all-electron energy =  -2276515.175349 Ry
     estimated scf accuracy    <          5.3E-09 Ry
     smearing contrib. (-TS)   =      -0.00000404 Ry
     internal energy E=F+TS    =  -65089.13369334 Ry

     The total energy is F=E-TS. E is the sum of the following terms:
     one-electron contribution =  -11820.47882584 Ry
     hartree contribution      =    6615.04573043 Ry
     xc contribution           =   -4515.58159965 Ry
     ewald contribution        =   -9853.75684236 Ry
     one-center paw contrib.   =  -45514.36215591 Ry
      -> PAW hartree energy AE =      95.92744303 Ry
      -> PAW hartree energy PS =     -96.16453355 Ry
      -> PAW xc energy AE      =    -798.43028508 Ry
      -> PAW xc energy PS      =      33.31070011 Ry
      -> total E_H with PAW    =    6614.80863991 Ry
      -> total E_XC with PAW   =   -5280.70118462 Ry

     convergence has been achieved in   1 iterations


     -----------------------------------------------
     Non-local corr. energy    =      45.71461521 Ry
     -----------------------------------------------


     Forces acting on atoms (cartesian axes, Ry/au):

     atom    1 type  1   force =     0.00000208   -0.00003963   -0.00005945
     atom    2 type  1   force =     0.00000134    0.00053500   -0.00079951
     atom    3 type  1   force =    -0.00009386    0.00010049   -0.00018605
     atom    4 type  1   force =    -0.00042534    0.00000929    0.00026075
     atom    5 type  1   force =     0.00003689   -0.00012943   -0.00018507
     atom    6 type  1   force =    -0.00020539   -0.00037199    0.00026258
     atom    7 type  1   force =    -0.00002984    0.00001520   -0.00006320
     atom    8 type  1   force =     0.00046296   -0.00026723   -0.00080224
     atom    9 type  1   force =     0.00034181    0.00019465   -0.00046490
     atom   10 type  1   force =    -0.00012937   -0.00007491    0.00021496
     atom   11 type  1   force =     0.00009433    0.00009804   -0.00018575
     atom   12 type  1   force =     0.00042696    0.00000737    0.00026019
     atom   13 type  1   force =    -0.00000188    0.00000145   -0.00014811
     atom   14 type  1   force =    -0.00000223    0.00000149    0.00069136
     atom   15 type  1   force =     0.00013117    0.00003291   -0.00018689
     atom   16 type  1   force =     0.00022146    0.00036547    0.00026184
     atom   17 type  1   force =    -0.00000038    0.00020720   -0.00057517
     atom   18 type  1   force =    -0.00000198   -0.00024167    0.00087448
     atom   19 type  1   force =     0.00017896   -0.00010433   -0.00057128
     atom   20 type  1   force =    -0.00020898    0.00012109    0.00087510
     atom   21 type  1   force =    -0.00003730   -0.00013154   -0.00018531
     atom   22 type  1   force =     0.00020665   -0.00037284    0.00026034
     atom   23 type  1   force =    -0.00013514    0.00003205   -0.00018751
     atom   24 type  1   force =    -0.00022281    0.00036448    0.00026001
     atom   25 type  1   force =    -0.00034272    0.00019808   -0.00046699
     atom   26 type  1   force =     0.00013050   -0.00007431    0.00021226
     atom   27 type  1   force =    -0.00017909   -0.00010385   -0.00057339
     atom   28 type  1   force =     0.00020890    0.00012315    0.00087504
     atom   29 type  1   force =     0.00000219   -0.00039356   -0.00046402
     atom   30 type  1   force =     0.00000089    0.00015124    0.00021582
     atom   31 type  1   force =     0.00003501    0.00001570   -0.00006283
     atom   32 type  1   force =    -0.00046034   -0.00026820   -0.00079922
     atom   33 type  2   force =     0.00001375   -0.00000655    0.00050242
     atom   34 type  2   force =    -0.00024242   -0.00010570   -0.00028742
     atom   35 type  2   force =    -0.00010425   -0.00001177    0.00005176
     atom   36 type  2   force =     0.00004688    0.00004081    0.00020276
     atom   37 type  2   force =     0.00004174    0.00003599    0.00035584
     atom   38 type  2   force =    -0.00020582   -0.00014586   -0.00027576
     atom   39 type  2   force =    -0.00005745   -0.00008235    0.00005335
     atom   40 type  2   force =     0.00002264    0.00025435   -0.00027688
     atom   41 type  2   force =     0.00004074    0.00009339    0.00005295
     atom   42 type  2   force =     0.00025334   -0.00011959   -0.00028327
     atom   43 type  2   force =     0.00011367   -0.00002204    0.00005620
     atom   44 type  2   force =    -0.00000367    0.00009864   -0.00045586
     atom   45 type  2   force =    -0.00000309   -0.00015632    0.00007404
     atom   46 type  2   force =     0.00006801   -0.00003956   -0.00045318
     atom   47 type  2   force =    -0.00014917    0.00008592    0.00007580
     atom   48 type  2   force =    -0.00001249   -0.00006024    0.00020114
     atom   49 type  2   force =    -0.00001179   -0.00005335    0.00035521
     atom   50 type  2   force =     0.00003845    0.00001547   -0.00030106
     atom   51 type  2   force =     0.00009665    0.00005141    0.00054249
     atom   52 type  2   force =    -0.00004719    0.00002668    0.00020110
     atom   53 type  2   force =    -0.00004224    0.00002259    0.00035674
     atom   54 type  2   force =    -0.00008822   -0.00004683   -0.00045574
     atom   55 type  2   force =     0.00013271    0.00008006    0.00007447
     atom   56 type  2   force =    -0.00003143    0.00026511   -0.00028887
     atom   57 type  2   force =    -0.00004208    0.00009880    0.00005140
     atom   58 type  2   force =    -0.00004813    0.00002780   -0.00030499
     atom   59 type  2   force =    -0.00010541    0.00006143    0.00054259
     atom   60 type  2   force =     0.00000570   -0.00004369   -0.00029990
     atom   61 type  2   force =     0.00000422   -0.00011357    0.00053944
     atom   62 type  2   force =     0.00022885   -0.00016166   -0.00028397
     atom   63 type  2   force =     0.00007534   -0.00008898    0.00005620
     atom   64 type  2   force =     0.00001750   -0.00000723   -0.00014859
     atom   65 type  2   force =     0.00041567   -0.00023729   -0.00024885
     atom   66 type  2   force =     0.00012885   -0.00003198    0.00034894
     atom   67 type  2   force =     0.00019364    0.00018745   -0.00000226
     atom   68 type  2   force =     0.00003287    0.00014036    0.00034812
     atom   69 type  2   force =     0.00025416    0.00009542   -0.00000834
     atom   70 type  2   force =     0.00001315   -0.00000727   -0.00014191
     atom   71 type  2   force =     0.00001997    0.00046823   -0.00025688
     atom   72 type  2   force =     0.00000640   -0.00000907   -0.00014325
     atom   73 type  2   force =    -0.00039263   -0.00024695   -0.00025722
     atom   74 type  2   force =     0.00000577    0.00010392    0.00040090
     atom   75 type  2   force =     0.00000577   -0.00074631    0.00005586
     atom   76 type  2   force =     0.00001622    0.00001902    0.00012371
     atom   77 type  2   force =     0.00011855    0.00008454   -0.00036868
     atom   78 type  2   force =     0.00008697   -0.00004921    0.00039817
     atom   79 type  2   force =    -0.00066150    0.00038176    0.00004697
     atom   80 type  2   force =    -0.00010885   -0.00009896    0.00034741
     atom   81 type  2   force =     0.00004362   -0.00026602   -0.00000695
     atom   82 type  2   force =    -0.00012847   -0.00004521    0.00034909
     atom   83 type  2   force =    -0.00019473    0.00017254   -0.00000304
     atom   84 type  2   force =    -0.00002232    0.00001025    0.00012454
     atom   85 type  2   force =    -0.00012774    0.00007437   -0.00036570
     atom   86 type  2   force =    -0.00001047   -0.00002343    0.00012197
     atom   87 type  2   force =    -0.00001329   -0.00014407   -0.00036962
     atom   88 type  2   force =     0.00009206   -0.00009454    0.00034702
     atom   89 type  2   force =    -0.00006500   -0.00025914   -0.00000415
     atom   90 type  2   force =    -0.00000455    0.00000239    0.00049103
     atom   91 type  2   force =    -0.00000402    0.00000248   -0.00046048
     atom   92 type  2   force =    -0.00002609    0.00013006    0.00034817
     atom   93 type  2   force =    -0.00024635    0.00008203   -0.00000592
     atom   94 type  2   force =    -0.00008741   -0.00005606    0.00039700
     atom   95 type  2   force =     0.00065049    0.00036899    0.00005508
     atom   96 type  1   force =    -0.00000154   -0.00000235   -0.00044897
     The non-local contrib.  to forces
     atom    1 type  1   force =     0.00000297    0.05109203   -0.06021103
     atom    2 type  1   force =    -0.00000970   -0.00400431    0.03712156
     atom    3 type  1   force =     0.00579054    0.01766470    0.00171278
     atom    4 type  1   force =     0.01816909   -0.00023743    0.01782310
     atom    5 type  1   force =     0.01818549   -0.00384480    0.00167735
     atom    6 type  1   force =     0.00889970    0.01572495    0.01776712
     atom    7 type  1   force =     0.04422897   -0.02553746   -0.06011253
     atom    8 type  1   force =    -0.00332943    0.00193252    0.03726432
     atom    9 type  1   force =     0.07534838    0.04346619   -0.03727559
     atom   10 type  1   force =     0.01229077    0.00708380   -0.01740448
     atom   11 type  1   force =    -0.00577622    0.01766852    0.00171433
     atom   12 type  1   force =    -0.01815624   -0.00021726    0.01782521
     atom   13 type  1   force =     0.00001167   -0.00002820   -0.00695565
     atom   14 type  1   force =     0.00000610   -0.00002307   -0.00044557
     atom   15 type  1   force =     0.01241559   -0.01386371    0.00168012
     atom   16 type  1   force =    -0.00919975   -0.01560751    0.01777511
     atom   17 type  1   force =    -0.00000658   -0.01830554    0.02568781
     atom   18 type  1   force =     0.00000168   -0.01335262   -0.00285215
     atom   19 type  1   force =    -0.01580379    0.00914444    0.02570522
     atom   20 type  1   force =    -0.01155473    0.00665251   -0.00288387
     atom   21 type  1   force =    -0.01818248   -0.00385027    0.00168745
     atom   22 type  1   force =    -0.00891055    0.01574880    0.01779211
     atom   23 type  1   force =    -0.01240821   -0.01386838    0.00169030
     atom   24 type  1   force =     0.00924100   -0.01562910    0.01779857
     atom   25 type  1   force =    -0.07536009    0.04348665   -0.03729487
     atom   26 type  1   force =    -0.01228767    0.00709047   -0.01739977
     atom   27 type  1   force =     0.01581136    0.00915570    0.02570651
     atom   28 type  1   force =     0.01155173    0.00664905   -0.00286310
     atom   29 type  1   force =     0.00001164   -0.08693067   -0.03721544
     atom   30 type  1   force =     0.00000534   -0.01420539   -0.01740351
     atom   31 type  1   force =    -0.04424436   -0.02554845   -0.06014999
     atom   32 type  1   force =     0.00337886    0.00197204    0.03717396
     atom   33 type  2   force =     0.00001699    0.00000051    0.24281872
     atom   34 type  2   force =    -0.01159643   -0.01600495    0.21946113
     atom   35 type  2   force =     0.02424698   -0.00953250    0.25626628
     atom   36 type  2   force =    -0.01083271   -0.00618922    0.23052334
     atom   37 type  2   force =     0.00375164    0.00217422    0.25809306
     atom   38 type  2   force =    -0.01966236   -0.00204363    0.21946716
     atom   39 type  2   force =     0.00384006    0.02574781    0.25626865
     atom   40 type  2   force =    -0.00806335    0.01805891    0.21947555
     atom   41 type  2   force =    -0.02039101   -0.01619653    0.25626404
     atom   42 type  2   force =     0.01162068   -0.01602695    0.21945309
     atom   43 type  2   force =    -0.02423707   -0.00954800    0.25626945
     atom   44 type  2   force =    -0.00000255   -0.00185725    0.24203903
     atom   45 type  2   force =    -0.00000396   -0.00000656    0.26373608
     atom   46 type  2   force =    -0.00163222    0.00093526    0.24203607
     atom   47 type  2   force =    -0.00002678    0.00000392    0.26373644
     atom   48 type  2   force =    -0.00003227    0.01247988    0.23051887
     atom   49 type  2   force =    -0.00001780   -0.00431940    0.25809072
     atom   50 type  2   force =    -0.00853029   -0.00490208    0.24332153
     atom   51 type  2   force =    -0.03365823   -0.01940926    0.26418441
     atom   52 type  2   force =     0.01082886   -0.00622243    0.23051466
     atom   53 type  2   force =    -0.00375427    0.00215523    0.25809097
     atom   54 type  2   force =     0.00160501    0.00092002    0.24203522
     atom   55 type  2   force =    -0.00000015   -0.00000703    0.26373298
     atom   56 type  2   force =     0.00806872    0.01805722    0.21947121
     atom   57 type  2   force =     0.02039310   -0.01620140    0.25626684
     atom   58 type  2   force =     0.00850058   -0.00487938    0.24331969
     atom   59 type  2   force =     0.03365146   -0.01940555    0.26418729
     atom   60 type  2   force =     0.00000560    0.00984367    0.24332856
     atom   61 type  2   force =    -0.00000056    0.03883408    0.26417347
     atom   62 type  2   force =     0.01969603   -0.00205046    0.21945320
     atom   63 type  2   force =    -0.00382416    0.02575130    0.25627484
     atom   64 type  2   force =     0.12573236   -0.07258838   -0.09397217
     atom   65 type  2   force =     0.02497424   -0.01445099   -0.24374586
     atom   66 type  2   force =    -0.01535260   -0.00398964   -0.26289100
     atom   67 type  2   force =    -0.00255736   -0.00253199   -0.23722497
     atom   68 type  2   force =    -0.01112082   -0.01131111   -0.26290417
     atom   69 type  2   force =    -0.00346169   -0.00094787   -0.23723503
     atom   70 type  2   force =    -0.00000604    0.14506135   -0.09407360
     atom   71 type  2   force =     0.00002604    0.02889590   -0.24373847
     atom   72 type  2   force =    -0.12569531   -0.07256118   -0.09400394
     atom   73 type  2   force =    -0.02497713   -0.01448247   -0.24374662
     atom   74 type  2   force =     0.00000100   -0.00471466   -0.25610885
     atom   75 type  2   force =     0.00000044    0.05311803   -0.21147519
     atom   76 type  2   force =    -0.00667121   -0.00384372   -0.26368196
     atom   77 type  2   force =     0.00255290    0.00149347   -0.23368830
     atom   78 type  2   force =    -0.00407321    0.00237457   -0.25611560
     atom   79 type  2   force =     0.04584973   -0.02644130   -0.21150959
     atom   80 type  2   force =     0.00423392    0.01529275   -0.26289978
     atom   81 type  2   force =    -0.00089331    0.00348243   -0.23723169
     atom   82 type  2   force =     0.01534743   -0.00398502   -0.26288840
     atom   83 type  2   force =     0.00255611   -0.00251912   -0.23721921
     atom   84 type  2   force =     0.00667534   -0.00384293   -0.26368211
     atom   85 type  2   force =    -0.00255545    0.00149594   -0.23368577
     atom   86 type  2   force =     0.00000276    0.00773128   -0.26368213
     atom   87 type  2   force =     0.00000115   -0.00293507   -0.23368732
     atom   88 type  2   force =    -0.00423281    0.01528328   -0.26289959
     atom   89 type  2   force =     0.00089808    0.00348314   -0.23723179
     atom   90 type  2   force =    -0.00000434   -0.00000677   -0.24799078
     atom   91 type  2   force =    -0.00000308   -0.00001743   -0.22370067
     atom   92 type  2   force =     0.01110652   -0.01130347   -0.26290122
     atom   93 type  2   force =     0.00345503   -0.00094971   -0.23722865
     atom   94 type  2   force =     0.00406903    0.00237098   -0.25612127
     atom   95 type  2   force =    -0.04592172   -0.02647993   -0.21149200
     atom   96 type  1   force =    -0.00005259    0.00014763    0.00207695
     The ionic contribution  to forces
     atom    1 type  1   force =    -0.00028146   -0.26743010   -0.83859820
     atom    2 type  1   force =     0.00026763   -2.32798663   -2.16930258
     atom    3 type  1   force =    -0.28252120   -0.36587161   -0.57373958
     atom    4 type  1   force =    -0.45716010   -0.17047612   -0.07047400
     atom    5 type  1   force =    -0.45571967   -0.06358739   -0.57259045
     atom    6 type  1   force =    -0.37490238   -0.31055245   -0.06975159
     atom    7 type  1   force =    -0.23304550    0.13583581   -0.84343490
     atom    8 type  1   force =    -2.02050269    1.16639226   -2.16946505
     atom    9 type  1   force =    -1.45155598   -0.83443197    0.17925110
     atom   10 type  1   force =    -0.21441375   -0.12110903    0.69903790
     atom   11 type  1   force =     0.28299159   -0.36537178   -0.57378489
     atom   12 type  1   force =     0.45772045   -0.17051746   -0.07063517
     atom   13 type  1   force =     0.00055775   -0.00039385   -0.53440226
     atom   14 type  1   force =     0.00089963   -0.00059371    0.47918403
     atom   15 type  1   force =    -0.17337352    0.42802384   -0.57177629
     atom   16 type  1   force =     0.08158748    0.48140692   -0.06880926
     atom   17 type  1   force =     0.00044044    0.76962462   -0.94874324
     atom   18 type  1   force =     0.00015874    0.38764582    0.48944661
     atom   19 type  1   force =     0.66308234   -0.38504566   -0.95104655
     atom   20 type  1   force =     0.33379824   -0.19346750    0.48936858
     atom   21 type  1   force =     0.45600032   -0.06329850   -0.57188668
     atom   22 type  1   force =     0.37573886   -0.31059337   -0.06976956
     atom   23 type  1   force =     0.17442654    0.42795828   -0.57111719
     atom   24 type  1   force =    -0.08098411    0.48162591   -0.06850162
     atom   25 type  1   force =     1.45182218   -0.83622374    0.18109001
     atom   26 type  1   force =     0.21418659   -0.12284652    0.70009515
     atom   27 type  1   force =    -0.66405827   -0.38609365   -0.95081968
     atom   28 type  1   force =    -0.33462362   -0.19412577    0.48806901
     atom   29 type  1   force =    -0.00142593    1.67224216    0.17583075
     atom   30 type  1   force =    -0.00157722    0.24685614    0.69861947
     atom   31 type  1   force =     0.23224224    0.13564131   -0.84118816
     atom   32 type  1   force =     2.01840140    1.16486618   -2.16811297
     atom   33 type  2   force =    -0.00088151    0.00107479  -14.51246882
     atom   34 type  2   force =     0.47784183    0.74434841  -12.10510933
     atom   35 type  2   force =    -0.86225581    0.55830525  -14.95895471
     atom   36 type  2   force =     0.26212084    0.14671403  -13.25637762
     atom   37 type  2   force =    -0.23756301   -0.14092316  -15.42297911
     atom   38 type  2   force =     0.88156826    0.04239246  -12.10422484
     atom   39 type  2   force =     0.05110082   -1.02406472  -14.96077473
     atom   40 type  2   force =     0.40471719   -0.78364646  -12.10472823
     atom   41 type  2   force =     0.91284076    0.46883238  -14.96062027
     atom   42 type  2   force =    -0.47851550    0.74575588  -12.10463734
     atom   43 type  2   force =     0.86212948    0.55899824  -14.95985094
     atom   44 type  2   force =     0.00083104   -0.19638080  -13.47833135
     atom   45 type  2   force =     0.00075862   -0.05376544  -15.69017411
     atom   46 type  2   force =    -0.16690806    0.09590007  -13.47741976
     atom   47 type  2   force =    -0.04327727    0.02540059  -15.69078397
     atom   48 type  2   force =     0.00203458   -0.29943583  -13.25662895
     atom   49 type  2   force =     0.00121158    0.27532377  -15.42406157
     atom   50 type  2   force =     0.43465837    0.25145001  -13.61763838
     atom   51 type  2   force =     1.55138739    0.89780241  -15.51308023
     atom   52 type  2   force =    -0.26218252    0.14910347  -13.25693618
     atom   53 type  2   force =     0.23782288   -0.13969651  -15.42318107
     atom   54 type  2   force =     0.16921957    0.09632352  -13.47723109
     atom   55 type  2   force =     0.04512818    0.02562509  -15.69098366
     atom   56 type  2   force =    -0.40524562   -0.78435485  -12.10429489
     atom   57 type  2   force =    -0.91345112    0.46804505  -14.95925896
     atom   58 type  2   force =    -0.43410488    0.25035212  -13.61777164
     atom   59 type  2   force =    -1.55162343    0.89695199  -15.51220176
     atom   60 type  2   force =    -0.00070509   -0.50335796  -13.61729120
     atom   61 type  2   force =    -0.00086360   -1.79314133  -15.51282904
     atom   62 type  2   force =    -0.88400420    0.04221194  -12.10334120
     atom   63 type  2   force =    -0.05271540   -1.02441824  -14.96030654
     atom   64 type  2   force =    -5.51591456    3.18752295    8.70146895
     atom   65 type  2   force =    -0.86778024    0.50317769   13.39033967
     atom   66 type  2   force =     0.46746396    0.03742355   14.49599803
     atom   67 type  2   force =     0.04425917    0.18241322   14.39963780
     atom   68 type  2   force =     0.26687652    0.38194329   14.49660212
     atom   69 type  2   force =     0.17970545   -0.05532245   14.40011541
     atom   70 type  2   force =    -0.00182777   -6.36576089    8.70447175
     atom   71 type  2   force =    -0.00243564   -1.00250300   13.38991087
     atom   72 type  2   force =     5.51400574    3.18849961    8.70238029
     atom   73 type  2   force =     0.86706177    0.50560140   13.39141041
     atom   74 type  2   force =     0.00026617    0.75645001   14.31496766
     atom   75 type  2   force =     0.00070259   -1.15078167   14.00453340
     atom   76 type  2   force =     0.02043050    0.00861020   14.46525266
     atom   77 type  2   force =    -0.02273062   -0.01552130   14.58401869
     atom   78 type  2   force =     0.65695658   -0.37932109   14.31405282
     atom   79 type  2   force =    -0.99147062    0.57218897   14.00606389
     atom   80 type  2   force =    -0.19923925   -0.42153505   14.49630630
     atom   81 type  2   force =     0.13671849   -0.12767149   14.40014709
     atom   82 type  2   force =    -0.46731015    0.03910329   14.49633015
     atom   83 type  2   force =    -0.04420687    0.18316747   14.40025425
     atom   84 type  2   force =    -0.01869915    0.00907057   14.46554460
     atom   85 type  2   force =     0.02428533   -0.01504764   14.58398351
     atom   86 type  2   force =     0.00126432   -0.02293370   14.46421988
     atom   87 type  2   force =     0.00121267    0.02697617   14.58452481
     atom   88 type  2   force =     0.20050825   -0.42232104   14.49596236
     atom   89 type  2   force =    -0.13630660   -0.12895416   14.39849539
     atom   90 type  2   force =    -0.00009111   -0.00069774   13.95874730
     atom   91 type  2   force =    -0.00049579   -0.00038488   14.47410504
     atom   92 type  2   force =    -0.26832879    0.38251363   14.49662746
     atom   93 type  2   force =    -0.18124838   -0.05475572   14.39915090
     atom   94 type  2   force =    -0.65633334   -0.37929923   14.31355984
     atom   95 type  2   force =     0.99379966    0.57270233   14.00430156
     atom   96 type  1   force =    -0.00034966   -0.00038191    9.32894388
     The local contribution  to forces
     atom    1 type  1   force =     0.00024644    0.21721530    0.89776982
     atom    2 type  1   force =    -0.00030747    2.33415333    2.13263555
     atom    3 type  1   force =     0.27677600    0.34859962    0.57193753
     atom    4 type  1   force =     0.43886120    0.17072595    0.05334819
     atom    5 type  1   force =     0.43792009    0.06723506    0.57082404
     atom    6 type  1   force =     0.36598263    0.29464826    0.05267981
     atom    7 type  1   force =     0.18954101   -0.11072071    0.90250508
     atom    8 type  1   force =     2.02563763   -1.16937112    2.13265384
     atom    9 type  1   force =     1.37801596    0.79203462   -0.14318165
     atom   10 type  1   force =     0.20213783    0.11407410   -0.68162448
     atom   11 type  1   force =    -0.27726407    0.34812622    0.57198225
     atom   12 type  1   force =    -0.43943658    0.17078143    0.05351118
     atom   13 type  1   force =    -0.00054617    0.00041320    0.54116052
     atom   14 type  1   force =    -0.00087821    0.00060577   -0.47791955
     atom   15 type  1   force =     0.16132613   -0.41439550    0.57000490
     atom   16 type  1   force =    -0.07223669   -0.46569082    0.05172926
     atom   17 type  1   force =    -0.00040614   -0.75144205    0.92299917
     atom   18 type  1   force =    -0.00013129   -0.37480068   -0.48558361
     atom   19 type  1   force =    -0.64739530    0.37597202    0.92529025
     atom   20 type  1   force =    -0.32269497    0.18708044   -0.48546953
     atom   21 type  1   force =    -0.43820399    0.06698499    0.57011061
     atom   22 type  1   force =    -0.36680102    0.29471919    0.05267868
     atom   23 type  1   force =    -0.16233337   -0.41432420    0.56933502
     atom   24 type  1   force =     0.07167050   -0.46589013    0.05139993
     atom   25 type  1   force =    -1.37826607    0.79377646   -0.14500278
     atom   26 type  1   force =    -0.20190171    0.11575539   -0.68269430
     atom   27 type  1   force =     0.64836546    0.37697784    0.92505919
     atom   28 type  1   force =     0.32352430    0.18770874   -0.48419498
     atom   29 type  1   force =     0.00139040   -1.58740693   -0.13981908
     atom   30 type  1   force =     0.00153453   -0.23268097   -0.68120648
     atom   31 type  1   force =    -0.18877582   -0.11050906    0.90029618
     atom   32 type  1   force =    -2.02368073   -1.16788337    2.13139523
     atom   33 type  2   force =     0.00082494   -0.00105807   14.27559117
     atom   34 type  2   force =    -0.46663603   -0.72890064   11.89018142
     atom   35 type  2   force =     0.83852753   -0.54905986   14.70832617
     atom   36 type  2   force =    -0.25150731   -0.14069165   13.03122216
     atom   37 type  2   force =     0.23400895    0.13882422   15.17072129
     atom   38 type  2   force =    -0.86258516   -0.04042667   11.88926776
     atom   39 type  2   force =    -0.05493854    0.99890925   14.71014227
     atom   40 type  2   force =    -0.39692253    0.76621165   11.88976223
     atom   41 type  2   force =    -0.89295922   -0.45293641   14.70999333
     atom   42 type  2   force =     0.46725116   -0.73025154   11.88971174
     atom   43 type  2   force =    -0.83844121   -0.54971283   14.70921598
     atom   44 type  2   force =    -0.00082375    0.19822839   13.24129409
     atom   45 type  2   force =    -0.00074893    0.05361953   15.43219511
     atom   46 type  2   force =     0.16857566   -0.09685571   13.24037449
     atom   47 type  2   force =     0.04320906   -0.02534845   15.43280705
     atom   48 type  2   force =    -0.00196280    0.28722814   13.03147303
     atom   49 type  2   force =    -0.00115773   -0.27121633   15.17180340
     atom   50 type  2   force =    -0.42640661   -0.24670320   13.37921560
     atom   51 type  2   force =    -1.51837336   -0.87875187   15.25507114
     atom   52 type  2   force =     0.25157407   -0.14300268   13.03179012
     atom   53 type  2   force =    -0.23426456    0.13765723   15.17092126
     atom   54 type  2   force =    -0.17080927   -0.09724019   13.24020016
     atom   55 type  2   force =    -0.04498989   -0.02554374   15.43300550
     atom   56 type  2   force =     0.39746374    0.76690696   11.88935941
     atom   57 type  2   force =     0.89356778   -0.45215359   14.70863029
     atom   58 type  2   force =     0.42591393   -0.24565319   13.37935231
     atom   59 type  2   force =     1.51864374   -0.87793109   15.25419688
     atom   60 type  2   force =     0.00069309    0.49383745   13.37886328
     atom   61 type  2   force =     0.00085535    1.75504856   15.25482766
     atom   62 type  2   force =     0.86493685   -0.04020361   11.88841858
     atom   63 type  2   force =     0.05649305    0.99927795   14.70966568
     atom   64 type  2   force =     5.39296137   -3.11654016   -8.60964118
     atom   65 type  2   force =     0.84390947   -0.48937191  -13.15232708
     atom   66 type  2   force =    -0.45231289   -0.03351195  -14.23851118
     atom   67 type  2   force =    -0.04142814   -0.17975388  -14.16746559
     atom   68 type  2   force =    -0.25591258   -0.37081678  -14.23910183
     atom   69 type  2   force =    -0.17598919    0.05639273  -14.16792492
     atom   70 type  2   force =     0.00179498    6.22393392   -8.61254734
     atom   71 type  2   force =     0.00235193    0.97490907  -13.15188148
     atom   72 type  2   force =    -5.39113411   -3.11752486   -8.61052417
     atom   73 type  2   force =    -0.84323831   -0.49172592  -13.15336939
     atom   74 type  2   force =    -0.00027922   -0.75165058  -14.06402304
     atom   75 type  2   force =    -0.00071407    1.09792777  -13.79763103
     atom   76 type  2   force =    -0.01382218   -0.00484259  -14.20721189
     atom   77 type  2   force =     0.02035560    0.01408921  -14.35568959
     atom   78 type  2   force =    -0.65280132    0.37689766  -14.06310528
     atom   79 type  2   force =     0.94586057   -0.54588839  -13.79910385
     atom   80 type  2   force =     0.19508690    0.40646639  -14.23881093
     atom   81 type  2   force =    -0.13580005    0.12390634  -14.16796028
     atom   82 type  2   force =     0.45216837   -0.03515436  -14.23884698
     atom   83 type  2   force =     0.04137920   -0.18047651  -14.16808218
     atom   84 type  2   force =     0.01211063   -0.00527643  -14.20750675
     atom   85 type  2   force =    -0.02187930    0.01364399  -14.35565922
     atom   86 type  2   force =    -0.00123134    0.01529499  -14.20618300
     atom   87 type  2   force =    -0.00117265   -0.02422471  -14.35619671
     atom   88 type  2   force =    -0.19630855    0.40724699  -14.23846873
     atom   89 type  2   force =     0.13543628    0.12516601  -14.16632244
     atom   90 type  2   force =     0.00010478    0.00069939  -13.71553340
     atom   91 type  2   force =     0.00050748    0.00039736  -14.25583543
     atom   92 type  2   force =     0.25735593   -0.37136942  -14.23913278
     atom   93 type  2   force =     0.17750855    0.05586104  -14.16697452
     atom   94 type  2   force =     0.65218588    0.37689528  -14.06261025
     atom   95 type  2   force =    -0.94810496   -0.54634300  -13.79738662
     atom   96 type  1   force =     0.00033903    0.00026456   -9.32966468
     The core correction contribution to forces
     atom    1 type  1   force =    -0.00000074   -0.00086429    0.00105688
     atom    2 type  1   force =    -0.00000087   -0.00161640   -0.00117903
     atom    3 type  1   force =    -0.00009293   -0.00028909   -0.00001773
     atom    4 type  1   force =    -0.00024947   -0.00001819   -0.00036079
     atom    5 type  1   force =    -0.00029560    0.00006339   -0.00001713
     atom    6 type  1   force =    -0.00013993   -0.00020639   -0.00036014
     atom    7 type  1   force =    -0.00074918    0.00043253    0.00105534
     atom    8 type  1   force =    -0.00140365    0.00081019   -0.00118200
     atom    9 type  1   force =    -0.00148633   -0.00085713    0.00081287
     atom   10 type  1   force =    -0.00017852   -0.00010231    0.00029349
     atom   11 type  1   force =     0.00009266   -0.00028836   -0.00001778
     atom   12 type  1   force =     0.00024913   -0.00001782   -0.00036073
     atom   13 type  1   force =     0.00000043    0.00000007    0.00014046
     atom   14 type  1   force =     0.00000064   -0.00000008   -0.00005972
     atom   15 type  1   force =    -0.00020266    0.00022474   -0.00001689
     atom   16 type  1   force =     0.00010890    0.00022461   -0.00036008
     atom   17 type  1   force =     0.00000072    0.00030129   -0.00045958
     atom   18 type  1   force =     0.00000078    0.00025984   -0.00004196
     atom   19 type  1   force =     0.00026019   -0.00015058   -0.00046028
     atom   20 type  1   force =     0.00022486   -0.00012956   -0.00004153
     atom   21 type  1   force =     0.00029578    0.00006431   -0.00001720
     atom   22 type  1   force =     0.00014027   -0.00020575   -0.00036012
     atom   23 type  1   force =     0.00020404    0.00022502   -0.00001695
     atom   24 type  1   force =    -0.00010801    0.00022508   -0.00036009
     atom   25 type  1   force =     0.00148694   -0.00085831    0.00081358
     atom   26 type  1   force =     0.00017868   -0.00010339    0.00029390
     atom   27 type  1   force =    -0.00026011   -0.00015136   -0.00046012
     atom   28 type  1   force =    -0.00022465   -0.00013032   -0.00004211
     atom   29 type  1   force =    -0.00000075    0.00171444    0.00081139
     atom   30 type  1   force =    -0.00000082    0.00020583    0.00029331
     atom   31 type  1   force =     0.00074809    0.00043271    0.00105598
     atom   32 type  1   force =     0.00140063    0.00080944   -0.00118015
     atom   33 type  2   force =    -0.00000072    0.00000294   -0.00538103
     atom   34 type  2   force =     0.00018195    0.00043464   -0.00471340
     atom   35 type  2   force =    -0.00060279    0.00029658   -0.00551159
     atom   36 type  2   force =     0.00033470    0.00019390   -0.00508697
     atom   37 type  2   force =    -0.00009737   -0.00005373   -0.00541005
     atom   38 type  2   force =     0.00046747   -0.00006092   -0.00471178
     atom   39 type  2   force =    -0.00004154   -0.00067472   -0.00550988
     atom   40 type  2   force =     0.00028550   -0.00037201   -0.00471284
     atom   41 type  2   force =     0.00056211    0.00037533   -0.00551144
     atom   42 type  2   force =    -0.00018246    0.00043491   -0.00471239
     atom   43 type  2   force =     0.00060268    0.00029756   -0.00551087
     atom   44 type  2   force =    -0.00000050    0.00011934   -0.00537542
     atom   45 type  2   force =    -0.00000042   -0.00000253   -0.00559553
     atom   46 type  2   force =     0.00010105   -0.00005608   -0.00537537
     atom   47 type  2   force =    -0.00000412    0.00000390   -0.00559501
     atom   48 type  2   force =     0.00000013   -0.00038574   -0.00508326
     atom   49 type  2   force =    -0.00000057    0.00011442   -0.00540837
     atom   50 type  2   force =     0.00031322    0.00018224   -0.00510417
     atom   51 type  2   force =     0.00074135    0.00042375   -0.00559227
     atom   52 type  2   force =    -0.00033487    0.00019418   -0.00508503
     atom   53 type  2   force =     0.00009617   -0.00005370   -0.00540972
     atom   54 type  2   force =    -0.00010200   -0.00005605   -0.00537618
     atom   55 type  2   force =     0.00000333    0.00000395   -0.00559305
     atom   56 type  2   force =    -0.00028565   -0.00037219   -0.00471447
     atom   57 type  2   force =    -0.00056078    0.00037548   -0.00551287
     atom   58 type  2   force =    -0.00031288    0.00018173   -0.00510399
     atom   59 type  2   force =    -0.00074043    0.00042408   -0.00559268
     atom   60 type  2   force =    -0.00000024   -0.00036256   -0.00510442
     atom   61 type  2   force =     0.00000077   -0.00085597   -0.00559127
     atom   62 type  2   force =    -0.00046822   -0.00006066   -0.00471234
     atom   63 type  2   force =     0.00004139   -0.00067411   -0.00551058
     atom   64 type  2   force =    -0.00280093    0.00161639    0.00209271
[...]
              0.220400468566943E+03
              0.100120025465753E+03
              0.162927639455723E+03
             -0.902622757841138E+01
              0.500637052338911E+03
              0.839177678007582E+02
             -0.772343526535678E+02
              0.906094087657493E+01
             -0.508085354444158E+02
              0.411191170206700E+03
             -0.236813265732707E+02
              0.885426524716104E+02
              0.296509951154400E+03
              0.650037118464534E+02
             -0.233941754253541E+03
             -0.341073855195211E+03
              0.352368590995957E+01
             -0.383601724598974E+03
              0.130212020201736E+03
             -0.776055202749678E+02
             -0.180314171908617E+03
              0.162011713206744E+03
              0.620614006311416E+02
              0.146111896256349E+03
              0.129451797506777E+02
              0.232806248911498E+03
             -0.380319266736166E+03
             -0.349113494017217E+02
             -0.331791573101227E+03
              0.597666750230387E+02
              0.179697352661022E+03
             -0.333050339790484E+02
             -0.124996014359476E+03
              0.267318581470180E+03
             -0.123776933594786E+03
              0.871035100208735E+02
             -0.776202007181273E+02
              0.190815098938500E+03
              0.230468536504965E+03
             -0.994245430741803E+02
              0.198083040679703E+03
              0.760669277864035E+02
             -0.204349232538420E+03
             -0.122301615727049E+03
              0.329655785790697E+03
              0.156302571507637E+03
             -0.151081250968011E+02
             -0.444800074722630E+02
              0.484513016568797E+03
              0.290611569583854E+03
              0.106477455209503E+03
             -0.310660267673717E+03
              0.486355860392582E+03
             -0.219952290180291E+03
             -0.272702933197354E+03
             -0.422471616809863E+03
              0.203570080743827E+03
             -0.386475468832970E+03
              0.167508172407913E+03
              0.275155498811857E+03
              0.203828205077492E+03
              0.432496845168751E+02
              0.121668305090562E+03
             -0.304543257026775E+03
             -0.108217870473340E+03
             -0.983894389072198E+02
              0.147193380436502E+03
              0.328580542733412E+03
              0.323845315014181E+03
              0.247969016284832E+03
             -0.612892551504815E+02
              0.880573906598320E+02
              0.123604203033747E+02
             -0.973719282144671E+02
              0.145246973135332E+03
              0.139200703263659E+03
             -0.198373665545193E+03
             -0.200831037974555E+03
             -0.921325544084023E+02
              0.213331180953322E+03
              0.108476838508270E+03
             -0.145184013146036E+03
             -0.253112426443723E+03
             -0.347754602129161E+03
              0.723382558765923E+01
              0.990079943881656E+02
             -0.134530691673211E+03
              0.493960727207737E+03
              0.471112701856373E+01
             -0.573878199320538E+03
              0.143899751830767E+03
              0.236830415881759E+03
             -0.859855197686136E+02
              0.901768265634621E+01
             -0.129780822892102E+03
              0.220392689098301E+03
              0.108646470507529E+03
             -0.289954089037701E+03
              0.344298847067912E+03
              0.235747432844023E+02
             -0.137535663870487E+03
             -0.169465766815930E+03
              0.690263954292071E+03
              0.308631994420323E+03
             -0.773944880217864E+02
              0.170119550396848E+03
             -0.336312565199390E+03
             -0.730319653610563E+02
             -0.298948873874955E+03
              0.115438461981981E+03
              0.214603886409001E+03
              0.236084497760049E+03
             -0.103455625745346E+03
              0.179596034432270E+02
              0.294098501670763E+03
              0.940365160223810E+02
              0.175402252298297E+03
              0.713816084633888E+02
             -0.394640669225030E+02
              0.732236697811231E+00
             -0.546261164832792E+02
              0.609124952422917E+02
              0.205208783371131E+02
             -0.267118634333474E+03
              0.409370083678902E+03
              0.157601436634816E+03
             -0.290027422332023E+03
             -0.213205856997176E+03
             -0.300889134514902E+03
             -0.130327896337206E+03
             -0.945447953195458E+02
             -0.237916740753850E+03
             -0.234928933250073E+03
              0.282836620204126E+03
              0.225110066785160E+03
             -0.311532289507008E+02
              0.337849168311487E+03
              0.486132403976399E+02
             -0.543114714973250E+03
              0.291653430811866E+03
              0.497727965795420E+02
              0.229012407897112E+03
              0.309397877319213E+02
              0.259314852088058E+02
              0.466917993664351E+02
              0.123771835254516E+03
             -0.226567413055954E+03
             -0.106900363623667E+03
             -0.214417181355318E+03
             -0.177269258692465E+03
              0.739466417412621E+02
             -0.196812146535665E+03
              0.947609393489566E+02
              0.130120187105220E+03
             -0.120651579600100E+03
             -0.770570412191180E+02
              0.514473857505368E+01
              0.337662552395208E+03
              0.510099028625889E+02
              0.324141650252125E+03
              0.116278857295328E+03
             -0.428377745106275E+03
             -0.142061940571672E+03
              0.146098078949371E+03
              0.337156011646179E+03
              0.556035219311601E+02
              0.138600570246304E+03
              0.310234527148005E+03
             -0.179616894838910E+03
             -0.275860901685538E+03
              0.382401138280703E+03
              0.223307588824009E+02
             -0.404142415465228E+03
              0.147733459274947E+03
              0.255780580491549E+03
             -0.654419630064144E+02
             -0.266434485587017E+03
              0.554776335851172E+02
              0.115624102330976E+02
             -0.129443874317522E+03
              0.494966784516091E+02
             -0.430623151749785E+02
              0.601283867975897E+03
              0.175054249928011E+03
             -0.254661793993238E+03
              0.751642212170700E+02
              0.366107447078561E+03
             -0.247551395615824E+03
             -0.645522293019364E+02
             -0.234137057064227E+03
              0.187681541198712E+03
              0.592587422595836E+02
              0.124101349214519E+03
              0.224740258846971E+02
              0.425222468554028E+03
             -0.242027002031810E+03
             -0.190984578933437E+03
             -0.184399166524793E+03
              0.162061496233794E+03
              0.422554027186256E+03
             -0.706551248493432E+02
              0.172858963545170E+03
             -0.245560828155071E+03
              0.471757066715995E+02
             -0.785506026995133E+02
              0.173258628154319E+02
             -0.952903635984471E+02
             -0.776013286902712E+02
             -0.763213139196382E+02
              0.627451375412884E+02
              0.122654621615629E+03
             -0.267899862505585E+03
              0.198356671641363E+03
             -0.319202672676902E+03
              0.240737853923481E+03
             -0.254473310463712E+03
              0.412671318531478E+03
              0.226740881602533E+03
              0.261001551507135E+03
              0.648487770243264E+02
              0.761678011217446E+02
             -0.570144040091109E+03
              0.922777067942229E+02
              0.208408839884446E+02
              0.543087124438007E+02
             -0.930549498675174E+02
              0.440755748021962E+03
             -0.102297610486578E+03
             -0.182158897424862E+03
             -0.426380391121036E+03
             -0.147965058132479E+03
             -0.204610212856271E+03
             -0.177975714374740E+03
             -0.400748860798078E+02
             -0.973694536284747E+02
             -0.123960726223302E+03
             -0.189820031400754E+03
              0.145209987723874E+03
              0.458032343957619E+03
              0.386932378194741E+03
             -0.686507704070245E+02
             -0.465090866707432E+03
             -0.198348906185463E+03
              0.950544941783625E+02
              0.952399882280597E+02
              0.152040035250595E+03
              0.106866838513480E+03
              0.188572349383871E+02
              0.454356252352684E+03
             -0.110409678544151E+03
              0.223262296854798E+03
              0.115001243865936E+03
             -0.154822697680845E+03
             -0.742053709394399E+02
              0.205847094060875E+03
             -0.110060905223854E+03
             -0.675954924918631E+02
             -0.500881422922505E+02
              0.265084801550996E+03
             -0.348759626887821E+03
             -0.281139989766039E+02
             -0.269151030401398E+03
             -0.571789126208293E+03
             -0.160001426362214E+01
             -0.844461542340775E+02
              0.222248315184499E+03
              0.246987473216616E+03
              0.337840832749691E+03
             -0.219695792797481E+03
              0.341694097533241E+03
              0.854258338250652E+02
             -0.126919753359000E+03
              0.455961314595520E+02
             -0.107762662084590E+03
             -0.637073764967136E+02
              0.197408249320022E+03
             -0.163472089051113E+03
              0.438427970178532E+03
             -0.116870926742098E+03
             -0.242428748120490E+03
              0.458519377064038E+03
             -0.248189494377545E+03
             -0.199798872703241E+02
              0.240503580644274E+02
              0.132193813298661E+03
             -0.193639066347469E+03
             -0.147556155020326E+03
              0.235450240809869E+03
             -0.354374184052185E+03
              0.292142087275203E+03
              0.431828127426427E+02
              0.209368114593602E+03
              0.303273670344295E+03
              0.777804316783549E+02
             -0.421590240807836E+03
             -0.182419911947714E+03
             -0.304382890700775E+03
             -0.180995931618194E+03
             -0.482280227868700E+02
              0.653541587294758E+02
             -0.141867864675938E+03
             -0.243045135578632E+01
             -0.423127336717630E+03
              0.235864173470442E+02
             -0.272932066425736E+03
              0.264492661226126E+03
             -0.154927249356999E+03
             -0.374303831791510E+02
              0.199730171458028E+03
              0.395375005307846E+02
              0.185567803365807E+03
             -0.353875665985195E+03
              0.587209220791715E+02
              0.241761408699200E+02
              0.152361160766456E+03
              0.244217942968055E+03
             -0.451109043492340E+02
             -0.277880832028630E+03
             -0.160897413566685E+03
             -0.113317110115745E+03
             -0.333207988584609E+02
              0.259172462566605E+03
              0.168306600579152E+03
             -0.170417282003466E+03
             -0.159925410947413E+03
              0.117453822648496E+03
              0.127908671410261E+03
             -0.345602494979995E+03
              0.805223995923781E+02
              0.247687504604844E+03
             -0.110924919358401E+02
              0.312305671690039E+03
              0.144101406306216E+03
              0.245564488937305E+03
              0.373450143711580E+03
              0.561691362527728E+02
             -0.508715927198232E+03
              0.701676403311578E+02
              0.550065423167226E+03
              0.399840573031112E+03
             -0.275681119846911E+03
              0.248863030377092E+02
              0.357870591977896E+03
              0.310006728499017E+03
              0.136323061275748E+03
             -0.825054081427448E+02
              0.136944197274342E+03
              0.283462991422876E+03
             -0.131065129065103E+03
             -0.844177744826255E+02
              0.191982957502995E+03
             -0.115109867180931E+02
              0.172501534714359E+03
             -0.531895659362782E+02
              0.359506498815003E+03
             -0.137015712968569E+03
              0.825193838451451E+02
             -0.152263355566989E+03
              0.177892789994873E+03
             -0.241123075186922E+02
              0.265124505003536E+03
              0.188902180094817E+02
              0.118749933800029E+03
             -0.168638525857700E+03
             -0.117858765315353E+03
             -0.601514229224522E+02
             -0.547712333591318E+02
              0.288736772006751E+03
              0.142143771191241E+03
              0.350254540548997E+03
              0.323227484742410E+03
              0.906686262735607E+02
              0.161760636627788E+02
              0.344481029994583E+03
              0.193622186547246E+03
              0.468975625092526E+00
              0.335603871335166E+03
             -0.275400051473399E+03
              0.965530859799978E+02
             -0.179513475611559E+03
             -0.486018329048607E+02
              0.463923328887484E+03
             -0.649329749157250E+02
             -0.194237443237230E+02
             -0.504488546659813E+02
              0.381160946917776E+03
             -0.818046832798768E+02
             -0.701113237763684E+01
              0.768885168003312E+03
             -0.227536791215375E+03
             -0.284124633240449E+03
             -0.284336144545108E+03
             -0.181564255330892E+03
              0.165698543166263E+03
             -0.743194246586013E+02
              0.421287785457196E+02
             -0.192213508322684E+02
              0.975675967969921E+02
              0.156453944665835E+03
              0.182336616332324E+03
              0.262562651943655E+03
              0.168134877214431E+03
              0.171417416195568E+03
             -0.317312005005187E+03
             -0.327687715239073E+03
             -0.738798963709041E+02
             -0.292895733208871E+03
              0.465031494990722E+03
              0.391650064258919E+03
              0.184775229815964E+03
              0.509261714510671E+03
             -0.254409378922016E+03
             -0.109651524166834E+03
             -0.158080827698779E+03
              0.440661428304833E+03
 
 BEEF-vdW xc energy contributions
            1 :    -3982.748512677119     
            2 :     3649.193744465778     
            3 :    -3080.625079712496     
            4 :     2428.884509682937     
            5 :    -1836.838535542242     
            6 :     1392.179148193775     
            7 :    -1113.092909898871     
            8 :     961.7397801438055     
            9 :    -872.9057764778045     
           10 :     785.3582865319067     
           11 :    -665.1055737986244     
           12 :     512.6084905663779     
           13 :    -352.9497806275940     
           14 :     216.6495469794654     
           15 :    -122.6361619075506     
           16 :     71.17029342328351     
           17 :    -47.36499323324097     
           18 :     30.90323435548453     
           19 :    -6.348129528896607     
           20 :    -30.46030251702359     
           21 :     72.35019256225041     
           22 :    -106.6443144211635     
           23 :     123.4082110599229     
           24 :    -121.3854829262264     
           25 :     108.4918601594673     
           26 :    -97.13341027835304     
           27 :     97.40680132460693     
           28 :    -111.9239912390021     
           29 :     134.7584643133623     
           30 :    -154.8296167014214     
           31 :    -343.4216002509984     
           32 :    -247.1364186543433     

     Writing all to output data dir ./PbI2.save/
 
     init_run     :     11.07s CPU     18.59s WALL (       1 calls)
     electrons    :    227.81s CPU    233.43s WALL (       1 calls)
     forces       :      7.28s CPU      7.63s WALL (       1 calls)
     stress       :    110.75s CPU    112.21s WALL (       1 calls)

     Called by init_run:
     wfcinit      :      6.32s CPU     13.36s WALL (       1 calls)
     potinit      :      1.34s CPU      1.54s WALL (       1 calls)
     hinit0       :      1.04s CPU      1.14s WALL (       1 calls)

     Called by electrons:
     c_bands      :    218.08s CPU    222.82s WALL (       2 calls)
     sum_band     :      6.29s CPU      6.60s WALL (       2 calls)
     v_of_rho     :      1.65s CPU      1.77s WALL (       2 calls)
     v_h          :      0.02s CPU      0.02s WALL (       2 calls)
     v_xc         :     26.09s CPU     28.21s WALL (      38 calls)
     newd         :      0.58s CPU      0.82s WALL (       2 calls)
     PAW_pot      :      0.57s CPU      0.57s WALL (       2 calls)
     mix_rho      :      0.00s CPU      0.00s WALL (       2 calls)
     vdW_kernel   :      0.25s CPU      0.26s WALL (       1 calls)

     Called by c_bands:
     init_us_2    :      0.15s CPU      0.16s WALL (       4 calls)
     init_us_2:cp :      0.15s CPU      0.16s WALL (       4 calls)
     cegterg      :    216.76s CPU    220.32s WALL (       2 calls)

     Called by sum_band:
     sum_band:wei :      0.00s CPU      0.00s WALL (       2 calls)
     sum_band:loo :      5.54s CPU      5.59s WALL (       2 calls)
     sum_band:buf :      0.00s CPU      0.00s WALL (       2 calls)
     sum_band:ini :      0.14s CPU      0.14s WALL (       2 calls)
     sum_band:cal :      2.41s CPU      2.43s WALL (       2 calls)
     sum_band:bec :      0.03s CPU      0.04s WALL (       2 calls)
     addusdens    :      0.65s CPU      0.91s WALL (       2 calls)
     addusd:skk   :      0.07s CPU      0.07s WALL (       4 calls)
     addusd:dgemm :      0.35s CPU      0.59s WALL (       4 calls)
     addusd:qvan2 :      0.22s CPU      0.23s WALL (       4 calls)

     Called by *egterg:
     cdiaghg      :    163.20s CPU    164.56s WALL (      21 calls)
     cegterg:over :      8.73s CPU      9.03s WALL (      21 calls)
     cegterg:upda :      4.75s CPU      4.87s WALL (      21 calls)
     cegterg:last :      2.62s CPU      2.65s WALL (       2 calls)
     h_psi        :     28.41s CPU     28.84s WALL (      23 calls)
     s_psi        :      5.37s CPU      5.42s WALL (      23 calls)
     g_psi        :      0.05s CPU      0.05s WALL (      21 calls)

     Called by h_psi:
     h_psi:calbec :      6.04s CPU      6.09s WALL (      23 calls)
     vloc_psi     :     16.87s CPU     17.06s WALL (      23 calls)
     add_vuspsi   :      5.37s CPU      5.44s WALL (      23 calls)

     General routines
     calbec       :     14.52s CPU     14.64s WALL (      30 calls)
     fft          :     15.72s CPU     15.94s WALL (    2232 calls)
     ffts         :      0.03s CPU      0.03s WALL (       4 calls)
     fftw         :     18.86s CPU     19.06s WALL (   10134 calls)
     interpolate  :      0.04s CPU      0.04s WALL (       2 calls)
 
     Parallel routines

     PAW routines
     PAW_pot      :      0.57s CPU      0.57s WALL (       2 calls)
 
     PWSCF        :   6m26.33s CPU   6m50.10s WALL

 
   This run was terminated on:   8:20: 6   3Mar2024            

=------------------------------------------------------------------------------=
   JOB DONE.
=------------------------------------------------------------------------------=
