
     Program PWSCF v.7.1 starts on 23Mar2024 at  9:59: 2 

     This program is part of the open-source Quantum ESPRESSO suite
     for quantum simulation of materials; please cite
         "P. Giannozzi et al., J. Phys.:Condens. Matter 21 395502 (2009);
         "P. Giannozzi et al., J. Phys.:Condens. Matter 29 465901 (2017);
         "P. Giannozzi et al., J. Chem. Phys. 152 154105 (2020);
          URL http://www.quantum-espresso.org", 
     in publications or presentations arising from this work. More details at
     http://www.quantum-espresso.org/quote

     Parallel version (MPI & OpenMP), running on      60 processor cores
     Number of MPI processes:                60
     Threads/MPI process:                     1

     MPI processes distributed on     2 nodes
     1973678 MiB available memory on the printing compute node when the environment starts
 
     Reading input from espresso.pwi
Warning: card &CELL ignored
Warning: card    CELL_DYNAMICS    = 'BFGS' ignored
Warning: card / ignored

     Current dimensions of program PWSCF are:
     Max number of different atomic species (ntypx) = 10
     Max number of k-points (npk) =  40000
     Max angular momentum in pseudopotentials (lmaxx) =  4
     file Ga.pbe-dn-kjpaw_psl.1.0.0.UPF: wavefunction(s)  4S renormalized
     file N.pbe-n-kjpaw_psl.1.0.0.UPF: wavefunction(s)  2S renormalized

     **************************************************************************
     Initializing libbeef V0.1.2 with the BEEF-vdW functional.
     Citation: Wellendorff et al., PRB 85, 235149 (2012).
     **************************************************************************


     IMPORTANT: XC functional enforced from input :
     Exchange-correlation= BEEF-VDW
                           (   1   4  43  14   2   0   0)
     Any further DFT definition will be discarded
     Please, verify this is what you really want

 
     K-points division:     npool     =       2
     R & G space division:  proc/nbgrp/npool/nimage =      30
     Subspace diagonalization in iterative solution of the eigenvalue problem:
     a serial algorithm will be used

 
     Parallelization info
     --------------------
     sticks:   dense  smooth     PW     G-vecs:    dense   smooth      PW
     Min         271     216     57                21575    15440    2109
     Max         272     217     58                21584    15447    2114
     Sum        8137    6505   1735               647327   463355   63361
 
     Using Slab Decomposition
 


     bravais-lattice index     =            4
     lattice parameter (alat)  =      18.3939  a.u.
     unit-cell volume          =    5856.2271 (a.u.)^3
     number of atoms/cell      =           71
     number of atomic types    =            2
     number of electrons       =       642.00
     number of Kohn-Sham states=          385
     kinetic-energy cutoff     =      70.0000  Ry
     charge density cutoff     =     350.0000  Ry
     scf convergence threshold =      1.0E-07
     mixing beta               =       0.7000
     number of iterations used =            8  plain     mixing
     energy convergence thresh.=      1.0E-04
     force convergence thresh. =      1.0E-03
     Exchange-correlation= BEEF-VDW
                           (   1   4  43  14   2   0   0)
     nstep                     =           50


     celldm(1)=  18.393924  celldm(2)=   0.000000  celldm(3)=   1.086586
     celldm(4)=   0.000000  celldm(5)=   0.000000  celldm(6)=   0.000000

     crystal axes: (cart. coord. in units of alat)
               a(1) = (   1.000000   0.000000   0.000000 )  
               a(2) = (  -0.500000   0.866025   0.000000 )  
               a(3) = (   0.000000   0.000000   1.086586 )  

     reciprocal axes: (cart. coord. in units 2 pi/alat)
               b(1) = (  1.000000  0.577350 -0.000000 )  
               b(2) = (  0.000000  1.154701  0.000000 )  
               b(3) = (  0.000000 -0.000000  0.920314 )  


     PseudoPot. # 1 for Ga read from file:
     //group///packages/espresso/pseudo/psl_1.0.0/pslibrary.1.0.0/pbe/PSEUDOPOTENTIALS/Ga.pbe-dn-kjpaw_psl.1.0.0.UPF
     MD5 check sum: cd2a01e492f15b435d17032472d8505c
     Pseudo is Projector augmented-wave + core cor, Zval = 13.0
     Generated using 'atomic' code by A. Dal Corso  v.7.1
     Shape of augmentation charge: PSQ
     Using radial grid of 1205 points,  6 beta functions with: 
                l(1) =   0
                l(2) =   0
                l(3) =   1
                l(4) =   1
                l(5) =   2
                l(6) =   2
     Q(r) pseudized with 0 coefficients 


     PseudoPot. # 2 for N  read from file:
     //group///packages/espresso/pseudo/psl_1.0.0/pslibrary.1.0.0/pbe/PSEUDOPOTENTIALS/N.pbe-n-kjpaw_psl.1.0.0.UPF
     MD5 check sum: f77f775694dac7e2c3fe1c82443d1a16
     Pseudo is Projector augmented-wave + core cor, Zval =  5.0
     Generated using 'atomic' code by A. Dal Corso  v.7.1
     Shape of augmentation charge: PSQ
     Using radial grid of 1085 points,  4 beta functions with: 
                l(1) =   0
                l(2) =   0
                l(3) =   1
                l(4) =   1
     Q(r) pseudized with 0 coefficients 


     atomic species   valence    mass     pseudopotential
        Ga            13.00    69.72300     Ga( 1.00)
        N              5.00    14.00700     N ( 1.00)

      6 Sym. Ops. (no inversion) found ( 4 have fractional translation)


                                    s                        frac. trans.

      isym =  1     identity                                     

 cryst.   s( 1) = (     1          0          0      )
                  (     0          1          0      )
                  (     0          0          1      )

 cart.    s( 1) = (  1.0000000  0.0000000  0.0000000 )
                  (  0.0000000  1.0000000  0.0000000 )
                  (  0.0000000  0.0000000  1.0000000 )


      isym =  2     120 deg rotation - cryst. axis [0,0,1]       

 cryst.   s( 2) = (     0          1          0      )    f =( -0.3333334 )
                  (    -1         -1          0      )       (  0.0000003 )
                  (     0          0          1      )       (  0.0000000 )

 cart.    s( 2) = ( -0.5000000 -0.8660254  0.0000000 )    f =( -0.3333335 )
                  (  0.8660254 -0.5000000  0.0000000 )       (  0.0000002 )
                  (  0.0000000  0.0000000  1.0000000 )       (  0.0000000 )


      isym =  3     120 deg rotation - cryst. axis [0,0,-1]      

 cryst.   s( 3) = (    -1         -1          0      )    f =( -0.3333336 )
                  (     1          0          0      )       ( -0.3333334 )
                  (     0          0          1      )       (  0.0000000 )

 cart.    s( 3) = ( -0.5000000  0.8660254  0.0000000 )    f =( -0.1666669 )
                  ( -0.8660254 -0.5000000  0.0000000 )       ( -0.2886752 )
                  (  0.0000000  0.0000000  1.0000000 )       (  0.0000000 )


      isym =  4     inv. 180 deg rotation - cart. axis [1,0,0]   

 cryst.   s( 4) = (    -1          0          0      )    f =( -0.3333336 )
                  (     1          1          0      )       (  0.0000000 )
                  (     0          0          1      )       (  0.0000000 )

 cart.    s( 4) = ( -1.0000000  0.0000000  0.0000000 )    f =( -0.3333336 )
                  (  0.0000000  1.0000000  0.0000000 )       (  0.0000000 )
                  (  0.0000000  0.0000000  1.0000000 )       (  0.0000000 )


      isym =  5     inv. 180 deg rotation - cryst. axis [0,1,0]  

 cryst.   s( 5) = (     1          1          0      )
                  (     0         -1          0      )
                  (     0          0          1      )

 cart.    s( 5) = (  0.5000000  0.8660254  0.0000000 )
                  (  0.8660254 -0.5000000  0.0000000 )
                  (  0.0000000  0.0000000  1.0000000 )


      isym =  6     inv. 180 deg rotation - cryst. axis [1,1,0]  

 cryst.   s( 6) = (     0         -1          0      )    f =( -0.3333334 )
                  (    -1          0          0      )       ( -0.3333334 )
                  (     0          0          1      )       (  0.0000000 )

 cart.    s( 6) = (  0.5000000 -0.8660254  0.0000000 )    f =( -0.1666667 )
                  ( -0.8660254 -0.5000000  0.0000000 )       ( -0.2886752 )
                  (  0.0000000  0.0000000  1.0000000 )       (  0.0000000 )


     point group C_3v (3m)  
     there are  3 classes
     the character table:

       E     2C3   3s_v 
A_1    1.00  1.00  1.00
A_2    1.00  1.00 -1.00
E      2.00 -1.00  0.00

     the symmetry operations in each class and the name of the first element:

     E        1
          identity                                               
     2C3      2    3
          120 deg rotation - cryst. axis [0,0,1]                 
     3s_v     4    5    6
          inv. 180 deg rotation - cart. axis [1,0,0]             

   Cartesian axes

     site n.     atom                  positions (alat units)
         1           Ga  tau(   1) = (   0.1666668   0.0962250   0.2711914  )
         2           Ga  tau(   2) = (   0.1666668   0.0962250   0.8144844  )
         3           Ga  tau(   3) = (   0.0000001   0.3849001   0.2711914  )
         4           Ga  tau(   4) = (   0.0000001   0.3849001   0.8144844  )
         5           Ga  tau(   5) = (  -0.1666665   0.6735752   0.2711914  )
         6           Ga  tau(   6) = (  -0.1666665   0.6735752   0.8144844  )
         7           Ga  tau(   7) = (   0.5000001   0.0962250   0.2711914  )
         8           Ga  tau(   8) = (   0.5000001   0.0962250   0.8144844  )
         9           Ga  tau(   9) = (   0.3333335   0.3849001   0.2711914  )
        10           Ga  tau(  10) = (   0.3333335   0.3849001   0.8144844  )
        11           Ga  tau(  11) = (   0.1666668   0.6735752   0.2711914  )
        12           Ga  tau(  12) = (   0.1666668   0.6735752   0.8144844  )
        13           Ga  tau(  13) = (   0.8333335   0.0962250   0.2711914  )
        14           Ga  tau(  14) = (   0.8333335   0.0962250   0.8144844  )
        15           Ga  tau(  15) = (   0.6666668   0.3849001   0.2711914  )
        16           Ga  tau(  16) = (   0.6666668   0.3849001   0.8144844  )
        17           Ga  tau(  17) = (   0.5000001   0.6735752   0.2711914  )
        18           Ga  tau(  18) = (   0.5000001   0.6735752   0.8144844  )
        19           Ga  tau(  19) = (  -0.0000002   0.1924502   0.5428379  )
        20           Ga  tau(  20) = (  -0.0000002   0.1924502   1.0861309  )
        21           Ga  tau(  21) = (  -0.1666669   0.4811254   0.5428379  )
        22           Ga  tau(  22) = (  -0.1666669   0.4811254   1.0861309  )
        23           Ga  tau(  23) = (  -0.3333335   0.7698005   0.5428379  )
        24           Ga  tau(  24) = (  -0.3333335   0.7698005   1.0861309  )
        25           Ga  tau(  25) = (   0.3333331   0.1924502   0.5428379  )
        26           Ga  tau(  26) = (   0.3333331   0.1924502   1.0861309  )
        27           Ga  tau(  27) = (   0.1666665   0.4811254   0.5428379  )
        28           Ga  tau(  28) = (   0.1666665   0.4811254   1.0861309  )
        29           Ga  tau(  29) = (  -0.0000002   0.7698005   0.5428379  )
        30           Ga  tau(  30) = (  -0.0000002   0.7698005   1.0861309  )
        31           Ga  tau(  31) = (   0.6666665   0.1924502   0.5428379  )
        32           Ga  tau(  32) = (   0.6666665   0.1924502   1.0861309  )
        33           Ga  tau(  33) = (   0.4999998   0.4811254   0.5428379  )
        34           Ga  tau(  34) = (   0.4999998   0.4811254   1.0861309  )
        35           Ga  tau(  35) = (   0.3333331   0.7698005   0.5428379  )
        36           Ga  tau(  36) = (   0.3333331   0.7698005   1.0861309  )
        37           N   tau(  37) = (   0.1666668   0.0962250   1.0191295  )
        38           N   tau(  38) = (   0.0000001   0.3849001   0.4758365  )
        39           N   tau(  39) = (   0.0000001   0.3849001   1.0191295  )
        40           N   tau(  40) = (  -0.1666665   0.6735752   0.4758365  )
        41           N   tau(  41) = (  -0.1666665   0.6735752   1.0191295  )
        42           N   tau(  42) = (   0.5000001   0.0962250   0.4758365  )
        43           N   tau(  43) = (   0.5000001   0.0962250   1.0191295  )
        44           N   tau(  44) = (   0.3333335   0.3849001   0.4758365  )
        45           N   tau(  45) = (   0.3333335   0.3849001   1.0191295  )
        46           N   tau(  46) = (   0.1666668   0.6735752   0.4758365  )
        47           N   tau(  47) = (   0.1666668   0.6735752   1.0191295  )
        48           N   tau(  48) = (   0.8333335   0.0962250   0.4758365  )
        49           N   tau(  49) = (   0.8333335   0.0962250   1.0191295  )
        50           N   tau(  50) = (   0.6666668   0.3849001   0.4758365  )
        51           N   tau(  51) = (   0.6666668   0.3849001   1.0191295  )
        52           N   tau(  52) = (   0.5000001   0.6735752   0.4758365  )
        53           N   tau(  53) = (   0.5000001   0.6735752   1.0191295  )
        54           N   tau(  54) = (  -0.0000002   0.1924502   0.2041900  )
        55           N   tau(  55) = (  -0.0000002   0.1924502   0.7474830  )
        56           N   tau(  56) = (  -0.1666669   0.4811254   0.2041900  )
        57           N   tau(  57) = (  -0.1666669   0.4811254   0.7474830  )
        58           N   tau(  58) = (  -0.3333335   0.7698005   0.2041900  )
        59           N   tau(  59) = (  -0.3333335   0.7698005   0.7474830  )
        60           N   tau(  60) = (   0.3333331   0.1924502   0.2041900  )
        61           N   tau(  61) = (   0.3333331   0.1924502   0.7474830  )
        62           N   tau(  62) = (   0.1666665   0.4811254   0.2041900  )
        63           N   tau(  63) = (   0.1666665   0.4811254   0.7474830  )
        64           N   tau(  64) = (  -0.0000002   0.7698005   0.2041900  )
        65           N   tau(  65) = (  -0.0000002   0.7698005   0.7474830  )
        66           N   tau(  66) = (   0.6666665   0.1924502   0.2041900  )
        67           N   tau(  67) = (   0.6666665   0.1924502   0.7474830  )
        68           N   tau(  68) = (   0.4999998   0.4811254   0.2041900  )
        69           N   tau(  69) = (   0.4999998   0.4811254   0.7474830  )
        70           N   tau(  70) = (   0.3333331   0.7698005   0.2041900  )
        71           N   tau(  71) = (   0.3333331   0.7698005   0.7474830  )

   Crystallographic axes

     site n.     atom                  positions (cryst. coord.)
         1           Ga  tau(   1) = (  0.2222223  0.1111110  0.2495811  )
         2           Ga  tau(   2) = (  0.2222223  0.1111110  0.7495811  )
         3           Ga  tau(   3) = (  0.2222223  0.4444444  0.2495811  )
         4           Ga  tau(   4) = (  0.2222223  0.4444444  0.7495811  )
         5           Ga  tau(   5) = (  0.2222223  0.7777777  0.2495811  )
         6           Ga  tau(   6) = (  0.2222223  0.7777777  0.7495811  )
         7           Ga  tau(   7) = (  0.5555557  0.1111110  0.2495811  )
         8           Ga  tau(   8) = (  0.5555557  0.1111110  0.7495811  )
         9           Ga  tau(   9) = (  0.5555557  0.4444444  0.2495811  )
        10           Ga  tau(  10) = (  0.5555557  0.4444444  0.7495811  )
        11           Ga  tau(  11) = (  0.5555557  0.7777777  0.2495811  )
        12           Ga  tau(  12) = (  0.5555557  0.7777777  0.7495811  )
        13           Ga  tau(  13) = (  0.8888890  0.1111110  0.2495811  )
        14           Ga  tau(  14) = (  0.8888890  0.1111110  0.7495811  )
        15           Ga  tau(  15) = (  0.8888890  0.4444444  0.2495811  )
        16           Ga  tau(  16) = (  0.8888890  0.4444444  0.7495811  )
        17           Ga  tau(  17) = (  0.8888890  0.7777777  0.2495811  )
        18           Ga  tau(  18) = (  0.8888890  0.7777777  0.7495811  )
        19           Ga  tau(  19) = (  0.1111110  0.2222224  0.4995811  )
        20           Ga  tau(  20) = (  0.1111110  0.2222224  0.9995811  )
        21           Ga  tau(  21) = (  0.1111110  0.5555557  0.4995811  )
        22           Ga  tau(  22) = (  0.1111110  0.5555557  0.9995811  )
        23           Ga  tau(  23) = (  0.1111110  0.8888891  0.4995811  )
        24           Ga  tau(  24) = (  0.1111110  0.8888891  0.9995811  )
        25           Ga  tau(  25) = (  0.4444443  0.2222224  0.4995811  )
        26           Ga  tau(  26) = (  0.4444443  0.2222224  0.9995811  )
        27           Ga  tau(  27) = (  0.4444443  0.5555557  0.4995811  )
        28           Ga  tau(  28) = (  0.4444443  0.5555557  0.9995811  )
        29           Ga  tau(  29) = (  0.4444443  0.8888891  0.4995811  )
        30           Ga  tau(  30) = (  0.4444443  0.8888891  0.9995811  )
        31           Ga  tau(  31) = (  0.7777777  0.2222224  0.4995811  )
        32           Ga  tau(  32) = (  0.7777777  0.2222224  0.9995811  )
        33           Ga  tau(  33) = (  0.7777777  0.5555557  0.4995811  )
        34           Ga  tau(  34) = (  0.7777777  0.5555557  0.9995811  )
        35           Ga  tau(  35) = (  0.7777777  0.8888891  0.4995811  )
        36           Ga  tau(  36) = (  0.7777777  0.8888891  0.9995811  )
        37           N   tau(  37) = (  0.2222223  0.1111110  0.9379189  )
        38           N   tau(  38) = (  0.2222223  0.4444444  0.4379189  )
        39           N   tau(  39) = (  0.2222223  0.4444444  0.9379189  )
        40           N   tau(  40) = (  0.2222223  0.7777777  0.4379189  )
        41           N   tau(  41) = (  0.2222223  0.7777777  0.9379189  )
        42           N   tau(  42) = (  0.5555557  0.1111110  0.4379189  )
        43           N   tau(  43) = (  0.5555557  0.1111110  0.9379189  )
        44           N   tau(  44) = (  0.5555557  0.4444444  0.4379189  )
        45           N   tau(  45) = (  0.5555557  0.4444444  0.9379189  )
        46           N   tau(  46) = (  0.5555557  0.7777777  0.4379189  )
        47           N   tau(  47) = (  0.5555557  0.7777777  0.9379189  )
        48           N   tau(  48) = (  0.8888890  0.1111110  0.4379189  )
        49           N   tau(  49) = (  0.8888890  0.1111110  0.9379189  )
        50           N   tau(  50) = (  0.8888890  0.4444444  0.4379189  )
        51           N   tau(  51) = (  0.8888890  0.4444444  0.9379189  )
        52           N   tau(  52) = (  0.8888890  0.7777777  0.4379189  )
        53           N   tau(  53) = (  0.8888890  0.7777777  0.9379189  )
        54           N   tau(  54) = (  0.1111110  0.2222224  0.1879189  )
        55           N   tau(  55) = (  0.1111110  0.2222224  0.6879189  )
        56           N   tau(  56) = (  0.1111110  0.5555557  0.1879189  )
        57           N   tau(  57) = (  0.1111110  0.5555557  0.6879189  )
        58           N   tau(  58) = (  0.1111110  0.8888891  0.1879189  )
        59           N   tau(  59) = (  0.1111110  0.8888891  0.6879189  )
        60           N   tau(  60) = (  0.4444443  0.2222224  0.1879189  )
        61           N   tau(  61) = (  0.4444443  0.2222224  0.6879189  )
        62           N   tau(  62) = (  0.4444443  0.5555557  0.1879189  )
        63           N   tau(  63) = (  0.4444443  0.5555557  0.6879189  )
        64           N   tau(  64) = (  0.4444443  0.8888891  0.1879189  )
        65           N   tau(  65) = (  0.4444443  0.8888891  0.6879189  )
        66           N   tau(  66) = (  0.7777777  0.2222224  0.1879189  )
        67           N   tau(  67) = (  0.7777777  0.2222224  0.6879189  )
        68           N   tau(  68) = (  0.7777777  0.5555557  0.1879189  )
        69           N   tau(  69) = (  0.7777777  0.5555557  0.6879189  )
        70           N   tau(  70) = (  0.7777777  0.8888891  0.1879189  )
        71           N   tau(  71) = (  0.7777777  0.8888891  0.6879189  )

     number of k points=     4  Gaussian smearing, width (Ry)=  0.0100
                       cart. coord. in units 2pi/alat
        k(    1) = (   0.0000000   0.0000000   0.0000000), wk =   0.2500000
        k(    2) = (   0.0000000   0.0000000  -0.4601568), wk =   0.2500000
        k(    3) = (   0.0000000  -0.5773503   0.0000000), wk =   0.7500000
        k(    4) = (   0.0000000  -0.5773503  -0.4601568), wk =   0.7500000

                       cryst. coord.
        k(    1) = (   0.0000000   0.0000000   0.0000000), wk =   0.2500000
        k(    2) = (   0.0000000   0.0000000  -0.5000000), wk =   0.2500000
        k(    3) = (   0.0000000  -0.5000000   0.0000000), wk =   0.7500000
        k(    4) = (   0.0000000  -0.5000000  -0.5000000), wk =   0.7500000

     Dense  grid:   647327 G-vectors     FFT dimensions: ( 120, 120, 120)

     Smooth grid:   463355 G-vectors     FFT dimensions: ( 108, 108, 108)

     Dynamical RAM for                 wfc:      11.34 MB

     Dynamical RAM for     wfc (w. buffer):      34.01 MB

     Dynamical RAM for           str. fact:       0.66 MB

     Dynamical RAM for           local pot:       0.00 MB

     Dynamical RAM for          nlocal pot:      27.33 MB

     Dynamical RAM for                qrad:       3.00 MB

     Dynamical RAM for          rho,v,vnew:       2.31 MB

     Dynamical RAM for               rhoin:       0.77 MB

     Dynamical RAM for            rho*nmix:       5.27 MB

     Dynamical RAM for           G-vectors:       1.35 MB

     Dynamical RAM for          h,s,v(r/c):     108.56 MB

     Dynamical RAM for          <psi|beta>:       5.45 MB

     Dynamical RAM for                 psi:      45.35 MB

     Dynamical RAM for                hpsi:      45.35 MB

     Dynamical RAM for                spsi:      45.35 MB

     Dynamical RAM for      wfcinit/wfcrot:      32.26 MB

     Dynamical RAM for           addusdens:      36.71 MB

     Dynamical RAM for          addusforce:      48.37 MB

     Dynamical RAM for         addusstress:      33.17 MB

     Estimated static dynamical RAM per process >      72.62 MB

     Estimated max dynamical RAM per process >     327.96 MB

     Estimated total dynamical RAM >      19.06 GB

     Check: negative core charge=   -0.000003

     Initial potential from superposition of free atoms

     starting charge     642.8934, renormalised to     642.0000


     %%%%%%%%%%%%%%%%%%%%%%%%%%%%%%%%%%%%%%%%%%%%%%%%%%%%%%%%%%%%%%%%%%%%%%%%
     %                                                                      %
     % You are using vdW-DF, which was implemented by the Thonhauser group. %
     % Please cite the following two papers that made this development      %
     % possible and the two reviews that describe the various versions:     %
     %                                                                      %
     %   T. Thonhauser et al., PRL 115, 136402 (2015).                      %
     %   T. Thonhauser et al., PRB 76, 125112 (2007).                       %
     %   K. Berland et al., Rep. Prog. Phys. 78, 066501 (2015).             %
     %   D.C. Langreth et al., J. Phys.: Condens. Matter 21, 084203 (2009). %
     %                                                                      %
     % If you are calculating stress with vdW-DF, please also cite:         %
     %                                                                      %
     %   R. Sabatini et al., J. Phys.: Condens. Matter 24, 424209 (2012).   %
     %                                                                      %
     %%%%%%%%%%%%%%%%%%%%%%%%%%%%%%%%%%%%%%%%%%%%%%%%%%%%%%%%%%%%%%%%%%%%%%%%

     %%%%%%%%%%%%%%%%%%%%%%%%%%%%%%%%%%%%%%%%%%%%%%%%%%%%%%%%%%%%%%%%%%%%%%%%
     %                                                                      %
     %  vdW-DF NEWS:                                                        %
     %                                                                      %
     %  * vdW-DF3 is now available. DOI: 10.1021/acs.jctc.0c00471           %
     %    use with input_dft = 'vdW-DF3-opt1' or 'vdW-DF3-opt2'             %
     %                                                                      %
     %  * Unscreened and range-separated vdW-DF hybrid functionals          %
     %    DOI: 10.1063/1.4986522 and 10.1088/1361-648X/ac2ad2               %
     %    use with input_dft = 'vdW-DF-cx0' (etc) and 'vdW-DF-ahcx'         %
     %                                                                      %
     %%%%%%%%%%%%%%%%%%%%%%%%%%%%%%%%%%%%%%%%%%%%%%%%%%%%%%%%%%%%%%%%%%%%%%%%


     Carrying out vdW-DF run using the following parameters:
     Nqs    =  20  Npoints =  1024  r_max =  100.000
     q_mesh =  0.00001000  0.04494208  0.09755937  0.15916263
               0.23128650  0.31572767  0.41458969  0.53033537
               0.66584808  0.82450364  1.01025438  1.22772762
               1.48234092  1.78043706  2.12944203  2.53805004
               3.01644009  3.57652955  4.23227104  5.00000000


     -----------------------------------------------
     Non-local corr. energy    =      18.55658919 Ry
     -----------------------------------------------

     Starting wfcs are  464 randomized atomic wfcs
     Checking if some PAW data can be deallocated... 
       PAW data deallocated on   35 nodes for type:  1
       PAW data deallocated on   25 nodes for type:  2

     total cpu time spent up to now is        8.6 secs

     Self-consistent Calculation

     iteration #  1     ecut=    70.00 Ry     beta= 0.70
     Davidson diagonalization with overlap

---- Real-time Memory Report at c_bands before calling an iterative solver
           341 MiB given to the printing process from OS
             0 MiB allocation reported by mallinfo(arena+hblkhd)
       1969139 MiB available memory on the node where the printing process lives
------------------
     ethr =  1.00E-02,  avg # of iterations =  4.0


     -----------------------------------------------
     Non-local corr. energy    =      19.38432704 Ry
     -----------------------------------------------


     total cpu time spent up to now is       26.1 secs

     total energy              =  -11199.73620617 Ry
     estimated scf accuracy    <      23.24741273 Ry

     iteration #  2     ecut=    70.00 Ry     beta= 0.70
     Davidson diagonalization with overlap

---- Real-time Memory Report at c_bands before calling an iterative solver
           476 MiB given to the printing process from OS
             0 MiB allocation reported by mallinfo(arena+hblkhd)
       1968880 MiB available memory on the node where the printing process lives
------------------
     ethr =  3.62E-03,  avg # of iterations =  6.8


     -----------------------------------------------
     Non-local corr. energy    =      19.23372607 Ry
     -----------------------------------------------


     total cpu time spent up to now is       60.1 secs

     total energy              =  -11205.58030242 Ry
     estimated scf accuracy    <      40.63617948 Ry

     iteration #  3     ecut=    70.00 Ry     beta= 0.70
     Davidson diagonalization with overlap

---- Real-time Memory Report at c_bands before calling an iterative solver
           549 MiB given to the printing process from OS
             0 MiB allocation reported by mallinfo(arena+hblkhd)
       1968696 MiB available memory on the node where the printing process lives
------------------
     ethr =  3.62E-03,  avg # of iterations =  6.0


     -----------------------------------------------
     Non-local corr. energy    =      19.30087604 Ry
     -----------------------------------------------


     total cpu time spent up to now is       84.6 secs

     total energy              =  -11212.80682645 Ry
     estimated scf accuracy    <       8.60237139 Ry

     iteration #  4     ecut=    70.00 Ry     beta= 0.70
     Davidson diagonalization with overlap

---- Real-time Memory Report at c_bands before calling an iterative solver
           549 MiB given to the printing process from OS
             0 MiB allocation reported by mallinfo(arena+hblkhd)
       1968671 MiB available memory on the node where the printing process lives
------------------
     ethr =  1.34E-03,  avg # of iterations =  8.0


     -----------------------------------------------
     Non-local corr. energy    =      19.45077973 Ry
     -----------------------------------------------


     total cpu time spent up to now is      110.9 secs

     total energy              =  -11213.91839683 Ry
     estimated scf accuracy    <       0.43592622 Ry

     iteration #  5     ecut=    70.00 Ry     beta= 0.70
     Davidson diagonalization with overlap

---- Real-time Memory Report at c_bands before calling an iterative solver
           549 MiB given to the printing process from OS
             0 MiB allocation reported by mallinfo(arena+hblkhd)
       1968650 MiB available memory on the node where the printing process lives
------------------
     ethr =  6.79E-05,  avg # of iterations =  8.8


     -----------------------------------------------
     Non-local corr. energy    =      19.56286833 Ry
     -----------------------------------------------


     total cpu time spent up to now is      155.0 secs

     total energy              =  -11214.04138029 Ry
     estimated scf accuracy    <       0.19304808 Ry

     iteration #  6     ecut=    70.00 Ry     beta= 0.70
     Davidson diagonalization with overlap

---- Real-time Memory Report at c_bands before calling an iterative solver
           560 MiB given to the printing process from OS
             0 MiB allocation reported by mallinfo(arena+hblkhd)
       1968607 MiB available memory on the node where the printing process lives
------------------
     ethr =  3.01E-05,  avg # of iterations = 12.0


     -----------------------------------------------
     Non-local corr. energy    =      19.54553353 Ry
     -----------------------------------------------


     total cpu time spent up to now is      194.6 secs

     total energy              =  -11214.07032517 Ry
     estimated scf accuracy    <       0.02397355 Ry

     iteration #  7     ecut=    70.00 Ry     beta= 0.70
     Davidson diagonalization with overlap

---- Real-time Memory Report at c_bands before calling an iterative solver
           560 MiB given to the printing process from OS
             0 MiB allocation reported by mallinfo(arena+hblkhd)
       1968495 MiB available memory on the node where the printing process lives
------------------
     ethr =  3.73E-06,  avg # of iterations = 13.3


     -----------------------------------------------
     Non-local corr. energy    =      19.54773872 Ry
     -----------------------------------------------


     total cpu time spent up to now is      243.3 secs

     total energy              =  -11214.07741212 Ry
     estimated scf accuracy    <       0.01636576 Ry

     iteration #  8     ecut=    70.00 Ry     beta= 0.70
     Davidson diagonalization with overlap

---- Real-time Memory Report at c_bands before calling an iterative solver
           560 MiB given to the printing process from OS
             0 MiB allocation reported by mallinfo(arena+hblkhd)
       1968547 MiB available memory on the node where the printing process lives
------------------
     ethr =  2.55E-06,  avg # of iterations = 11.3


     -----------------------------------------------
     Non-local corr. energy    =      19.55488585 Ry
     -----------------------------------------------


     total cpu time spent up to now is      280.8 secs

     total energy              =  -11214.08067377 Ry
     estimated scf accuracy    <       0.00049390 Ry

     iteration #  9     ecut=    70.00 Ry     beta= 0.70
     Davidson diagonalization with overlap

---- Real-time Memory Report at c_bands before calling an iterative solver
           560 MiB given to the printing process from OS
             0 MiB allocation reported by mallinfo(arena+hblkhd)
       1968523 MiB available memory on the node where the printing process lives
------------------
     ethr =  7.69E-08,  avg # of iterations =  5.8


     -----------------------------------------------
     Non-local corr. energy    =      19.55748798 Ry
     -----------------------------------------------


     total cpu time spent up to now is      315.4 secs

     total energy              =  -11214.08128953 Ry
     estimated scf accuracy    <       0.00027936 Ry

     iteration # 10     ecut=    70.00 Ry     beta= 0.70
     Davidson diagonalization with overlap

---- Real-time Memory Report at c_bands before calling an iterative solver
           574 MiB given to the printing process from OS
             0 MiB allocation reported by mallinfo(arena+hblkhd)
       1968467 MiB available memory on the node where the printing process lives
------------------
     ethr =  4.35E-08,  avg # of iterations =  9.8


     -----------------------------------------------
     Non-local corr. energy    =      19.55650904 Ry
     -----------------------------------------------


     total cpu time spent up to now is      346.3 secs

     total energy              =  -11214.08129588 Ry
     estimated scf accuracy    <       0.00011105 Ry

     iteration # 11     ecut=    70.00 Ry     beta= 0.70
     Davidson diagonalization with overlap

---- Real-time Memory Report at c_bands before calling an iterative solver
           574 MiB given to the printing process from OS
             0 MiB allocation reported by mallinfo(arena+hblkhd)
       1968462 MiB available memory on the node where the printing process lives
------------------
     ethr =  1.73E-08,  avg # of iterations =  9.3


     -----------------------------------------------
     Non-local corr. energy    =      19.55506926 Ry
     -----------------------------------------------


     total cpu time spent up to now is      391.7 secs

     total energy              =  -11214.08132718 Ry
     estimated scf accuracy    <       0.00007871 Ry

     iteration # 12     ecut=    70.00 Ry     beta= 0.70
     Davidson diagonalization with overlap

---- Real-time Memory Report at c_bands before calling an iterative solver
           574 MiB given to the printing process from OS
             0 MiB allocation reported by mallinfo(arena+hblkhd)
       1968457 MiB available memory on the node where the printing process lives
------------------
     ethr =  1.23E-08,  avg # of iterations = 10.5


     -----------------------------------------------
     Non-local corr. energy    =      19.55432884 Ry
     -----------------------------------------------


     total cpu time spent up to now is      422.3 secs

     total energy              =  -11214.08132977 Ry
     estimated scf accuracy    <       0.00002329 Ry

     iteration # 13     ecut=    70.00 Ry     beta= 0.70
     Davidson diagonalization with overlap

---- Real-time Memory Report at c_bands before calling an iterative solver
           574 MiB given to the printing process from OS
             0 MiB allocation reported by mallinfo(arena+hblkhd)
       1968463 MiB available memory on the node where the printing process lives
------------------
     ethr =  3.63E-09,  avg # of iterations =  9.3


     -----------------------------------------------
     Non-local corr. energy    =      19.55349945 Ry
     -----------------------------------------------


     total cpu time spent up to now is      449.1 secs

     total energy              =  -11214.08132903 Ry
     estimated scf accuracy    <       0.00000833 Ry

     iteration # 14     ecut=    70.00 Ry     beta= 0.70
     Davidson diagonalization with overlap

---- Real-time Memory Report at c_bands before calling an iterative solver
           574 MiB given to the printing process from OS
             0 MiB allocation reported by mallinfo(arena+hblkhd)
       1968449 MiB available memory on the node where the printing process lives
------------------
     ethr =  1.30E-09,  avg # of iterations =  6.3


     -----------------------------------------------
     Non-local corr. energy    =      19.55376406 Ry
     -----------------------------------------------


     total cpu time spent up to now is      485.3 secs

     total energy              =  -11214.08133225 Ry
     estimated scf accuracy    <       0.00000178 Ry

     iteration # 15     ecut=    70.00 Ry     beta= 0.70
     Davidson diagonalization with overlap

---- Real-time Memory Report at c_bands before calling an iterative solver
           574 MiB given to the printing process from OS
             0 MiB allocation reported by mallinfo(arena+hblkhd)
       1968451 MiB available memory on the node where the printing process lives
------------------
     ethr =  2.78E-10,  avg # of iterations =  7.0


     -----------------------------------------------
     Non-local corr. energy    =      19.55379894 Ry
     -----------------------------------------------


     total cpu time spent up to now is      511.7 secs

     total energy              =  -11214.08133241 Ry
     estimated scf accuracy    <       0.00000033 Ry

     iteration # 16     ecut=    70.00 Ry     beta= 0.70
     Davidson diagonalization with overlap

---- Real-time Memory Report at c_bands before calling an iterative solver
           574 MiB given to the printing process from OS
             0 MiB allocation reported by mallinfo(arena+hblkhd)
       1968443 MiB available memory on the node where the printing process lives
------------------
     ethr =  5.21E-11,  avg # of iterations =  7.5


     -----------------------------------------------
     Non-local corr. energy    =      19.55386733 Ry
     -----------------------------------------------


     total cpu time spent up to now is      550.6 secs

     End of self-consistent calculation

          k = 0.0000 0.0000 0.0000 ( 57971 PWs)   bands (ev):

    -6.9415  -6.6924  -6.6680  -6.6679  -6.6526  -6.6526  -6.6352  -6.6015
    -6.6015  -6.5987  -6.5662  -6.5662  -6.5290  -6.4678  -6.4398  -6.4210
    -6.4031  -6.4031  -6.4006  -6.3773  -6.3587  -6.3587  -6.3528  -6.3464
    -6.3408  -6.3408  -6.3172  -6.3172  -6.3140  -6.3140  -6.3106  -6.3106
    -6.2851  -6.2693  -6.2521  -5.7723  -5.7444  -5.7444  -5.7425  -5.7263
    -5.7262  -5.7011  -5.7011  -5.6979  -5.6935  -5.6915  -5.6915  -5.5835
    -5.5832  -5.5832  -5.5645  -5.5644  -5.5598  -5.5562  -5.5562  -5.3277
    -5.3277  -5.3115  -5.2929  -5.2929  -5.2901  -5.2864  -5.2864  -5.2848
    -5.2749  -5.2749  -5.2641  -5.2641  -5.2617  -5.2558  -5.2558  -5.2531
    -5.2531  -5.2429  -5.2392  -5.2392  -5.2339  -5.2339  -5.2299  -5.2291
    -5.2259  -5.2213  -5.2213  -5.2153  -5.2153  -5.2045  -5.2041  -5.2041
    -5.1991  -5.1977  -5.1977  -5.1971  -5.1923  -5.1923  -5.1864  -5.1864
    -5.1817  -5.1817  -5.1799  -5.1774  -5.1693  -5.1693  -5.1666  -5.1632
    -5.1632  -5.1570  -5.1570  -5.1570  -5.1464  -5.1464  -5.1444  -5.1444
    -5.1419  -5.1419  -5.1368  -5.1362  -5.1348  -5.1348  -5.1287  -5.1252
    -5.1231  -5.1231  -5.1136  -5.1084  -5.1084  -5.1080  -5.1051  -5.1040
    -5.1040  -5.0992  -5.0992  -5.0968  -5.0903  -5.0903  -5.0880  -5.0855
    -5.0855  -5.0850  -5.0824  -5.0824  -5.0777  -5.0706  -5.0698  -5.0681
    -5.0681  -5.0616  -5.0616  -5.0557  -5.0557  -5.0553  -5.0512  -5.0512
    -5.0443  -5.0432  -5.0432  -5.0390  -5.0390  -5.0344  -5.0344  -5.0242
    -5.0116  -5.0116  -5.0102  -5.0059  -5.0059  -5.0047  -4.9970  -4.9970
    -4.9909  -4.9824  -4.9824  -4.9796  -4.9796  -4.9701  -4.9701  -4.9658
    -4.9413  -4.9413  -4.9353  -4.9353  -4.9353  -4.8367  -4.8051  -4.5089
    -4.5089  -4.4798  -4.4798  -4.4294  -4.3487  -3.9890  -3.9890  -3.9532
    -3.9461  -3.9461  -3.9384  -3.9383  -3.8623  -3.8570  -3.8570  -3.8480
    -3.6424  -3.4888  -3.2989  -3.1664  -3.1664  -3.1118  -3.1118  -3.0812
    -3.0242  -3.0204  -3.0204  -3.0100  -2.9922  -2.9922  -2.9450   2.0373
     2.2450   2.7678   2.7942   2.7942   2.8147   2.9589   2.9589   2.9859
     2.9860   3.0005   3.0499   3.3856   3.3856   3.4092   3.4092   3.4114
     3.4230   3.4230   3.4408   3.4408   3.4668   3.4802   3.4844   3.4974
     3.5884   3.5885   3.9163   3.9163   4.0361   4.1439   4.1439   4.2197
     4.2197   4.2508   4.6077   4.8360   4.8360   4.8560   4.8560   4.8932
     4.8933   4.8987   4.9230   5.0579   5.1223   5.1223   5.9038   5.9318
     5.9318   6.1129   6.1867   6.1867   6.3932   6.4780   6.4898   6.4898
     6.5160   6.5484   6.5484   6.7092   6.7092   6.7168   6.7168   6.7720
     6.7868   6.7868   6.8119   6.8119   6.8214   7.0985   7.1062   7.1104
     7.1286   7.1286   7.1536   7.1940   7.1940   7.2193   7.2193   7.2398
     7.2909   7.2962   7.2962   7.3598   7.4788   7.4788   7.5496   7.5496
     7.5719   7.5719   7.6019   7.7579   7.8091   7.8092   7.9408   8.0206
     8.0263   8.0263   8.1355   8.1356   8.2114   8.2115   8.5679   8.6819
     8.6820  10.5742  11.0814  11.5434  11.5435  12.6643  12.6915  12.7873
    13.2874  13.2875  13.3329  13.3984  13.4201  13.4201  13.4753  13.4753
    13.4886  13.4887  13.4928  13.5181  13.5181  13.5329  13.6865  13.6865
    13.9187  14.1636  14.1970  14.1970  14.2730  14.2731  14.3272  14.3273
    14.3482  14.7456  14.8327  14.8684  14.8684  15.4419  15.4419  15.4708
    15.4860  15.4860  15.7507  15.9368  15.9467  15.9813  15.9813  16.1248
    16.1326  16.1326  16.1336  16.1669  16.1669  16.1835  16.1835  16.1939
    16.1986  16.1986  16.2177  16.2178  16.6081  16.6123  16.6124  16.8040
    16.8679

     occupation numbers 
     1.0000   1.0000   1.0000   1.0000   1.0000   1.0000   1.0000   1.0000
     1.0000   1.0000   1.0000   1.0000   1.0000   1.0000   1.0000   1.0000
     1.0000   1.0000   1.0000   1.0000   1.0000   1.0000   1.0000   1.0000
     1.0000   1.0000   1.0000   1.0000   1.0000   1.0000   1.0000   1.0000
     1.0000   1.0000   1.0000   1.0000   1.0000   1.0000   1.0000   1.0000
     1.0000   1.0000   1.0000   1.0000   1.0000   1.0000   1.0000   1.0000
     1.0000   1.0000   1.0000   1.0000   1.0000   1.0000   1.0000   1.0000
     1.0000   1.0000   1.0000   1.0000   1.0000   1.0000   1.0000   1.0000
     1.0000   1.0000   1.0000   1.0000   1.0000   1.0000   1.0000   1.0000
     1.0000   1.0000   1.0000   1.0000   1.0000   1.0000   1.0000   1.0000
     1.0000   1.0000   1.0000   1.0000   1.0000   1.0000   1.0000   1.0000
     1.0000   1.0000   1.0000   1.0000   1.0000   1.0000   1.0000   1.0000
     1.0000   1.0000   1.0000   1.0000   1.0000   1.0000   1.0000   1.0000
     1.0000   1.0000   1.0000   1.0000   1.0000   1.0000   1.0000   1.0000
     1.0000   1.0000   1.0000   1.0000   1.0000   1.0000   1.0000   1.0000
     1.0000   1.0000   1.0000   1.0000   1.0000   1.0000   1.0000   1.0000
     1.0000   1.0000   1.0000   1.0000   1.0000   1.0000   1.0000   1.0000
     1.0000   1.0000   1.0000   1.0000   1.0000   1.0000   1.0000   1.0000
     1.0000   1.0000   1.0000   1.0000   1.0000   1.0000   1.0000   1.0000
     1.0000   1.0000   1.0000   1.0000   1.0000   1.0000   1.0000   1.0000
     1.0000   1.0000   1.0000   1.0000   1.0000   1.0000   1.0000   1.0000
     1.0000   1.0000   1.0000   1.0000   1.0000   1.0000   1.0000   1.0000
     1.0000   1.0000   1.0000   1.0000   1.0000   1.0000   1.0000   1.0000
     1.0000   1.0000   1.0000   1.0000   1.0000   1.0000   1.0000   1.0000
     1.0000   1.0000   1.0000   1.0000   1.0000   1.0000   1.0000   1.0000
     1.0000   1.0000   1.0000   1.0000   1.0000   1.0000   1.0000   1.0000
     1.0000   1.0000   1.0000   1.0000   1.0000   1.0000   1.0000   1.0000
     1.0000   1.0000   1.0000   1.0000   1.0000   1.0000   1.0000   1.0000
     1.0000   1.0000   1.0000   1.0000   1.0000   1.0000   1.0000   1.0000
     1.0000   1.0000   1.0000   1.0000   1.0000   1.0000   1.0000   1.0000
     1.0000   1.0000   1.0000   1.0000   1.0000   1.0000   1.0000   1.0000
     1.0000   1.0000   1.0000   1.0000   1.0000   1.0000   1.0000   1.0000
     1.0000   1.0000   1.0000   1.0000   1.0000   1.0000   1.0000   1.0000
     1.0000   1.0000   1.0000   1.0000   1.0000   1.0000   1.0000   1.0000
     1.0000   1.0000   1.0000   1.0000   1.0000   1.0000   1.0000   1.0000
     1.0000   1.0000   1.0000   1.0000   1.0000   1.0000   1.0000   1.0000
     1.0000   1.0000   1.0000   1.0000   1.0000   1.0000   1.0000   1.0000
     1.0000   1.0000   1.0000   1.0000   1.0000   1.0000   1.0000   1.0000
     1.0000   1.0000   1.0000   1.0000   1.0000   1.0000   1.0000   1.0000
     1.0000   1.0000   1.0000   1.0000   1.0000   1.0000   1.0000   1.0000
     1.0000   0.0000   0.0000   0.0000   0.0000   0.0000   0.0000   0.0000
     0.0000   0.0000   0.0000   0.0000   0.0000   0.0000   0.0000   0.0000
     0.0000   0.0000   0.0000   0.0000   0.0000   0.0000   0.0000   0.0000
     0.0000   0.0000   0.0000   0.0000   0.0000   0.0000   0.0000   0.0000
     0.0000   0.0000   0.0000   0.0000   0.0000   0.0000   0.0000   0.0000
     0.0000   0.0000   0.0000   0.0000   0.0000   0.0000   0.0000   0.0000
     0.0000   0.0000   0.0000   0.0000   0.0000   0.0000   0.0000   0.0000
     0.0000   0.0000   0.0000   0.0000   0.0000   0.0000   0.0000   0.0000
     0.0000

          k = 0.0000 0.0000-0.4602 ( 58014 PWs)   bands (ev):

    -6.8654  -6.7843  -6.6637  -6.6636  -6.6429  -6.6429  -6.6387  -6.5981
    -6.5918  -6.5918  -6.5849  -6.5849  -6.5122  -6.4692  -6.4398  -6.4153
    -6.4002  -6.3904  -6.3903  -6.3862  -6.3631  -6.3630  -6.3555  -6.3482
    -6.3467  -6.3467  -6.3328  -6.3328  -6.3121  -6.3121  -6.3065  -6.3064
    -6.2860  -6.2691  -6.2534  -5.7695  -5.7438  -5.7438  -5.7434  -5.7262
    -5.7262  -5.7008  -5.7008  -5.6996  -5.6932  -5.6920  -5.6920  -5.5837
    -5.5830  -5.5830  -5.5656  -5.5656  -5.5602  -5.5561  -5.5561  -5.3276
    -5.3276  -5.2890  -5.2888  -5.2888  -5.2871  -5.2871  -5.2870  -5.2798
    -5.2762  -5.2762  -5.2665  -5.2665  -5.2635  -5.2544  -5.2544  -5.2532
    -5.2532  -5.2381  -5.2381  -5.2326  -5.2326  -5.2303  -5.2294  -5.2261
    -5.2208  -5.2174  -5.2174  -5.2156  -5.2156  -5.2121  -5.2076  -5.2076
    -5.2056  -5.2018  -5.2014  -5.2014  -5.1927  -5.1927  -5.1916  -5.1916
    -5.1863  -5.1763  -5.1763  -5.1739  -5.1737  -5.1737  -5.1700  -5.1665
    -5.1665  -5.1608  -5.1575  -5.1575  -5.1560  -5.1542  -5.1542  -5.1461
    -5.1461  -5.1423  -5.1406  -5.1406  -5.1270  -5.1267  -5.1267  -5.1227
    -5.1219  -5.1184  -5.1184  -5.1147  -5.1146  -5.1071  -5.1064  -5.1064
    -5.1024  -5.1022  -5.1022  -5.0949  -5.0949  -5.0920  -5.0920  -5.0859
    -5.0859  -5.0854  -5.0829  -5.0829  -5.0813  -5.0775  -5.0716  -5.0687
    -5.0687  -5.0622  -5.0622  -5.0616  -5.0553  -5.0553  -5.0508  -5.0508
    -5.0465  -5.0453  -5.0421  -5.0421  -5.0373  -5.0373  -5.0324  -5.0324
    -5.0243  -5.0127  -5.0127  -5.0093  -5.0085  -5.0085  -5.0052  -4.9969
    -4.9969  -4.9905  -4.9818  -4.9818  -4.9795  -4.9795  -4.9697  -4.9697
    -4.9660  -4.9424  -4.9424  -4.9361  -4.9361  -4.9356  -4.4232  -4.4231
    -4.4022  -4.4021  -4.3271  -4.3270  -4.3266  -4.3243  -4.2654  -4.2653
    -4.2523  -4.2291  -4.0170  -3.9314  -3.4590  -3.4590  -3.3670  -3.3670
    -3.3262  -3.3262  -3.3131  -3.2989  -3.2962  -3.2485  -3.2483  -3.2483
    -3.2224  -3.1074  -3.1074  -3.1012  -3.1012  -3.0242  -3.0131   2.0869
     2.9186   2.9421   2.9421   2.9519   2.9579   2.9579   2.9875   2.9879
     2.9880   3.0039   3.0039   3.0380   3.0471   3.0602   3.0938   3.0946
     3.1541   3.1541   3.1618   3.1618   3.2302   3.5347   4.0444   4.0445
     4.0871   4.0872   4.1225   4.1395   4.1396   4.1575   4.1576   4.1791
     4.1941   4.1942   4.2311   4.3908   4.3909   5.1651   5.2087   5.2087
     5.2389   5.2389   5.2739   5.2979   5.2979   5.3264   5.3509   5.3509
     5.5691   5.7666   5.7666   5.7825   5.7825   6.5011   6.5091   6.5383
     6.6006   6.6006   6.6098   6.6360   6.6361   6.6566   6.6566   6.6866
     6.6942   6.6942   6.7215   6.7553   6.7553   6.7588   6.8117   6.8436
     7.0296   7.0297   7.2638   7.5175   7.5175   7.5761   7.5761   7.5837
     7.5967   7.6077   7.6077   7.6442   7.6442   7.6497   7.6744   7.6985
     7.7163   7.7164   7.7501   7.7501   7.7591   7.7612   7.7613   7.8205
     7.8206   7.8244   7.9252   7.9253   8.1489   8.4011   8.4012   8.6231
     8.6232  10.7921  11.5196  11.5198  11.6997  12.0037  12.7290  12.8182
    12.9378  12.9379  12.9720  12.9720  12.9858  13.0068  13.0219  13.0219
    13.1180  13.2951  13.2951  13.8482  14.2328  14.2329  14.2647  14.2726
    14.2727  14.3180  14.3180  14.3560  14.3581  14.3581  14.5800  14.8394
    14.8394  14.9564  14.9564  15.1782  15.4255  15.4876  15.4876  15.5108
    15.5325  15.5570  15.5570  15.6670  15.6800  15.6800  15.6849  15.7031
    15.7031  15.7065  15.7088  15.7089  16.0604  16.0604  16.3197  16.5146
    16.5571  16.5646  16.5646  16.6050  16.6050  16.6192  16.6192  16.6200
    16.7906

     occupation numbers 
     1.0000   1.0000   1.0000   1.0000   1.0000   1.0000   1.0000   1.0000
     1.0000   1.0000   1.0000   1.0000   1.0000   1.0000   1.0000   1.0000
     1.0000   1.0000   1.0000   1.0000   1.0000   1.0000   1.0000   1.0000
     1.0000   1.0000   1.0000   1.0000   1.0000   1.0000   1.0000   1.0000
     1.0000   1.0000   1.0000   1.0000   1.0000   1.0000   1.0000   1.0000
     1.0000   1.0000   1.0000   1.0000   1.0000   1.0000   1.0000   1.0000
     1.0000   1.0000   1.0000   1.0000   1.0000   1.0000   1.0000   1.0000
     1.0000   1.0000   1.0000   1.0000   1.0000   1.0000   1.0000   1.0000
     1.0000   1.0000   1.0000   1.0000   1.0000   1.0000   1.0000   1.0000
     1.0000   1.0000   1.0000   1.0000   1.0000   1.0000   1.0000   1.0000
     1.0000   1.0000   1.0000   1.0000   1.0000   1.0000   1.0000   1.0000
     1.0000   1.0000   1.0000   1.0000   1.0000   1.0000   1.0000   1.0000
     1.0000   1.0000   1.0000   1.0000   1.0000   1.0000   1.0000   1.0000
     1.0000   1.0000   1.0000   1.0000   1.0000   1.0000   1.0000   1.0000
     1.0000   1.0000   1.0000   1.0000   1.0000   1.0000   1.0000   1.0000
     1.0000   1.0000   1.0000   1.0000   1.0000   1.0000   1.0000   1.0000
     1.0000   1.0000   1.0000   1.0000   1.0000   1.0000   1.0000   1.0000
     1.0000   1.0000   1.0000   1.0000   1.0000   1.0000   1.0000   1.0000
     1.0000   1.0000   1.0000   1.0000   1.0000   1.0000   1.0000   1.0000
     1.0000   1.0000   1.0000   1.0000   1.0000   1.0000   1.0000   1.0000
     1.0000   1.0000   1.0000   1.0000   1.0000   1.0000   1.0000   1.0000
     1.0000   1.0000   1.0000   1.0000   1.0000   1.0000   1.0000   1.0000
     1.0000   1.0000   1.0000   1.0000   1.0000   1.0000   1.0000   1.0000
     1.0000   1.0000   1.0000   1.0000   1.0000   1.0000   1.0000   1.0000
     1.0000   1.0000   1.0000   1.0000   1.0000   1.0000   1.0000   1.0000
     1.0000   1.0000   1.0000   1.0000   1.0000   1.0000   1.0000   1.0000
     1.0000   1.0000   1.0000   1.0000   1.0000   1.0000   1.0000   1.0000
     1.0000   1.0000   1.0000   1.0000   1.0000   1.0000   1.0000   1.0000
     1.0000   1.0000   1.0000   1.0000   1.0000   1.0000   1.0000   1.0000
     1.0000   1.0000   1.0000   1.0000   1.0000   1.0000   1.0000   1.0000
     1.0000   1.0000   1.0000   1.0000   1.0000   1.0000   1.0000   1.0000
     1.0000   1.0000   1.0000   1.0000   1.0000   1.0000   1.0000   1.0000
     1.0000   1.0000   1.0000   1.0000   1.0000   1.0000   1.0000   1.0000
     1.0000   1.0000   1.0000   1.0000   1.0000   1.0000   1.0000   1.0000
     1.0000   1.0000   1.0000   1.0000   1.0000   1.0000   1.0000   1.0000
     1.0000   1.0000   1.0000   1.0000   1.0000   1.0000   1.0000   1.0000
     1.0000   1.0000   1.0000   1.0000   1.0000   1.0000   1.0000   1.0000
     1.0000   1.0000   1.0000   1.0000   1.0000   1.0000   1.0000   1.0000
     1.0000   1.0000   1.0000   1.0000   1.0000   1.0000   1.0000   1.0000
     1.0000   1.0000   1.0000   1.0000   1.0000   1.0000   1.0000   1.0000
     1.0000   0.0000   0.0000   0.0000   0.0000   0.0000   0.0000   0.0000
     0.0000   0.0000   0.0000   0.0000   0.0000   0.0000   0.0000   0.0000
     0.0000   0.0000   0.0000   0.0000   0.0000   0.0000   0.0000   0.0000
     0.0000   0.0000   0.0000   0.0000   0.0000   0.0000   0.0000   0.0000
     0.0000   0.0000   0.0000   0.0000   0.0000   0.0000   0.0000   0.0000
     0.0000   0.0000   0.0000   0.0000   0.0000   0.0000   0.0000   0.0000
     0.0000   0.0000   0.0000   0.0000   0.0000   0.0000   0.0000   0.0000
     0.0000   0.0000   0.0000   0.0000   0.0000   0.0000   0.0000   0.0000
     0.0000

          k = 0.0000-0.5774 0.0000 ( 57942 PWs)   bands (ev):

    -6.7983  -6.7918  -6.6798  -6.6711  -6.6476  -6.6305  -6.6181  -6.6162
    -6.5994  -6.5961  -6.5860  -6.5650  -6.5090  -6.4919  -6.4339  -6.4220
    -6.4043  -6.4020  -6.3999  -6.3769  -6.3670  -6.3612  -6.3582  -6.3541
    -6.3393  -6.3340  -6.3252  -6.3214  -6.3210  -6.3150  -6.3078  -6.2968
    -6.2953  -6.2646  -6.2565  -5.7686  -5.7431  -5.7422  -5.7407  -5.7268
    -5.7260  -5.7074  -5.7038  -5.6988  -5.6935  -5.6912  -5.6911  -5.6011
    -5.5882  -5.5774  -5.5649  -5.5608  -5.5604  -5.5518  -5.5452  -5.3229
    -5.3221  -5.3049  -5.2985  -5.2928  -5.2854  -5.2847  -5.2827  -5.2771
    -5.2754  -5.2703  -5.2645  -5.2632  -5.2599  -5.2560  -5.2552  -5.2504
    -5.2498  -5.2441  -5.2411  -5.2407  -5.2376  -5.2332  -5.2311  -5.2261
    -5.2218  -5.2212  -5.2185  -5.2167  -5.2143  -5.2120  -5.2084  -5.2056
    -5.2038  -5.2008  -5.1991  -5.1941  -5.1908  -5.1893  -5.1877  -5.1847
    -5.1834  -5.1819  -5.1773  -5.1754  -5.1722  -5.1676  -5.1652  -5.1650
    -5.1628  -5.1620  -5.1602  -5.1597  -5.1558  -5.1493  -5.1476  -5.1446
    -5.1445  -5.1401  -5.1373  -5.1358  -5.1337  -5.1300  -5.1282  -5.1258
    -5.1241  -5.1235  -5.1229  -5.1191  -5.1185  -5.1170  -5.1130  -5.1075
    -5.1074  -5.1043  -5.1042  -5.1014  -5.0998  -5.0996  -5.0956  -5.0931
    -5.0870  -5.0838  -5.0826  -5.0817  -5.0810  -5.0805  -5.0743  -5.0729
    -5.0676  -5.0635  -5.0603  -5.0603  -5.0536  -5.0532  -5.0503  -5.0490
    -5.0471  -5.0445  -5.0431  -5.0413  -5.0368  -5.0365  -5.0271  -5.0247
    -5.0208  -5.0145  -5.0125  -5.0060  -5.0019  -5.0004  -4.9989  -4.9941
    -4.9883  -4.9850  -4.9841  -4.9834  -4.9773  -4.9726  -4.9690  -4.9665
    -4.9564  -4.9536  -4.9477  -4.9416  -4.9403  -4.9245  -4.7145  -4.6828
    -4.6081  -4.5900  -4.5673  -4.4887  -4.1420  -4.1282  -4.1076  -4.0457
    -3.8580  -3.8130  -3.8073  -3.7142  -3.6295  -3.5056  -3.4708  -3.4530
    -3.4422  -3.4316  -3.4078  -3.3844  -3.3767  -3.3559  -3.3510  -3.3479
    -3.1255  -3.1098  -3.0761  -2.9438  -2.9235  -2.9001  -2.8938   2.1567
     2.3951   2.4106   2.4429   2.4527   2.5789   2.7778   2.7868   2.8033
     2.8133   2.8462   2.8545   2.8619   2.8961   2.9252   2.9603   2.9674
     3.0117   3.0213   3.2545   3.6343   3.7784   3.8215   3.8490   3.8953
     3.9684   4.0413   4.0848   4.4385   4.7266   4.7389   4.7418   4.7662
     4.7850   4.8094   4.8301   4.8973   4.9605   5.0505   5.0901   5.1937
     5.3229   5.3740   5.3853   5.4505   5.7942   5.8162   5.8356   5.8476
     5.8737   5.9245   5.9419   5.9649   6.0594   6.2354   6.2512   6.3580
     6.4322   6.5932   6.6727   6.7189   6.7220   6.7434   6.7724   6.7877
     6.8570   6.8613   6.8753   6.8785   6.8999   6.9344   6.9516   6.9606
     6.9723   6.9925   6.9988   7.0296   7.0565   7.0755   7.0969   7.1027
     7.1176   7.1200   7.1359   7.1432   7.1489   7.1759   7.1864   7.1871
     7.2084   7.2181   7.2557   7.5179   7.6832   7.7118   7.7373   7.7753
     7.7941   7.8361   7.8570   7.8800   8.2520   8.3659   8.4124   8.4391
     8.5037  10.6507  11.2001  11.3685  12.0313  12.1875  13.0882  13.0974
    13.3398  13.5054  13.5390  13.6218  13.6614  13.7067  13.8232  13.8893
    13.9235  13.9724  13.9737  14.0160  14.0199  14.0432  14.0591  14.0817
    14.1423  14.1588  14.2559  14.2698  14.4321  14.5610  14.6452  14.7053
    14.7263  14.7809  14.8289  14.8292  14.9551  15.0458  15.2720  15.2749
    15.3028  15.4048  15.4632  15.6279  16.0252  16.0612  16.1067  16.1110
    16.1468  16.1629  16.2011  16.2559  16.2818  16.2968  16.3060  16.3223
    16.3528  16.3903  16.4447  16.4543  16.4660  16.4824  16.4833  16.5779
    16.5998

     occupation numbers 
     1.0000   1.0000   1.0000   1.0000   1.0000   1.0000   1.0000   1.0000
     1.0000   1.0000   1.0000   1.0000   1.0000   1.0000   1.0000   1.0000
     1.0000   1.0000   1.0000   1.0000   1.0000   1.0000   1.0000   1.0000
     1.0000   1.0000   1.0000   1.0000   1.0000   1.0000   1.0000   1.0000
     1.0000   1.0000   1.0000   1.0000   1.0000   1.0000   1.0000   1.0000
     1.0000   1.0000   1.0000   1.0000   1.0000   1.0000   1.0000   1.0000
     1.0000   1.0000   1.0000   1.0000   1.0000   1.0000   1.0000   1.0000
     1.0000   1.0000   1.0000   1.0000   1.0000   1.0000   1.0000   1.0000
     1.0000   1.0000   1.0000   1.0000   1.0000   1.0000   1.0000   1.0000
     1.0000   1.0000   1.0000   1.0000   1.0000   1.0000   1.0000   1.0000
     1.0000   1.0000   1.0000   1.0000   1.0000   1.0000   1.0000   1.0000
     1.0000   1.0000   1.0000   1.0000   1.0000   1.0000   1.0000   1.0000
     1.0000   1.0000   1.0000   1.0000   1.0000   1.0000   1.0000   1.0000
     1.0000   1.0000   1.0000   1.0000   1.0000   1.0000   1.0000   1.0000
     1.0000   1.0000   1.0000   1.0000   1.0000   1.0000   1.0000   1.0000
     1.0000   1.0000   1.0000   1.0000   1.0000   1.0000   1.0000   1.0000
     1.0000   1.0000   1.0000   1.0000   1.0000   1.0000   1.0000   1.0000
     1.0000   1.0000   1.0000   1.0000   1.0000   1.0000   1.0000   1.0000
     1.0000   1.0000   1.0000   1.0000   1.0000   1.0000   1.0000   1.0000
     1.0000   1.0000   1.0000   1.0000   1.0000   1.0000   1.0000   1.0000
     1.0000   1.0000   1.0000   1.0000   1.0000   1.0000   1.0000   1.0000
     1.0000   1.0000   1.0000   1.0000   1.0000   1.0000   1.0000   1.0000
     1.0000   1.0000   1.0000   1.0000   1.0000   1.0000   1.0000   1.0000
     1.0000   1.0000   1.0000   1.0000   1.0000   1.0000   1.0000   1.0000
     1.0000   1.0000   1.0000   1.0000   1.0000   1.0000   1.0000   1.0000
     1.0000   1.0000   1.0000   1.0000   1.0000   1.0000   1.0000   1.0000
     1.0000   1.0000   1.0000   1.0000   1.0000   1.0000   1.0000   1.0000
     1.0000   1.0000   1.0000   1.0000   1.0000   1.0000   1.0000   1.0000
     1.0000   1.0000   1.0000   1.0000   1.0000   1.0000   1.0000   1.0000
     1.0000   1.0000   1.0000   1.0000   1.0000   1.0000   1.0000   1.0000
     1.0000   1.0000   1.0000   1.0000   1.0000   1.0000   1.0000   1.0000
     1.0000   1.0000   1.0000   1.0000   1.0000   1.0000   1.0000   1.0000
     1.0000   1.0000   1.0000   1.0000   1.0000   1.0000   1.0000   1.0000
     1.0000   1.0000   1.0000   1.0000   1.0000   1.0000   1.0000   1.0000
     1.0000   1.0000   1.0000   1.0000   1.0000   1.0000   1.0000   1.0000
     1.0000   1.0000   1.0000   1.0000   1.0000   1.0000   1.0000   1.0000
     1.0000   1.0000   1.0000   1.0000   1.0000   1.0000   1.0000   1.0000
     1.0000   1.0000   1.0000   1.0000   1.0000   1.0000   1.0000   1.0000
     1.0000   1.0000   1.0000   1.0000   1.0000   1.0000   1.0000   1.0000
     1.0000   1.0000   1.0000   1.0000   1.0000   1.0000   1.0000   1.0000
     1.0000   0.0000   0.0000   0.0000   0.0000   0.0000   0.0000   0.0000
     0.0000   0.0000   0.0000   0.0000   0.0000   0.0000   0.0000   0.0000
     0.0000   0.0000   0.0000   0.0000   0.0000   0.0000   0.0000   0.0000
     0.0000   0.0000   0.0000   0.0000   0.0000   0.0000   0.0000   0.0000
     0.0000   0.0000   0.0000   0.0000   0.0000   0.0000   0.0000   0.0000
     0.0000   0.0000   0.0000   0.0000   0.0000   0.0000   0.0000   0.0000
     0.0000   0.0000   0.0000   0.0000   0.0000   0.0000   0.0000   0.0000
     0.0000   0.0000   0.0000   0.0000   0.0000   0.0000   0.0000   0.0000
     0.0000

          k = 0.0000-0.5774-0.4602 ( 57848 PWs)   bands (ev):

    -6.7578  -6.7468  -6.6986  -6.6697  -6.6533  -6.6334  -6.6247  -6.6170
    -6.6130  -6.5992  -6.5907  -6.5816  -6.5032  -6.4673  -6.4583  -6.4488
    -6.4077  -6.3958  -6.3918  -6.3809  -6.3615  -6.3568  -6.3511  -6.3471
    -6.3414  -6.3408  -6.3393  -6.3341  -6.3260  -6.3161  -6.3043  -6.2972
    -6.2940  -6.2652  -6.2572  -5.7661  -5.7434  -5.7416  -5.7405  -5.7268
    -5.7259  -5.7070  -5.7034  -5.7004  -5.6933  -5.6916  -5.6915  -5.6011
    -5.5889  -5.5781  -5.5651  -5.5593  -5.5585  -5.5541  -5.5475  -5.3225
    -5.3220  -5.3039  -5.2969  -5.2876  -5.2854  -5.2807  -5.2796  -5.2775
    -5.2759  -5.2714  -5.2666  -5.2622  -5.2603  -5.2581  -5.2543  -5.2503
    -5.2482  -5.2468  -5.2401  -5.2389  -5.2374  -5.2327  -5.2302  -5.2291
    -5.2211  -5.2184  -5.2140  -5.2139  -5.2117  -5.2085  -5.2079  -5.2073
    -5.2053  -5.2012  -5.1993  -5.1978  -5.1977  -5.1947  -5.1930  -5.1908
    -5.1856  -5.1831  -5.1777  -5.1761  -5.1756  -5.1753  -5.1705  -5.1669
    -5.1667  -5.1644  -5.1621  -5.1556  -5.1529  -5.1516  -5.1445  -5.1442
    -5.1401  -5.1357  -5.1348  -5.1329  -5.1317  -5.1284  -5.1254  -5.1254
    -5.1240  -5.1222  -5.1213  -5.1181  -5.1144  -5.1118  -5.1076  -5.1066
    -5.1043  -5.1035  -5.1030  -5.0988  -5.0961  -5.0942  -5.0938  -5.0914
    -5.0874  -5.0807  -5.0797  -5.0797  -5.0765  -5.0751  -5.0740  -5.0682
    -5.0635  -5.0610  -5.0586  -5.0553  -5.0533  -5.0506  -5.0494  -5.0457
    -5.0432  -5.0396  -5.0388  -5.0360  -5.0289  -5.0255  -5.0246  -5.0199
    -5.0190  -5.0154  -5.0147  -5.0085  -5.0037  -5.0030  -5.0016  -4.9946
    -4.9917  -4.9848  -4.9836  -4.9768  -4.9759  -4.9706  -4.9695  -4.9664
    -4.9603  -4.9571  -4.9499  -4.9478  -4.9426  -4.9411  -4.9321  -4.9250
    -4.6258  -4.5266  -4.5230  -4.5048  -3.9203  -3.8813  -3.8195  -3.8148
    -3.7785  -3.7735  -3.7462  -3.6915  -3.6713  -3.6633  -3.6364  -3.6170
    -3.5486  -3.5362  -3.5313  -3.4029  -3.3957  -3.3119  -3.1868  -3.1712
    -3.1265  -3.1142  -3.1034  -3.0500  -3.0167  -3.0071  -2.9985   2.1370
     2.3139   2.3521   2.6562   2.6665   2.6976   2.7384   2.7441   2.7450
     2.7765   2.7838   3.0795   3.0984   3.1461   3.1980   3.2248   3.2270
     3.2497   3.2878   3.2939   3.3502   3.3606   3.4095   3.4442   3.4473
     3.4797   3.5005   3.5434   4.2931   4.8025   4.8142   4.8206   5.1193
     5.1323   5.1997   5.2071   5.2267   5.2325   5.2771   5.3196   5.4615
     5.4973   5.5277   5.5595   5.6372   5.6724   5.7069   5.8434   5.8885
     5.9126   5.9254   5.9355   5.9508   5.9646   6.0541   6.1664   6.1813
     6.3198   6.3491   6.3563   6.3941   6.4149   6.4315   6.4597   6.4615
     6.4932   6.5655   6.5861   6.6022   6.6120   6.6716   6.6822   6.6972
     6.7310   6.8048   7.0447   7.1358   7.2032   7.2197   7.2826   7.2906
     7.2912   7.3135   7.3435   7.3624   7.3769   7.3855   7.3914   7.4399
     7.4958   7.5237   7.5243   7.5417   7.6452   7.7865   7.7950   7.8297
     7.9315   7.9929   8.0148   8.0406   8.0528   8.2418   8.3163   8.3645
     8.3938  10.7758  11.0923  11.3742  12.4546  12.6283  12.6603  12.7166
    12.9802  13.0482  13.3854  13.4467  13.5394  13.6135  13.7692  13.8271
    13.8423  13.8551  13.8607  13.8826  13.8895  13.9031  13.9313  13.9825
    14.0044  14.1046  14.3843  14.7394  14.9876  15.0394  15.0539  15.0549
    15.0803  15.0890  15.1119  15.1219  15.2501  15.2712  15.3804  15.6537
    15.7064  15.7160  15.7320  15.7465  15.7797  15.8068  15.8537  15.8911
    15.9080  15.9203  16.0459  16.1013  16.1445  16.2420  16.2791  16.3301
    16.3812  16.4162  16.4337  16.4517  16.4787  16.4867  16.4900  16.5099
    16.5121

     occupation numbers 
     1.0000   1.0000   1.0000   1.0000   1.0000   1.0000   1.0000   1.0000
     1.0000   1.0000   1.0000   1.0000   1.0000   1.0000   1.0000   1.0000
     1.0000   1.0000   1.0000   1.0000   1.0000   1.0000   1.0000   1.0000
     1.0000   1.0000   1.0000   1.0000   1.0000   1.0000   1.0000   1.0000
     1.0000   1.0000   1.0000   1.0000   1.0000   1.0000   1.0000   1.0000
     1.0000   1.0000   1.0000   1.0000   1.0000   1.0000   1.0000   1.0000
     1.0000   1.0000   1.0000   1.0000   1.0000   1.0000   1.0000   1.0000
     1.0000   1.0000   1.0000   1.0000   1.0000   1.0000   1.0000   1.0000
     1.0000   1.0000   1.0000   1.0000   1.0000   1.0000   1.0000   1.0000
     1.0000   1.0000   1.0000   1.0000   1.0000   1.0000   1.0000   1.0000
     1.0000   1.0000   1.0000   1.0000   1.0000   1.0000   1.0000   1.0000
     1.0000   1.0000   1.0000   1.0000   1.0000   1.0000   1.0000   1.0000
     1.0000   1.0000   1.0000   1.0000   1.0000   1.0000   1.0000   1.0000
     1.0000   1.0000   1.0000   1.0000   1.0000   1.0000   1.0000   1.0000
     1.0000   1.0000   1.0000   1.0000   1.0000   1.0000   1.0000   1.0000
     1.0000   1.0000   1.0000   1.0000   1.0000   1.0000   1.0000   1.0000
     1.0000   1.0000   1.0000   1.0000   1.0000   1.0000   1.0000   1.0000
     1.0000   1.0000   1.0000   1.0000   1.0000   1.0000   1.0000   1.0000
     1.0000   1.0000   1.0000   1.0000   1.0000   1.0000   1.0000   1.0000
     1.0000   1.0000   1.0000   1.0000   1.0000   1.0000   1.0000   1.0000
     1.0000   1.0000   1.0000   1.0000   1.0000   1.0000   1.0000   1.0000
     1.0000   1.0000   1.0000   1.0000   1.0000   1.0000   1.0000   1.0000
     1.0000   1.0000   1.0000   1.0000   1.0000   1.0000   1.0000   1.0000
     1.0000   1.0000   1.0000   1.0000   1.0000   1.0000   1.0000   1.0000
     1.0000   1.0000   1.0000   1.0000   1.0000   1.0000   1.0000   1.0000
     1.0000   1.0000   1.0000   1.0000   1.0000   1.0000   1.0000   1.0000
     1.0000   1.0000   1.0000   1.0000   1.0000   1.0000   1.0000   1.0000
     1.0000   1.0000   1.0000   1.0000   1.0000   1.0000   1.0000   1.0000
     1.0000   1.0000   1.0000   1.0000   1.0000   1.0000   1.0000   1.0000
     1.0000   1.0000   1.0000   1.0000   1.0000   1.0000   1.0000   1.0000
     1.0000   1.0000   1.0000   1.0000   1.0000   1.0000   1.0000   1.0000
     1.0000   1.0000   1.0000   1.0000   1.0000   1.0000   1.0000   1.0000
     1.0000   1.0000   1.0000   1.0000   1.0000   1.0000   1.0000   1.0000
     1.0000   1.0000   1.0000   1.0000   1.0000   1.0000   1.0000   1.0000
     1.0000   1.0000   1.0000   1.0000   1.0000   1.0000   1.0000   1.0000
     1.0000   1.0000   1.0000   1.0000   1.0000   1.0000   1.0000   1.0000
     1.0000   1.0000   1.0000   1.0000   1.0000   1.0000   1.0000   1.0000
     1.0000   1.0000   1.0000   1.0000   1.0000   1.0000   1.0000   1.0000
     1.0000   1.0000   1.0000   1.0000   1.0000   1.0000   1.0000   1.0000
     1.0000   1.0000   1.0000   1.0000   1.0000   1.0000   1.0000   1.0000
     1.0000   0.0000   0.0000   0.0000   0.0000   0.0000   0.0000   0.0000
     0.0000   0.0000   0.0000   0.0000   0.0000   0.0000   0.0000   0.0000
     0.0000   0.0000   0.0000   0.0000   0.0000   0.0000   0.0000   0.0000
     0.0000   0.0000   0.0000   0.0000   0.0000   0.0000   0.0000   0.0000
     0.0000   0.0000   0.0000   0.0000   0.0000   0.0000   0.0000   0.0000
     0.0000   0.0000   0.0000   0.0000   0.0000   0.0000   0.0000   0.0000
     0.0000   0.0000   0.0000   0.0000   0.0000   0.0000   0.0000   0.0000
     0.0000   0.0000   0.0000   0.0000   0.0000   0.0000   0.0000   0.0000
     0.0000

     the Fermi energy is     9.9377 ev

!    total energy              =  -11214.08133252 Ry
     total all-electron energy =   -144025.467068 Ry
     estimated scf accuracy    <       0.00000005 Ry
     smearing contrib. (-TS)   =      -0.00000000 Ry
     internal energy E=F+TS    =  -11214.08133252 Ry

     The total energy is F=E-TS. E is the sum of the following terms:
     one-electron contribution =   -3406.01253001 Ry
     hartree contribution      =    2376.47570682 Ry
     xc contribution           =   -1631.12177672 Ry
     ewald contribution        =   -4089.42191395 Ry
     one-center paw contrib.   =   -4464.00081865 Ry
      -> PAW hartree energy AE =     287.32024419 Ry
      -> PAW hartree energy PS =    -284.27949762 Ry
      -> PAW xc energy AE      =    -313.75872929 Ry
      -> PAW xc energy PS      =      79.29862340 Ry
      -> total E_H with PAW    =    2379.51645338 Ry
      -> total E_XC with PAW   =   -1865.58188262 Ry

     convergence has been achieved in  16 iterations


     -----------------------------------------------
     Non-local corr. energy    =      19.55386733 Ry
     -----------------------------------------------


     Forces acting on atoms (cartesian axes, Ry/au):

     atom    1 type  1   force =     0.00000000    0.00000000   -0.01651351
     atom    2 type  1   force =     0.00000000    0.00000000    0.01040972
     atom    3 type  1   force =     0.00018121    0.00801427   -0.00659722
     atom    4 type  1   force =     0.00172682    0.00913390    0.00348585
     atom    5 type  1   force =     0.00703116   -0.00385020   -0.00659722
     atom    6 type  1   force =     0.00877359   -0.00307148    0.00348585
     atom    7 type  1   force =     0.00684995   -0.00416406   -0.00659722
     atom    8 type  1   force =     0.00704678   -0.00606242    0.00348585
     atom    9 type  1   force =    -0.00018121    0.00801427   -0.00659722
     atom   10 type  1   force =    -0.00172682    0.00913390    0.00348585
     atom   11 type  1   force =     0.00000000    0.00000000   -0.00273600
     atom   12 type  1   force =     0.00000000    0.00000000    0.00292380
     atom   13 type  1   force =    -0.00684995   -0.00416406   -0.00659722
     atom   14 type  1   force =    -0.00704678   -0.00606242    0.00348585
     atom   15 type  1   force =     0.00000000    0.00000000   -0.00297531
     atom   16 type  1   force =     0.00000000    0.00000000    0.00298991
     atom   17 type  1   force =    -0.00703116   -0.00385020   -0.00659722
     atom   18 type  1   force =    -0.00877359   -0.00307148    0.00348585
     atom   19 type  1   force =    -0.01032989    0.00596397    0.00691069
     atom   20 type  1   force =     0.00025726   -0.00014853   -0.01079879
     atom   21 type  1   force =    -0.00959965   -0.00554236    0.01011363
     atom   22 type  1   force =    -0.00138411   -0.00079911   -0.00224903
     atom   23 type  1   force =     0.00000000   -0.01192793    0.00691069
     atom   24 type  1   force =     0.00000000    0.00029706   -0.01079879
     atom   25 type  1   force =     0.01032989    0.00596397    0.00691069
     atom   26 type  1   force =    -0.00025726   -0.00014853   -0.01079879
     atom   27 type  1   force =     0.00000000    0.00676233    0.00702936
     atom   28 type  1   force =     0.00000000    0.00200667   -0.00178018
     atom   29 type  1   force =     0.00585635   -0.00338116    0.00702936
     atom   30 type  1   force =     0.00173782   -0.00100333   -0.00178018
     atom   31 type  1   force =     0.00000000    0.01108472    0.01011363
     atom   32 type  1   force =     0.00000000    0.00159823   -0.00224903
     atom   33 type  1   force =     0.00959965   -0.00554236    0.01011363
     atom   34 type  1   force =     0.00138411   -0.00079911   -0.00224903
     atom   35 type  1   force =    -0.00585635   -0.00338116    0.00702936
     atom   36 type  1   force =    -0.00173782   -0.00100333   -0.00178018
     atom   37 type  2   force =     0.00000000    0.00000000    0.00039993
     atom   38 type  2   force =     0.00815939   -0.00998155   -0.00297404
     atom   39 type  2   force =    -0.00015819   -0.00345987    0.00044286
     atom   40 type  2   force =    -0.00456458    0.01205702   -0.00297404
     atom   41 type  2   force =    -0.00307543    0.00159294    0.00044286
     atom   42 type  2   force =    -0.01272397   -0.00207547   -0.00297404
     atom   43 type  2   force =    -0.00291724    0.00186693    0.00044286
     atom   44 type  2   force =    -0.00815939   -0.00998155   -0.00297404
     atom   45 type  2   force =     0.00015819   -0.00345987    0.00044286
     atom   46 type  2   force =     0.00000000    0.00000000   -0.00070375
     atom   47 type  2   force =     0.00000000    0.00000000    0.00007851
     atom   48 type  2   force =     0.01272397   -0.00207547   -0.00297404
     atom   49 type  2   force =     0.00291724    0.00186693    0.00044286
     atom   50 type  2   force =     0.00000000    0.00000000   -0.00048650
     atom   51 type  2   force =     0.00000000    0.00000000    0.00004882
     atom   52 type  2   force =     0.00456458    0.01205702   -0.00297404
     atom   53 type  2   force =     0.00307543    0.00159294    0.00044286
     atom   54 type  2   force =     0.00619490   -0.00357663    0.01709329
     atom   55 type  2   force =     0.00888684   -0.00513082   -0.01286413
     atom   56 type  2   force =     0.00061587    0.00035557    0.00406864
     atom   57 type  2   force =     0.00069494    0.00040122   -0.00413563
     atom   58 type  2   force =     0.00000000    0.00715325    0.01709329
     atom   59 type  2   force =     0.00000000    0.01026164   -0.01286413
     atom   60 type  2   force =    -0.00619490   -0.00357663    0.01709329
     atom   61 type  2   force =    -0.00888684   -0.00513082   -0.01286413
     atom   62 type  2   force =     0.00000000   -0.00338645    0.00358519
     atom   63 type  2   force =     0.00000000   -0.00327480   -0.00349981
     atom   64 type  2   force =    -0.00293275    0.00169323    0.00358519
     atom   65 type  2   force =    -0.00283606    0.00163740   -0.00349981
     atom   66 type  2   force =     0.00000000   -0.00071114    0.00406864
     atom   67 type  2   force =     0.00000000   -0.00080244   -0.00413563
     atom   68 type  2   force =    -0.00061587    0.00035557    0.00406864
     atom   69 type  2   force =    -0.00069494    0.00040122   -0.00413563
     atom   70 type  2   force =     0.00293275    0.00169323    0.00358519
     atom   71 type  2   force =     0.00283606    0.00163740   -0.00349981
     The non-local contrib.  to forces
     atom    1 type  1   force =     0.00000000   -0.00000000    0.42724462
     atom    2 type  1   force =     0.00000000   -0.00000000   -0.04611911
     atom    3 type  1   force =    -0.00440939   -0.04671460    0.03713633
     atom    4 type  1   force =    -0.01002448   -0.05735179   -0.01744256
     atom    5 type  1   force =    -0.04266073    0.01953865    0.03713633
     atom    6 type  1   force =    -0.05468035    0.01999444   -0.01744256
     atom    7 type  1   force =    -0.03825133    0.02717595    0.03713633
     atom    8 type  1   force =    -0.04465587    0.03735735   -0.01744256
     atom    9 type  1   force =     0.00440939   -0.04671460    0.03713633
     atom   10 type  1   force =     0.01002448   -0.05735179   -0.01744256
     atom   11 type  1   force =     0.00000000   -0.00000000    0.00964322
     atom   12 type  1   force =     0.00000000    0.00000000   -0.01739524
     atom   13 type  1   force =     0.03825133    0.02717595    0.03713633
     atom   14 type  1   force =     0.04465587    0.03735735   -0.01744256
     atom   15 type  1   force =     0.00000000   -0.00000000    0.01503145
     atom   16 type  1   force =     0.00000000   -0.00000000   -0.01525249
     atom   17 type  1   force =     0.04266073    0.01953865    0.03713633
     atom   18 type  1   force =     0.05468035    0.01999444   -0.01744256
     atom   19 type  1   force =     0.33991176   -0.19624815   -0.16023247
     atom   20 type  1   force =     0.00226364   -0.00130692    0.07987401
     atom   21 type  1   force =     0.06486131    0.03744769   -0.06985083
     atom   22 type  1   force =     0.00973016    0.00561771    0.01658047
     atom   23 type  1   force =     0.00000000    0.39249630   -0.16023247
     atom   24 type  1   force =     0.00000000    0.00261383    0.07987401
     atom   25 type  1   force =    -0.33991176   -0.19624815   -0.16023247
     atom   26 type  1   force =    -0.00226364   -0.00130692    0.07987401
     atom   27 type  1   force =     0.00000000   -0.03707216   -0.04545550
     atom   28 type  1   force =     0.00000000   -0.01053057    0.01369839
     atom   29 type  1   force =    -0.03210543    0.01853608   -0.04545550
     atom   30 type  1   force =    -0.00911974    0.00526528    0.01369839
     atom   31 type  1   force =     0.00000000   -0.07489539   -0.06985083
     atom   32 type  1   force =    -0.00000000   -0.01123542    0.01658047
     atom   33 type  1   force =    -0.06486131    0.03744769   -0.06985083
     atom   34 type  1   force =    -0.00973016    0.00561771    0.01658047
     atom   35 type  1   force =     0.03210543    0.01853608   -0.04545550
     atom   36 type  1   force =     0.00911974    0.00526528    0.01369839
     atom   37 type  2   force =     0.00000000   -0.00000000    0.00696722
     atom   38 type  2   force =     0.02095112   -0.06469266    0.02287204
     atom   39 type  2   force =    -0.00078165   -0.01764911    0.01024789
     atom   40 type  2   force =    -0.04554993    0.05049053    0.02287204
     atom   41 type  2   force =    -0.01567540    0.00814763    0.01024789
     atom   42 type  2   force =    -0.06650104    0.01420213    0.02287204
     atom   43 type  2   force =    -0.01489376    0.00950148    0.01024789
     atom   44 type  2   force =    -0.02095112   -0.06469266    0.02287204
     atom   45 type  2   force =     0.00078165   -0.01764911    0.01024789
     atom   46 type  2   force =     0.00000000   -0.00000000    0.02121494
     atom   47 type  2   force =     0.00000000   -0.00000000    0.01358874
     atom   48 type  2   force =     0.06650104    0.01420213    0.02287204
     atom   49 type  2   force =     0.01489376    0.00950148    0.01024789
     atom   50 type  2   force =     0.00000000    0.00000000    0.02152368
     atom   51 type  2   force =     0.00000000    0.00000000    0.01269607
     atom   52 type  2   force =     0.04554993    0.05049053    0.02287204
     atom   53 type  2   force =     0.01567540    0.00814763    0.01024789
     atom   54 type  2   force =     0.05027131   -0.02902415    0.07732426
     atom   55 type  2   force =     0.03996509   -0.02307385   -0.06222570
     atom   56 type  2   force =     0.00690656    0.00398751    0.03324907
     atom   57 type  2   force =     0.00544354    0.00314283   -0.00545850
     atom   58 type  2   force =     0.00000000    0.05804831    0.07732426
     atom   59 type  2   force =     0.00000000    0.04614771   -0.06222570
     atom   60 type  2   force =    -0.05027131   -0.02902415    0.07732426
     atom   61 type  2   force =    -0.03996509   -0.02307385   -0.06222570
     atom   62 type  2   force =     0.00000000   -0.01645159    0.03249148
     atom   63 type  2   force =     0.00000000   -0.01464301   -0.00204554
     atom   64 type  2   force =    -0.01424750    0.00822580    0.03249148
     atom   65 type  2   force =    -0.01268122    0.00732151   -0.00204554
     atom   66 type  2   force =     0.00000000   -0.00797501    0.03324907
     atom   67 type  2   force =     0.00000000   -0.00628566   -0.00545850
     atom   68 type  2   force =    -0.00690656    0.00398751    0.03324907
     atom   69 type  2   force =    -0.00544354    0.00314283   -0.00545850
     atom   70 type  2   force =     0.01424750    0.00822580    0.03249148
     atom   71 type  2   force =     0.01268122    0.00732151   -0.00204554
     The ionic contribution  to forces
     atom    1 type  1   force =    -0.00003376    0.00001963    9.09234027
     atom    2 type  1   force =    -0.00003376    0.00001963   -2.68131689
     atom    3 type  1   force =     0.73528593   -1.27359047    1.39239460
     atom    4 type  1   force =     0.34455786   -0.59682959   -0.78214182
     atom    5 type  1   force =    -0.73535335    1.27363238    1.39239458
     atom    6 type  1   force =    -0.34462529    0.59687153   -0.78214178
     atom    7 type  1   force =    -1.47067222    0.00002008    1.39239443
     atom    8 type  1   force =    -0.68921607    0.00002008   -0.78214199
     atom    9 type  1   force =    -0.73535252   -1.27359002    1.39239458
     atom   10 type  1   force =    -0.34462445   -0.59682915   -0.78214184
     atom   11 type  1   force =    -0.00003291    0.00002188    0.73028361
[...]
     atom   40 type  2   force =     0.00000000    0.00000000    0.00000000
     atom   41 type  2   force =     0.00000000    0.00000000    0.00000000
     atom   42 type  2   force =     0.00000000    0.00000000    0.00000000
     atom   43 type  2   force =     0.00000000    0.00000000    0.00000000
     atom   44 type  2   force =     0.00000000    0.00000000    0.00000000
     atom   45 type  2   force =     0.00000000    0.00000000    0.00000000
     atom   46 type  2   force =     0.00000000    0.00000000    0.00000000
     atom   47 type  2   force =     0.00000000    0.00000000    0.00000000
     atom   48 type  2   force =     0.00000000    0.00000000    0.00000000
     atom   49 type  2   force =     0.00000000    0.00000000    0.00000000
     atom   50 type  2   force =     0.00000000    0.00000000    0.00000000
     atom   51 type  2   force =     0.00000000    0.00000000    0.00000000
     atom   52 type  2   force =     0.00000000    0.00000000    0.00000000
     atom   53 type  2   force =     0.00000000    0.00000000    0.00000000
     atom   54 type  2   force =     0.00000000    0.00000000    0.00000000
     atom   55 type  2   force =     0.00000000    0.00000000    0.00000000
     atom   56 type  2   force =     0.00000000    0.00000000    0.00000000
     atom   57 type  2   force =     0.00000000    0.00000000    0.00000000
     atom   58 type  2   force =     0.00000000    0.00000000    0.00000000
     atom   59 type  2   force =     0.00000000    0.00000000    0.00000000
     atom   60 type  2   force =     0.00000000    0.00000000    0.00000000
     atom   61 type  2   force =     0.00000000    0.00000000    0.00000000
     atom   62 type  2   force =     0.00000000    0.00000000    0.00000000
     atom   63 type  2   force =     0.00000000    0.00000000    0.00000000
     atom   64 type  2   force =     0.00000000    0.00000000    0.00000000
     atom   65 type  2   force =     0.00000000    0.00000000    0.00000000
     atom   66 type  2   force =     0.00000000    0.00000000    0.00000000
     atom   67 type  2   force =     0.00000000    0.00000000    0.00000000
     atom   68 type  2   force =     0.00000000    0.00000000    0.00000000
     atom   69 type  2   force =     0.00000000    0.00000000    0.00000000
     atom   70 type  2   force =     0.00000000    0.00000000    0.00000000
     atom   71 type  2   force =     0.00000000    0.00000000    0.00000000
     The SCF correction term to forces
     atom    1 type  1   force =    -0.00000000    0.00000000    0.00000905
     atom    2 type  1   force =     0.00000000   -0.00000000   -0.00001761
     atom    3 type  1   force =    -0.00000191   -0.00000488   -0.00000302
     atom    4 type  1   force =     0.00000091   -0.00000789   -0.00000085
     atom    5 type  1   force =    -0.00000518    0.00000078   -0.00000302
     atom    6 type  1   force =    -0.00000638    0.00000473   -0.00000085
     atom    7 type  1   force =    -0.00000327    0.00000410   -0.00000302
     atom    8 type  1   force =    -0.00000729    0.00000316   -0.00000085
     atom    9 type  1   force =     0.00000191   -0.00000488   -0.00000302
     atom   10 type  1   force =    -0.00000091   -0.00000789   -0.00000085
     atom   11 type  1   force =     0.00000000   -0.00000000   -0.00001192
     atom   12 type  1   force =     0.00000000   -0.00000000    0.00000639
     atom   13 type  1   force =     0.00000327    0.00000410   -0.00000302
     atom   14 type  1   force =     0.00000729    0.00000316   -0.00000085
     atom   15 type  1   force =     0.00000000   -0.00000000   -0.00000215
     atom   16 type  1   force =    -0.00000000    0.00000000   -0.00000012
     atom   17 type  1   force =     0.00000518    0.00000078   -0.00000302
     atom   18 type  1   force =     0.00000638    0.00000473   -0.00000085
     atom   19 type  1   force =     0.00001483   -0.00000856    0.00000943
     atom   20 type  1   force =    -0.00000590    0.00000341   -0.00000598
     atom   21 type  1   force =    -0.00000740   -0.00000427    0.00000653
     atom   22 type  1   force =    -0.00000334   -0.00000193   -0.00000330
     atom   23 type  1   force =     0.00000000    0.00001713    0.00000943
     atom   24 type  1   force =     0.00000000   -0.00000681   -0.00000598
     atom   25 type  1   force =    -0.00001483   -0.00000856    0.00000943
     atom   26 type  1   force =     0.00000590    0.00000341   -0.00000598
     atom   27 type  1   force =    -0.00000000   -0.00001825    0.00000777
     atom   28 type  1   force =    -0.00000000   -0.00000220   -0.00000187
     atom   29 type  1   force =    -0.00001581    0.00000913    0.00000777
     atom   30 type  1   force =    -0.00000191    0.00000110   -0.00000187
     atom   31 type  1   force =     0.00000000    0.00000854    0.00000653
     atom   32 type  1   force =    -0.00000000    0.00000385   -0.00000330
     atom   33 type  1   force =     0.00000740   -0.00000427    0.00000653
     atom   34 type  1   force =     0.00000334   -0.00000193   -0.00000330
     atom   35 type  1   force =     0.00001581    0.00000913    0.00000777
     atom   36 type  1   force =     0.00000191    0.00000110   -0.00000187
     atom   37 type  2   force =     0.00000000   -0.00000000   -0.00000612
     atom   38 type  2   force =     0.00000030   -0.00000742    0.00000279
     atom   39 type  2   force =    -0.00000094   -0.00000052   -0.00000232
     atom   40 type  2   force =    -0.00000627    0.00000397    0.00000279
     atom   41 type  2   force =    -0.00000092   -0.00000055   -0.00000232
     atom   42 type  2   force =    -0.00000657    0.00000345    0.00000279
     atom   43 type  2   force =     0.00000002    0.00000107   -0.00000232
     atom   44 type  2   force =    -0.00000030   -0.00000742    0.00000279
     atom   45 type  2   force =     0.00000094   -0.00000052   -0.00000232
     atom   46 type  2   force =     0.00000000   -0.00000000    0.00000090
     atom   47 type  2   force =    -0.00000000    0.00000000    0.00000021
     atom   48 type  2   force =     0.00000657    0.00000345    0.00000279
     atom   49 type  2   force =    -0.00000002    0.00000107   -0.00000232
     atom   50 type  2   force =     0.00000000    0.00000000    0.00000354
     atom   51 type  2   force =    -0.00000000    0.00000000   -0.00000097
     atom   52 type  2   force =     0.00000627    0.00000397    0.00000279
     atom   53 type  2   force =     0.00000092   -0.00000055   -0.00000232
     atom   54 type  2   force =    -0.00000395    0.00000228    0.00000051
     atom   55 type  2   force =     0.00000300   -0.00000173   -0.00000399
     atom   56 type  2   force =    -0.00000127   -0.00000073   -0.00000062
     atom   57 type  2   force =    -0.00000201   -0.00000116    0.00000015
     atom   58 type  2   force =    -0.00000000   -0.00000456    0.00000051
     atom   59 type  2   force =     0.00000000    0.00000346   -0.00000399
     atom   60 type  2   force =     0.00000395    0.00000228    0.00000051
     atom   61 type  2   force =    -0.00000300   -0.00000173   -0.00000399
     atom   62 type  2   force =     0.00000000   -0.00000335   -0.00000151
     atom   63 type  2   force =     0.00000000   -0.00000561    0.00000117
     atom   64 type  2   force =    -0.00000290    0.00000168   -0.00000151
     atom   65 type  2   force =    -0.00000486    0.00000280    0.00000117
     atom   66 type  2   force =     0.00000000    0.00000146   -0.00000062
     atom   67 type  2   force =    -0.00000000    0.00000232    0.00000015
     atom   68 type  2   force =     0.00000127   -0.00000073   -0.00000062
     atom   69 type  2   force =     0.00000201   -0.00000116    0.00000015
     atom   70 type  2   force =     0.00000290    0.00000168   -0.00000151
     atom   71 type  2   force =     0.00000486    0.00000280    0.00000117

     Total force =     0.003567     Total SCF correction =     0.000071


     Computing stress (Cartesian axis) and pressure



     -----------------------------------------------
     Non-local corr. energy    =      19.55465523 Ry
     -----------------------------------------------

          total   stress  (Ry/bohr**3)                   (kbar)     P=      -27.18
  -0.00018696   0.00000000  -0.00000000          -27.50        0.00       -0.00
   0.00000000  -0.00018696  -0.00000000            0.00      -27.50       -0.00
   0.00000000  -0.00000000  -0.00018032            0.00       -0.00      -26.53

     kinetic stress (kbar)  18143.20      0.00      0.00
                                0.00  18143.20      0.00
                                0.00      0.00  18134.66

     local   stress (kbar)   5178.94     -0.07      0.00
                               -0.07   5178.85      0.01
                                0.00      0.01   3647.48

     nonloc. stress (kbar)    152.61     -0.00      0.00
                                0.00    152.61     -0.00
                                0.00     -0.00    163.66

     hartree stress (kbar)  19678.49     -0.00      0.00
                               -0.00  19678.49     -0.00
                                0.00     -0.00  20377.87

     exc-cor stress (kbar)   5255.39      0.00     -0.00
                                0.00   5255.39      0.00
                               -0.00      0.00   5255.60

     corecor stress (kbar) -14092.79     -0.00     -0.00
                               -0.00 -14092.79     -0.00
                               -0.00     -0.00 -14092.19

     ewald   stress (kbar) -34504.95      0.09     -0.00
                                0.09 -34504.83      0.00
                               -0.00      0.00 -33674.38

     hubbard stress (kbar)      0.00      0.00      0.00
                                0.00      0.00      0.00
                                0.00      0.00      0.00

     DFT-D   stress (kbar)      0.00      0.00      0.00
                                0.00      0.00      0.00
                                0.00      0.00      0.00

     XDM     stress (kbar)      0.00      0.00      0.00
                                0.00      0.00      0.00
                                0.00      0.00      0.00

     dft-nl  stress (kbar)    161.59     -0.00     -0.00
                               -0.00    161.59     -0.00
                               -0.00     -0.00    160.76

     TS-vdW  stress (kbar)      0.00      0.00      0.00
                                0.00      0.00      0.00
                                0.00      0.00      0.00

     MDB     stress (kbar)      0.00      0.00      0.00
                                0.00      0.00      0.00
                                0.00      0.00      0.00

     3D-RISM stress (kbar)      0.00      0.00      0.00
                                0.00      0.00      0.00
                                0.00      0.00      0.00

     Energy error            =      4.4E-05 Ry
     Gradient error          =      8.0E-04 Ry/Bohr

     bfgs converged in   6 scf cycles and   5 bfgs steps
     (criteria: energy <  1.0E-04 Ry, force <  1.0E-03 Ry/Bohr)

     End of BFGS Geometry Optimization

     Final energy             =  -11214.0871976663 Ry

     File ./GaN.bfgs deleted, as requested
Begin final coordinates

ATOMIC_POSITIONS (angstrom)
Ga            1.6222756606        0.9366198184        2.6094630662
Ga            1.6222756606        0.9366198184        7.9379433507
Ga            0.0020486314        3.7547945983        2.6331835692
Ga            0.0036526174        3.7531788513        7.9297710289
Ga           -1.6140495280        6.5539587205        2.6331835692
Ga           -1.6146468130        6.5561556866        7.9297710289
Ga            4.8730001269        0.9306901957        2.6331835692
Ga            4.8707988559        0.9301089766        7.9297710289
Ga            3.2425026898        3.7547945983        2.6331835692
Ga            3.2408987038        3.7531788513        7.9297710289
Ga            1.6222756606        6.5563425246        2.6352856297
Ga            1.6222756606        6.5563425246        7.9324005104
Ga            8.1051964455        0.9306901957        2.6331835692
Ga            8.1073977165        0.9301089766        7.9297710289
Ga            6.4890982862        3.7464811715        2.6359405218
Ga            6.4890982862        3.7464811715        7.9354187810
Ga            4.8586008492        6.5539587205        2.6331835692
Ga            4.8591981342        6.5561556866        7.9297710289
Ga           -0.0131568762        1.8808374381        5.2910187023
Ga            0.0003555010        1.8730360635       10.5652479249
Ga           -1.6293413292        4.6790247299        5.2925750335
Ga           -1.6243312373        4.6819173079       10.5702361995
Ga           -3.2445503819        7.4777751694        5.2910187023
Ga           -3.2445503819        7.4933779187       10.5652479249
Ga            3.2577013637        1.8808374381        5.2910187023
Ga            3.2441889865        1.8730360635       10.5652479249
Ga            1.6222722437        4.6891792372        5.2914639694
Ga            1.6222722437        4.6848729518       10.5710981051
Ga            0.0052595185        7.4899274339        5.2914639694
Ga            0.0015301659        7.4920805766       10.5710981051
Ga            6.4890948693        1.8814005858        5.2925750335
Ga            6.4890948693        1.8756154300       10.5702361995
Ga            4.8738858167        4.6790247299        5.2925750335
Ga            4.8688757248        4.6819173079       10.5702361995
Ga            3.2392849690        7.4899274339        5.2914639694
Ga            3.2430143216        7.4920805766       10.5710981051
N             1.6222756606        0.9366198184        9.9227262567
N             0.0092093919        3.7392437057        4.6277913110
N            -0.0001128506        3.7434155644        9.9202536645
N            -1.6239366158        6.5679355673        4.6277913110
N            -1.6249848015        6.5577763391        9.9202536645
N             4.8559522786        0.9322642415        4.6277913110
N             4.8642263354        0.9382516110        9.9202536645
N             3.2353419293        3.7392437057        4.6277913110
N             3.2446641718        3.7434155644        9.9202536645
N             1.6222756606        6.5563425246        4.6291252397
N             1.6222756606        6.5563425246        9.9193265856
N             8.1222442938        0.9322642415        4.6277913110
N             8.1139702370        0.9382516110        9.9202536645
N             6.4890982862        3.7464811715        4.6295443977
N             6.4890982862        3.7464811715        9.9204968967
N             4.8684879370        6.5679355673        4.6277913110
N             4.8695361227        6.5577763391        9.9202536645
N             0.0041763480        1.8708300965        2.0060209053
N             0.0088078865        1.8681560765        7.2660270069
N            -1.6225502090        4.6829455850        1.9881818313
N            -1.6222530876        4.6831171281        7.2757815604
N            -3.2445503819        7.4977898527        2.0060209053
N            -3.2445503819        7.5031378928        7.2660270069
N             3.2403681395        1.8708300965        2.0060209053
N             3.2357366010        1.8681560765        7.2660270069
N             1.6222722437        4.6838100490        1.9858382253
N             1.6222722437        4.6849197463        7.2757282950
N             0.0006096651        7.4926120280        1.9858382253
N             0.0015706912        7.4920571793        7.2757282950
N             6.4890948693        1.8735588757        1.9881818313
N             6.4890948693        1.8732157895        7.2757815604
N             4.8670946965        4.6829455850        1.9881818313
N             4.8667975751        4.6831171281        7.2757815604
N             3.2439348224        7.4926120280        1.9858382253
N             3.2429737963        7.4920571793        7.2757282950
End final coordinates



     Writing all to output data dir ./GaN.save/
 
     init_run     :      7.66s CPU      8.08s WALL (       1 calls)
     electrons    :   2453.66s CPU   2489.51s WALL (       6 calls)
     update_pot   :      6.39s CPU      6.45s WALL (       5 calls)
     forces       :     15.10s CPU     15.30s WALL (       6 calls)
     stress       :    217.88s CPU    219.51s WALL (       6 calls)

     Called by init_run:
     wfcinit      :      4.44s CPU      4.53s WALL (       1 calls)
     wfcinit:atom :      0.04s CPU      0.05s WALL (       2 calls)
     wfcinit:wfcr :      4.24s CPU      4.30s WALL (       2 calls)
     potinit      :      1.87s CPU      2.15s WALL (       1 calls)
     hinit0       :      0.19s CPU      0.20s WALL (       1 calls)

     Called by electrons:
     c_bands      :   2241.61s CPU   2274.69s WALL (      78 calls)
     sum_band     :    136.19s CPU    137.43s WALL (      78 calls)
     v_of_rho     :     36.05s CPU     36.67s WALL (      84 calls)
     v_h          :      0.52s CPU      0.53s WALL (      84 calls)
     v_xc         :     40.54s CPU     41.20s WALL (      96 calls)
     newd         :      6.25s CPU      6.33s WALL (      84 calls)
     PAW_pot      :     37.67s CPU     37.89s WALL (      89 calls)
     mix_rho      :      1.50s CPU      1.56s WALL (      78 calls)
     vdW_kernel   :      0.90s CPU      1.12s WALL (       1 calls)

     Called by c_bands:
     init_us_2    :      9.58s CPU      9.74s WALL (     348 calls)
     init_us_2:cp :      9.57s CPU      9.74s WALL (     348 calls)
     cegterg      :   1745.49s CPU   1776.30s WALL (     156 calls)

     Called by sum_band:
     sum_band:wei :      0.03s CPU      0.03s WALL (      78 calls)
     sum_band:loo :    122.23s CPU    123.19s WALL (      78 calls)
     sum_band:buf :      2.32s CPU      2.41s WALL (     156 calls)
     sum_band:ini :      4.32s CPU      4.38s WALL (     156 calls)
     sum_band:cal :     25.17s CPU     25.30s WALL (     166 calls)
     sum_band:bec :      0.64s CPU      0.65s WALL (     166 calls)
     addusdens    :      7.90s CPU      8.13s WALL (      78 calls)
     addusd:skk   :      0.64s CPU      0.65s WALL (     156 calls)
     addusd:dgemm :      5.11s CPU      5.30s WALL (     156 calls)
     addusd:qvan2 :      1.74s CPU      1.76s WALL (     156 calls)

     Called by *egterg:
     cdiaghg      :    889.82s CPU    897.74s WALL (    1340 calls)
     cegterg:over :    118.61s CPU    121.72s WALL (    1194 calls)
     cegterg:upda :     71.53s CPU     73.88s WALL (    1194 calls)
     cegterg:last :     28.40s CPU     28.55s WALL (     163 calls)
     h_psi        :    536.69s CPU    544.03s WALL (    1352 calls)
     s_psi        :     66.43s CPU     66.74s WALL (    1352 calls)
     g_psi        :      1.29s CPU      1.31s WALL (    1194 calls)

     Called by h_psi:
     h_psi:calbec :     76.84s CPU     77.28s WALL (    1352 calls)
     vloc_psi     :    388.94s CPU    392.01s WALL (    1352 calls)
     add_vuspsi   :     66.73s CPU     67.15s WALL (    1352 calls)

     General routines
     calbec       :    116.33s CPU    116.97s WALL (    1578 calls)
     fft          :     19.98s CPU     20.17s WALL (    6299 calls)
     ffts         :      0.89s CPU      0.90s WALL (     162 calls)
     fftw         :    455.64s CPU    459.31s WALL (  384840 calls)
     interpolate  :      0.80s CPU      0.81s WALL (      84 calls)
 
     Parallel routines

     PAW routines
     PAW_pot      :     37.67s CPU     37.89s WALL (      89 calls)
     PAW_symme    :      0.15s CPU      0.15s WALL (     167 calls)
 
     PWSCF        :  45m 6.85s CPU  45m46.56s WALL

 
   This run was terminated on:  10:44:49  23Mar2024            

=------------------------------------------------------------------------------=
   JOB DONE.
=------------------------------------------------------------------------------=
