
     Program PWSCF v.7.1 starts on 11Feb2024 at  9:54:42 

     This program is part of the open-source Quantum ESPRESSO suite
     for quantum simulation of materials; please cite
         "P. Giannozzi et al., J. Phys.:Condens. Matter 21 395502 (2009);
         "P. Giannozzi et al., J. Phys.:Condens. Matter 29 465901 (2017);
         "P. Giannozzi et al., J. Chem. Phys. 152 154105 (2020);
          URL http://www.quantum-espresso.org", 
     in publications or presentations arising from this work. More details at
     http://www.quantum-espresso.org/quote

     Parallel version (MPI & OpenMP), running on     128 processor cores
     Number of MPI processes:               128
     Threads/MPI process:                     1

     MPI processes distributed on     1 nodes
     1991245 MiB available memory on the printing compute node when the environment starts
 
     Reading input from espresso.pwi
Warning: card &CELL ignored
Warning: card    CELL_DYNAMICS    = 'BFGS' ignored
Warning: card / ignored

     Current dimensions of program PWSCF are:
     Max number of different atomic species (ntypx) = 10
     Max number of k-points (npk) =  40000
     Max angular momentum in pseudopotentials (lmaxx) =  4
     file Pb.pbe-dn-kjpaw_psl.1.0.0.UPF: wavefunction(s)  6S 6P 5D renormalized
     file I.pbe-dn-kjpaw_psl.1.0.0.UPF: wavefunction(s)  5S 5P renormalized

     **************************************************************************
     Initializing libbeef V0.1.2 with the BEEF-vdW functional.
     Citation: Wellendorff et al., PRB 85, 235149 (2012).
     **************************************************************************


     IMPORTANT: XC functional enforced from input :
     Exchange-correlation= BEEF-VDW
                           (   1   4  43  14   2   0   0)
     Any further DFT definition will be discarded
     Please, verify this is what you really want

 
     K-points division:     npool     =       2
     R & G space division:  proc/nbgrp/npool/nimage =      64
     Subspace diagonalization in iterative solution of the eigenvalue problem:
     a serial algorithm will be used

 
     Parallelization info
     --------------------
     sticks:   dense  smooth     PW     G-vecs:    dense   smooth      PW
     Min         268     215     55                29758    21295    2791
     Max         269     216     56                29767    21298    2796
     Sum       17215   13777   3559              1904969  1362953  178821
 
     Using Slab Decomposition
 


     bravais-lattice index     =            4
     lattice parameter (alat)  =      26.7090  a.u.
     unit-cell volume          =   17226.5091 (a.u.)^3
     number of atoms/cell      =           53
     number of atomic types    =            2
     number of electrons       =       852.00
     number of Kohn-Sham states=          511
     kinetic-energy cutoff     =      70.0000  Ry
     charge density cutoff     =     350.0000  Ry
     scf convergence threshold =      1.0E-07
     mixing beta               =       0.7000
     number of iterations used =            8  plain     mixing
     energy convergence thresh.=      1.0E-04
     force convergence thresh. =      1.0E-03
     Exchange-correlation= BEEF-VDW
                           (   1   4  43  14   2   0   0)
     nstep                     =           50


     celldm(1)=  26.709025  celldm(2)=   0.000000  celldm(3)=   1.043981
     celldm(4)=   0.000000  celldm(5)=   0.000000  celldm(6)=   0.000000

     crystal axes: (cart. coord. in units of alat)
               a(1) = (   1.000000   0.000000   0.000000 )  
               a(2) = (  -0.500000   0.866025   0.000000 )  
               a(3) = (   0.000000   0.000000   1.043981 )  

     reciprocal axes: (cart. coord. in units 2 pi/alat)
               b(1) = (  1.000000  0.577350 -0.000000 )  
               b(2) = (  0.000000  1.154701  0.000000 )  
               b(3) = (  0.000000 -0.000000  0.957872 )  


     PseudoPot. # 1 for Pb read from file:
     //group///packages/espresso/pseudo/psl_1.0.0/pslibrary.1.0.0/pbe/PSEUDOPOTENTIALS/Pb.pbe-dn-kjpaw_psl.1.0.0.UPF
     MD5 check sum: 39ab5b8a6bbd56b7735ad9f188aac93a
     Pseudo is Projector augmented-wave + core cor, Zval = 14.0
     Generated using 'atomic' code by A. Dal Corso  v.7.1
     Shape of augmentation charge: PSQ
     Using radial grid of 1281 points,  6 beta functions with: 
                l(1) =   0
                l(2) =   0
                l(3) =   1
                l(4) =   1
                l(5) =   2
                l(6) =   2
     Q(r) pseudized with 0 coefficients 


     PseudoPot. # 2 for I  read from file:
     //group///packages/espresso/pseudo/psl_1.0.0/pslibrary.1.0.0/pbe/PSEUDOPOTENTIALS/I.pbe-dn-kjpaw_psl.1.0.0.UPF
     MD5 check sum: bfa8781bc1224d19af3f3980e3fab11e
     Pseudo is Projector augmented-wave + core cor, Zval = 17.0
     Generated using 'atomic' code by A. Dal Corso  v.7.1
     Shape of augmentation charge: PSQ
     Using radial grid of 1247 points,  6 beta functions with: 
                l(1) =   0
                l(2) =   0
                l(3) =   1
                l(4) =   1
                l(5) =   2
                l(6) =   2
     Q(r) pseudized with 0 coefficients 


     atomic species   valence    mass     pseudopotential
        Pb            14.00   207.20000     Pb( 1.00)
        I             17.00   126.90447     I ( 1.00)

     No symmetry found


                                    s                        frac. trans.

      isym =  1     identity                                     

 cryst.   s( 1) = (     1          0          0      )
                  (     0          1          0      )
                  (     0          0          1      )

 cart.    s( 1) = (  1.0000000  0.0000000  0.0000000 )
                  (  0.0000000  1.0000000  0.0000000 )
                  (  0.0000000  0.0000000  1.0000000 )


     point group C_1 (1)    
     there are  1 classes
     the character table:

       E    
A      1.00

     the symmetry operations in each class and the name of the first element:

     E        1
          identity                                               

   Cartesian axes

     site n.     atom                  positions (alat units)
         1           Pb  tau(   1) = (   0.1666712   0.2886557   0.5219862  )
         2           Pb  tau(   2) = (   0.0000102   0.5773235   1.0439712  )
         3           Pb  tau(   3) = (   0.0000034   0.5773295   0.5219807  )
         4           Pb  tau(   4) = (  -0.1666576   0.8659973   1.0439657  )
         5           Pb  tau(   5) = (  -0.1666644   0.8660033   0.5219752  )
         6           Pb  tau(   6) = (   0.5000113   0.2886484   1.0439810  )
         7           Pb  tau(   7) = (   0.5000045   0.2886544   0.5219905  )
         8           Pb  tau(   8) = (   0.3333436   0.5773222   1.0439755  )
         9           Pb  tau(   9) = (   0.3333367   0.5773282   0.5219850  )
        10           Pb  tau(  10) = (   0.1666758   0.8659960   1.0439700  )
        11           Pb  tau(  11) = (   0.1666690   0.8660020   0.5219795  )
        12           Pb  tau(  12) = (   0.8333447   0.2886471   1.0439853  )
        13           Pb  tau(  13) = (   0.8333379   0.2886531   0.5219949  )
        14           Pb  tau(  14) = (   0.6666769   0.5773209   1.0439798  )
        15           Pb  tau(  15) = (   0.6666701   0.5773269   0.5219894  )
        16           Pb  tau(  16) = (   0.5000091   0.8659947   1.0439743  )
        17           Pb  tau(  17) = (   0.5000023   0.8660007   0.5219839  )
        18           I   tau(  18) = (   0.1666738   0.0962066   0.3879099  )
        19           I   tau(  19) = (   0.1666806   0.0962006   0.9099004  )
        20           I   tau(  20) = (   0.0000060   0.3848804   0.3879044  )
        21           I   tau(  21) = (   0.0000129   0.3848744   0.9098949  )
        22           I   tau(  22) = (  -0.1666617   0.6735542   0.3878990  )
        23           I   tau(  23) = (  -0.1666549   0.6735482   0.9098894  )
        24           I   tau(  24) = (   0.5000071   0.0962053   0.3879143  )
        25           I   tau(  25) = (   0.5000140   0.0961993   0.9099047  )
        26           I   tau(  26) = (   0.3333394   0.3848792   0.3879088  )
        27           I   tau(  27) = (   0.3333462   0.3848731   0.9098993  )
        28           I   tau(  28) = (   0.1666716   0.6735530   0.3879033  )
        29           I   tau(  29) = (   0.1666784   0.6735469   0.9098938  )
        30           I   tau(  30) = (   0.8333405   0.0962041   0.3879186  )
        31           I   tau(  31) = (   0.8333473   0.0961980   0.9099091  )
        32           I   tau(  32) = (   0.6666727   0.3848779   0.3879131  )
        33           I   tau(  33) = (   0.6666795   0.3848718   0.9099036  )
        34           I   tau(  34) = (   0.5000049   0.6735517   0.3879076  )
        35           I   tau(  35) = (   0.5000117   0.6735457   0.9098981  )
        36           I   tau(  36) = (  -0.0000023   0.1924396   0.1340740  )
        37           I   tau(  37) = (   0.0000045   0.1924336   0.6560644  )
        38           I   tau(  38) = (  -0.1666701   0.4811134   0.1340685  )
        39           I   tau(  39) = (  -0.1666632   0.4811074   0.6560589  )
        40           I   tau(  40) = (  -0.3333378   0.7697873   0.1340630  )
        41           I   tau(  41) = (  -0.3333310   0.7697812   0.6560534  )
        42           I   tau(  42) = (   0.3333311   0.1924384   0.1340783  )
        43           I   tau(  43) = (   0.3333379   0.1924323   0.6560688  )
        44           I   tau(  44) = (   0.1666633   0.4811122   0.1340728  )
        45           I   tau(  45) = (   0.1666701   0.4811061   0.6560633  )
        46           I   tau(  46) = (  -0.0000045   0.7697860   0.1340673  )
        47           I   tau(  47) = (   0.0000023   0.7697799   0.6560578  )
        48           I   tau(  48) = (   0.6666644   0.1924371   0.1340827  )
        49           I   tau(  49) = (   0.6666712   0.1924310   0.6560731  )
        50           I   tau(  50) = (   0.4999966   0.4811109   0.1340772  )
        51           I   tau(  51) = (   0.5000034   0.4811049   0.6560676  )
        52           I   tau(  52) = (   0.3333288   0.7697847   0.1340717  )
        53           I   tau(  53) = (   0.3333356   0.7697787   0.6560621  )

   Crystallographic axes

     site n.     atom                  positions (cryst. coord.)
         1           Pb  tau(   1) = (  0.3333266  0.3333109  0.4999959  )
         2           Pb  tau(   2) = (  0.3333281  0.6666357  0.9999906  )
         3           Pb  tau(   3) = (  0.3333248  0.6666427  0.4999906  )
         4           Pb  tau(   4) = (  0.3333262  0.9999675  0.9999854  )
         5           Pb  tau(   5) = (  0.3333229  0.9999745  0.4999854  )
         6           Pb  tau(   6) = (  0.6666626  0.3333025  1.0000001  )
         7           Pb  tau(   7) = (  0.6666592  0.3333094  0.5000001  )
         8           Pb  tau(   8) = (  0.6666607  0.6666343  0.9999948  )
         9           Pb  tau(   9) = (  0.6666573  0.6666412  0.4999948  )
        10           Pb  tau(  10) = (  0.6666588  0.9999661  0.9999895  )
        11           Pb  tau(  11) = (  0.6666555  0.9999730  0.4999895  )
        12           Pb  tau(  12) = (  0.9999951  0.3333010  1.0000042  )
        13           Pb  tau(  13) = (  0.9999918  0.3333079  0.5000042  )
        14           Pb  tau(  14) = (  0.9999933  0.6666328  0.9999990  )
        15           Pb  tau(  15) = (  0.9999899  0.6666397  0.4999990  )
        16           Pb  tau(  16) = (  0.9999914  0.9999646  0.9999937  )
        17           Pb  tau(  17) = (  0.9999881  0.9999715  0.4999937  )
        18           I   tau(  18) = (  0.2222187  0.1110899  0.3715680  )
        19           I   tau(  19) = (  0.2222221  0.1110829  0.8715680  )
        20           I   tau(  20) = (  0.2222169  0.4444217  0.3715628  )
        21           I   tau(  21) = (  0.2222202  0.4444147  0.8715628  )
        22           I   tau(  22) = (  0.2222150  0.7777534  0.3715575  )
        23           I   tau(  23) = (  0.2222183  0.7777465  0.8715575  )
        24           I   tau(  24) = (  0.5555513  0.1110884  0.3715722  )
        25           I   tau(  25) = (  0.5555547  0.1110814  0.8715722  )
        26           I   tau(  26) = (  0.5555495  0.4444202  0.3715669  )
        27           I   tau(  27) = (  0.5555528  0.4444132  0.8715669  )
        28           I   tau(  28) = (  0.5555476  0.7777520  0.3715617  )
        29           I   tau(  29) = (  0.5555509  0.7777450  0.8715617  )
        30           I   tau(  30) = (  0.8888839  0.1110869  0.3715764  )
        31           I   tau(  31) = (  0.8888873  0.1110799  0.8715764  )
        32           I   tau(  32) = (  0.8888820  0.4444187  0.3715711  )
        33           I   tau(  33) = (  0.8888854  0.4444117  0.8715711  )
        34           I   tau(  34) = (  0.8888802  0.7777505  0.3715658  )
        35           I   tau(  35) = (  0.8888835  0.7777435  0.8715658  )
        36           I   tau(  36) = (  0.1111028  0.2222102  0.1284257  )
        37           I   tau(  37) = (  0.1111061  0.2222032  0.6284257  )
        38           I   tau(  38) = (  0.1111009  0.5555420  0.1284204  )
        39           I   tau(  39) = (  0.1111043  0.5555350  0.6284204  )
        40           I   tau(  40) = (  0.1110991  0.8888738  0.1284152  )
        41           I   tau(  41) = (  0.1111024  0.8888668  0.6284152  )
        42           I   tau(  42) = (  0.4444354  0.2222087  0.1284299  )
        43           I   tau(  43) = (  0.4444387  0.2222017  0.6284299  )
        44           I   tau(  44) = (  0.4444335  0.5555405  0.1284246  )
        45           I   tau(  45) = (  0.4444369  0.5555335  0.6284246  )
        46           I   tau(  46) = (  0.4444316  0.8888723  0.1284193  )
        47           I   tau(  47) = (  0.4444350  0.8888653  0.6284193  )
        48           I   tau(  48) = (  0.7777680  0.2222072  0.1284340  )
        49           I   tau(  49) = (  0.7777713  0.2222002  0.6284340  )
        50           I   tau(  50) = (  0.7777661  0.5555390  0.1284287  )
        51           I   tau(  51) = (  0.7777694  0.5555320  0.6284287  )
        52           I   tau(  52) = (  0.7777642  0.8888708  0.1284235  )
        53           I   tau(  53) = (  0.7777676  0.8888638  0.6284235  )

     number of k points=     4  Gaussian smearing, width (Ry)=  0.0100
                       cart. coord. in units 2pi/alat
        k(    1) = (   0.0000000   0.0000000   0.0000000), wk =   0.5000000
        k(    2) = (   0.0000000  -0.5773503   0.0000000), wk =   0.5000000
        k(    3) = (   0.5000000  -0.2886751   0.0000000), wk =   0.5000000
        k(    4) = (  -0.5000000  -0.2886751   0.0000000), wk =   0.5000000

                       cryst. coord.
        k(    1) = (   0.0000000   0.0000000   0.0000000), wk =   0.5000000
        k(    2) = (   0.0000000  -0.5000000   0.0000000), wk =   0.5000000
        k(    3) = (   0.5000000  -0.5000000   0.0000000), wk =   0.5000000
        k(    4) = (  -0.5000000   0.0000000   0.0000000), wk =   0.5000000

     Dense  grid:  1904969 G-vectors     FFT dimensions: ( 160, 160, 180)

     Smooth grid:  1362953 G-vectors     FFT dimensions: ( 144, 144, 150)

     Dynamical RAM for                 wfc:      20.76 MB

     Dynamical RAM for     wfc (w. buffer):      62.27 MB

     Dynamical RAM for           str. fact:       0.91 MB

     Dynamical RAM for           local pot:       0.00 MB

     Dynamical RAM for          nlocal pot:      38.75 MB

     Dynamical RAM for                qrad:       3.00 MB

     Dynamical RAM for          rho,v,vnew:       3.12 MB

     Dynamical RAM for               rhoin:       1.04 MB

     Dynamical RAM for            rho*nmix:       7.27 MB

     Dynamical RAM for           G-vectors:       1.87 MB

     Dynamical RAM for          h,s,v(r/c):     191.25 MB

     Dynamical RAM for          <psi|beta>:       7.44 MB

     Dynamical RAM for                 psi:      83.03 MB

     Dynamical RAM for                hpsi:      83.03 MB

     Dynamical RAM for                spsi:      83.03 MB

     Dynamical RAM for      wfcinit/wfcrot:      47.49 MB

     Dynamical RAM for           addusdens:      50.64 MB

     Dynamical RAM for          addusforce:      66.68 MB

     Dynamical RAM for         addusstress:      45.76 MB

     Estimated static dynamical RAM per process >     115.25 MB

     Estimated max dynamical RAM per process >     570.28 MB

     Estimated total dynamical RAM >      70.83 GB

     Atomic positions and unit cell read from directory:
     ./PbI2.save/
     Atomic positions from file used, from input discarded
 

     Check: negative core charge=   -0.000001

     The initial density is read from file :
     ./PbI2.save/charge-density


     starting charge     851.0000, renormalised to     852.0000


     %%%%%%%%%%%%%%%%%%%%%%%%%%%%%%%%%%%%%%%%%%%%%%%%%%%%%%%%%%%%%%%%%%%%%%%%
     %                                                                      %
     % You are using vdW-DF, which was implemented by the Thonhauser group. %
     % Please cite the following two papers that made this development      %
     % possible and the two reviews that describe the various versions:     %
     %                                                                      %
     %   T. Thonhauser et al., PRL 115, 136402 (2015).                      %
     %   T. Thonhauser et al., PRB 76, 125112 (2007).                       %
     %   K. Berland et al., Rep. Prog. Phys. 78, 066501 (2015).             %
     %   D.C. Langreth et al., J. Phys.: Condens. Matter 21, 084203 (2009). %
     %                                                                      %
     % If you are calculating stress with vdW-DF, please also cite:         %
     %                                                                      %
     %   R. Sabatini et al., J. Phys.: Condens. Matter 24, 424209 (2012).   %
     %                                                                      %
     %%%%%%%%%%%%%%%%%%%%%%%%%%%%%%%%%%%%%%%%%%%%%%%%%%%%%%%%%%%%%%%%%%%%%%%%

     %%%%%%%%%%%%%%%%%%%%%%%%%%%%%%%%%%%%%%%%%%%%%%%%%%%%%%%%%%%%%%%%%%%%%%%%
     %                                                                      %
     %  vdW-DF NEWS:                                                        %
     %                                                                      %
     %  * vdW-DF3 is now available. DOI: 10.1021/acs.jctc.0c00471           %
     %    use with input_dft = 'vdW-DF3-opt1' or 'vdW-DF3-opt2'             %
     %                                                                      %
     %  * Unscreened and range-separated vdW-DF hybrid functionals          %
     %    DOI: 10.1063/1.4986522 and 10.1088/1361-648X/ac2ad2               %
     %    use with input_dft = 'vdW-DF-cx0' (etc) and 'vdW-DF-ahcx'         %
     %                                                                      %
     %%%%%%%%%%%%%%%%%%%%%%%%%%%%%%%%%%%%%%%%%%%%%%%%%%%%%%%%%%%%%%%%%%%%%%%%


     Carrying out vdW-DF run using the following parameters:
     Nqs    =  20  Npoints =  1024  r_max =  100.000
     q_mesh =  0.00001000  0.04494208  0.09755937  0.15916263
               0.23128650  0.31572767  0.41458969  0.53033537
               0.66584808  0.82450364  1.01025438  1.22772762
               1.48234092  1.78043706  2.12944203  2.53805004
               3.01644009  3.57652955  4.23227104  5.00000000


     -----------------------------------------------
     Non-local corr. energy    =      25.66210008 Ry
     -----------------------------------------------

     Wavefunctions not found or not readable, recomputing them from scratch
     Starting wfcs are  477 randomized atomic wfcs +   34 random wfcs
     Checking if some PAW data can be deallocated... 
       PAW data deallocated on   77 nodes for type:  1
       PAW data deallocated on   51 nodes for type:  2

     total cpu time spent up to now is       11.9 secs

     Self-consistent Calculation

     iteration #  1     ecut=    70.00 Ry     beta= 0.70
     Davidson diagonalization with overlap

---- Real-time Memory Report at c_bands before calling an iterative solver
           362 MiB given to the printing process from OS
             0 MiB allocation reported by mallinfo(arena+hblkhd)
       1971875 MiB available memory on the node where the printing process lives
------------------
     ethr =  1.00E-05,  avg # of iterations = 25.3


     -----------------------------------------------
     Non-local corr. energy    =      25.61227295 Ry
     -----------------------------------------------


     total cpu time spent up to now is      159.2 secs

     total energy              =  -35528.29975235 Ry
     estimated scf accuracy    <       0.04016295 Ry

     iteration #  2     ecut=    70.00 Ry     beta= 0.70
     Davidson diagonalization with overlap

---- Real-time Memory Report at c_bands before calling an iterative solver
           745 MiB given to the printing process from OS
             0 MiB allocation reported by mallinfo(arena+hblkhd)
       1970145 MiB available memory on the node where the printing process lives
------------------
     ethr =  4.71E-06,  avg # of iterations = 11.5


     -----------------------------------------------
     Non-local corr. energy    =      25.62257214 Ry
     -----------------------------------------------


     total cpu time spent up to now is      256.7 secs

     total energy              =  -35528.30585883 Ry
     estimated scf accuracy    <       0.03244945 Ry

     iteration #  3     ecut=    70.00 Ry     beta= 0.70
     Davidson diagonalization with overlap

---- Real-time Memory Report at c_bands before calling an iterative solver
           745 MiB given to the printing process from OS
             0 MiB allocation reported by mallinfo(arena+hblkhd)
       1970098 MiB available memory on the node where the printing process lives
------------------
     ethr =  3.81E-06,  avg # of iterations = 11.0


     -----------------------------------------------
     Non-local corr. energy    =      25.62986092 Ry
     -----------------------------------------------


     total cpu time spent up to now is      324.8 secs

     total energy              =  -35528.31357925 Ry
     estimated scf accuracy    <       0.00730645 Ry

     iteration #  4     ecut=    70.00 Ry     beta= 0.70
     Davidson diagonalization with overlap

---- Real-time Memory Report at c_bands before calling an iterative solver
           745 MiB given to the printing process from OS
             0 MiB allocation reported by mallinfo(arena+hblkhd)
       1969047 MiB available memory on the node where the printing process lives
------------------
     ethr =  8.58E-07,  avg # of iterations = 11.0


     -----------------------------------------------
     Non-local corr. energy    =      25.63345065 Ry
     -----------------------------------------------


     total cpu time spent up to now is      391.5 secs

     total energy              =  -35528.31521169 Ry
     estimated scf accuracy    <       0.00082279 Ry

     iteration #  5     ecut=    70.00 Ry     beta= 0.70
     Davidson diagonalization with overlap

---- Real-time Memory Report at c_bands before calling an iterative solver
           745 MiB given to the printing process from OS
             0 MiB allocation reported by mallinfo(arena+hblkhd)
       1969970 MiB available memory on the node where the printing process lives
------------------
     ethr =  9.66E-08,  avg # of iterations =  9.0


     -----------------------------------------------
     Non-local corr. energy    =      25.63621976 Ry
     -----------------------------------------------


     total cpu time spent up to now is      485.8 secs

     total energy              =  -35528.31564774 Ry
     estimated scf accuracy    <       0.00060010 Ry

     iteration #  6     ecut=    70.00 Ry     beta= 0.70
     Davidson diagonalization with overlap

---- Real-time Memory Report at c_bands before calling an iterative solver
           754 MiB given to the printing process from OS
             0 MiB allocation reported by mallinfo(arena+hblkhd)
       1968942 MiB available memory on the node where the printing process lives
------------------
     ethr =  7.04E-08,  avg # of iterations =  8.0


     -----------------------------------------------
     Non-local corr. energy    =      25.64535791 Ry
     -----------------------------------------------


     total cpu time spent up to now is      528.5 secs

     total energy              =  -35528.31566241 Ry
     estimated scf accuracy    <       0.00024482 Ry

     iteration #  7     ecut=    70.00 Ry     beta= 0.70
     Davidson diagonalization with overlap

---- Real-time Memory Report at c_bands before calling an iterative solver
           754 MiB given to the printing process from OS
             0 MiB allocation reported by mallinfo(arena+hblkhd)
       1969834 MiB available memory on the node where the printing process lives
------------------
     ethr =  2.87E-08,  avg # of iterations =  8.3


     -----------------------------------------------
     Non-local corr. energy    =      25.64483279 Ry
     -----------------------------------------------


     total cpu time spent up to now is      579.6 secs

     total energy              =  -35528.31567323 Ry
     estimated scf accuracy    <       0.00008867 Ry

     iteration #  8     ecut=    70.00 Ry     beta= 0.70
     Davidson diagonalization with overlap

---- Real-time Memory Report at c_bands before calling an iterative solver
           754 MiB given to the printing process from OS
             0 MiB allocation reported by mallinfo(arena+hblkhd)
       1969747 MiB available memory on the node where the printing process lives
------------------
     ethr =  1.04E-08,  avg # of iterations =  7.8


     -----------------------------------------------
     Non-local corr. energy    =      25.64387200 Ry
     -----------------------------------------------


     total cpu time spent up to now is      627.8 secs

     total energy              =  -35528.31567516 Ry
     estimated scf accuracy    <       0.00004284 Ry

     iteration #  9     ecut=    70.00 Ry     beta= 0.70
     Davidson diagonalization with overlap

---- Real-time Memory Report at c_bands before calling an iterative solver
           754 MiB given to the printing process from OS
             0 MiB allocation reported by mallinfo(arena+hblkhd)
       1969644 MiB available memory on the node where the printing process lives
------------------
     ethr =  5.03E-09,  avg # of iterations =  9.8


     -----------------------------------------------
     Non-local corr. energy    =      25.64340815 Ry
     -----------------------------------------------


     total cpu time spent up to now is      683.2 secs

     total energy              =  -35528.31567540 Ry
     estimated scf accuracy    <       0.00001506 Ry

     iteration # 10     ecut=    70.00 Ry     beta= 0.70
     Davidson diagonalization with overlap

---- Real-time Memory Report at c_bands before calling an iterative solver
           754 MiB given to the printing process from OS
             0 MiB allocation reported by mallinfo(arena+hblkhd)
       1969544 MiB available memory on the node where the printing process lives
------------------
     ethr =  1.77E-09,  avg # of iterations =  9.8


     -----------------------------------------------
     Non-local corr. energy    =      25.64290742 Ry
     -----------------------------------------------


     total cpu time spent up to now is      746.1 secs

     total energy              =  -35528.31567552 Ry
     estimated scf accuracy    <       0.00000424 Ry

     iteration # 11     ecut=    70.00 Ry     beta= 0.70
     Davidson diagonalization with overlap

---- Real-time Memory Report at c_bands before calling an iterative solver
           754 MiB given to the printing process from OS
             0 MiB allocation reported by mallinfo(arena+hblkhd)
       1969542 MiB available memory on the node where the printing process lives
------------------
     ethr =  4.98E-10,  avg # of iterations =  6.8


     -----------------------------------------------
     Non-local corr. energy    =      25.64250876 Ry
     -----------------------------------------------


     total cpu time spent up to now is      794.8 secs

     total energy              =  -35528.31567556 Ry
     estimated scf accuracy    <       0.00000070 Ry

     iteration # 12     ecut=    70.00 Ry     beta= 0.70
     Davidson diagonalization with overlap

---- Real-time Memory Report at c_bands before calling an iterative solver
           754 MiB given to the printing process from OS
             0 MiB allocation reported by mallinfo(arena+hblkhd)
       1969501 MiB available memory on the node where the printing process lives
------------------
     ethr =  8.16E-11,  avg # of iterations =  7.5


     -----------------------------------------------
     Non-local corr. energy    =      25.64263096 Ry
     -----------------------------------------------


     total cpu time spent up to now is      861.0 secs

     total energy              =  -35528.31567587 Ry
     estimated scf accuracy    <       0.00000025 Ry

     iteration # 13     ecut=    70.00 Ry     beta= 0.70
     Davidson diagonalization with overlap

---- Real-time Memory Report at c_bands before calling an iterative solver
           754 MiB given to the printing process from OS
             0 MiB allocation reported by mallinfo(arena+hblkhd)
       1969500 MiB available memory on the node where the printing process lives
------------------
     ethr =  2.95E-11,  avg # of iterations = 10.3


     -----------------------------------------------
     Non-local corr. energy    =      25.64264400 Ry
     -----------------------------------------------


     total cpu time spent up to now is      917.4 secs

     End of self-consistent calculation

          k = 0.0000 0.0000 0.0000 (170421 PWs)   bands (ev):

   -41.3580 -41.3578 -41.3577 -41.3576 -41.3559 -41.3557 -41.3557 -41.3555
   -41.3549 -41.3547 -41.3545 -41.3543 -41.3536 -41.3536 -41.3535 -41.3535
   -41.3534 -41.3533 -41.3531 -41.3530 -41.3525 -41.3523 -41.3517 -41.3516
   -41.3505 -41.3505 -41.3501 -41.3500 -41.3493 -41.3492 -41.3478 -41.3477
   -41.3477 -41.3476 -41.3458 -41.3458 -41.3458 -41.3457 -41.3439 -41.3438
   -41.3437 -41.3435 -41.3435 -41.3434 -41.3433 -41.3433 -41.3423 -41.3421
   -41.3421 -41.3421 -41.3417 -41.3417 -41.3405 -41.3405 -41.3397 -41.3396
   -41.3391 -41.3390 -41.3380 -41.3379 -41.3372 -41.3371 -41.3370 -41.3370
   -41.3351 -41.3351 -41.3349 -41.3349 -41.3343 -41.3342 -41.3340 -41.3339
   -41.3333 -41.3332 -41.3330 -41.3328 -41.3328 -41.3326 -41.3325 -41.3323
   -41.3322 -41.3320 -41.3315 -41.3313 -41.3300 -41.3298 -41.3297 -41.3295
   -41.3290 -41.3288 -40.7347 -40.7347 -40.7334 -40.7333 -40.7327 -40.7326
   -40.7325 -40.7324 -40.7315 -40.7313 -40.7310 -40.7309 -40.7302 -40.7300
   -40.7296 -40.7296 -40.7287 -40.7287 -40.7268 -40.7267 -40.7263 -40.7262
   -40.7246 -40.7244 -40.7242 -40.7240 -40.7229 -40.7229 -40.7224 -40.7224
   -40.6164 -40.6164 -40.6163 -40.6163 -40.6151 -40.6149 -40.6091 -40.6089
   -40.6089 -40.6087 -40.6074 -40.6073 -40.6073 -40.6071 -40.6071 -40.6069
   -40.6059 -40.6057 -40.5864 -40.5863 -40.5858 -40.5857 -40.5855 -40.5854
   -40.5850 -40.5848 -40.5840 -40.5838 -40.5834 -40.5833 -40.3406 -40.3404
   -40.3395 -40.3393 -40.3344 -40.3344 -40.3333 -40.3333 -40.3326 -40.3325
   -40.3315 -40.3314 -40.2625 -40.2623 -40.2582 -40.2581 -40.2564 -40.2564
   -40.2544 -40.2544 -40.2522 -40.2522 -40.2506 -40.2505 -40.2350 -40.2348
   -40.2290 -40.2289 -40.2272 -40.2271 -13.5223 -13.5218 -13.5167 -13.5166
   -13.5156 -13.5154 -13.5119 -13.5116 -13.5100 -13.5091 -13.5046 -13.5028
   -13.5027 -13.5016 -13.5010 -13.4986 -13.4983 -13.4975 -13.4975 -13.4970
   -13.4962 -13.4961 -13.4960 -13.4950 -13.4948 -13.4942 -13.4938 -13.4933
   -13.4920 -13.4919 -13.4906 -13.4901 -13.4898 -13.4897 -13.4893 -13.4891
   -13.4881 -13.4874 -13.4869 -13.4865 -13.4855 -13.4855 -13.4854 -13.4831
   -13.4830 -12.9001 -12.9001 -12.8998 -12.8997 -12.8852 -12.8851 -12.8833
   -12.8832 -12.8832 -12.8831 -12.7626 -12.7562 -12.7547 -12.7497 -12.7481
   -12.7418 -12.7368 -12.7340 -12.7335 -12.7314 -12.7312 -12.7310 -12.7307
   -12.7287 -12.7277 -12.7266 -12.7262 -12.7253 -12.7244 -12.7236 -12.7230
   -12.7211 -12.7200 -12.7122 -12.7068 -12.7040 -12.7030 -12.7025 -12.7014
   -12.6997  -8.6462  -8.3395  -8.3394  -8.3356  -8.3254  -8.3219  -8.3218
    -8.2106  -8.0992  -8.0974  -8.0902  -8.0880  -8.0871  -8.0808  -8.0788
    -8.0778  -8.0741  -8.0722  -7.8966  -7.6895  -7.6308  -7.6304  -7.6191
    -7.6188  -7.4966  -7.4494  -7.4217  -7.4213  -7.3707  -7.3706  -7.2395
    -7.1687  -7.1671  -7.0825  -7.0810  -7.0487  -4.2891  -4.2873  -4.0829
    -4.0809  -4.0801  -4.0786  -4.0778  -4.0733  -3.7218  -3.5585  -3.5299
    -3.4609  -3.3359  -3.3354  -3.2735  -3.2725  -3.0292   0.6823   0.6877
     0.6887   0.6896   0.6910   0.6955   0.7354   0.7354   0.7391   0.7392
     0.9847   0.9854   1.2981   1.3078   1.3091   1.3523   1.3526   1.3683
     1.4581   1.4608   1.4608   1.4853   1.4860   1.4880   1.5144   1.5179
     1.5189   1.5227   1.5228   1.5233   1.5239   1.5275   1.7005   1.7009
     1.7278   1.8408   1.8945   2.0651   2.0655   2.0661   2.0665   2.0846
     2.1214   2.1217   2.1236   2.1236   2.1456   2.1460   2.2192   2.2305
     2.2311   2.2556   2.2813   2.2830   2.2912   2.2971   2.3087   2.3094
     2.3115   2.3260   2.3313   2.3314   2.3324   2.3332   2.3342   2.3550
     2.3550   2.4816   2.4838   2.4896   2.5009   2.5166   2.5198   2.6520
     2.6549   2.6763   2.6782   2.6869   2.8255   2.8562   2.8566   2.8907
     2.8916   2.9014   2.9017   2.9094   2.9161   2.9564   2.9572   2.9910
     3.0490   3.0492   3.0982   3.0988   3.1565   3.2220   3.3107   3.3586
     3.3596   3.4246   3.4252   3.4413   3.4421   3.4671   3.4911   3.5381
     3.5700   3.5707   5.4352   6.0921   6.1008   6.1021   6.1023   6.1048
     6.1059   6.2601   6.2604   6.2842   6.7247   6.7254   6.7302   6.7310
     6.7660   6.7697   6.7698   6.7755   6.7766   6.7771   6.7909   6.7910
     6.8522   6.9364   6.9394   7.0391   7.0405   7.0438   7.0462   7.0472
     7.0485   7.1991   7.2114   7.2315   7.2316   7.2607   7.4528   7.4565
     7.4565   7.5712   7.5739   7.6649   7.6977   7.6994   7.7277   7.7451
     7.7471   7.7591   7.8116   7.8126   8.0514   9.0880   9.0911   9.0929
     9.1050   9.1110   9.1120   9.4738   9.7677   9.7680   9.8264   9.8661
     9.9415   9.9699  10.0293  10.0308  10.1193  10.5321  10.5421  10.5963
    10.5966  10.6072  10.6082  10.7056  10.7058  10.7147  10.7764  10.7786
    10.7866  10.7966  10.8222  10.8222  10.8241  10.8253  10.8972

     occupation numbers 
     1.0000   1.0000   1.0000   1.0000   1.0000   1.0000   1.0000   1.0000
     1.0000   1.0000   1.0000   1.0000   1.0000   1.0000   1.0000   1.0000
     1.0000   1.0000   1.0000   1.0000   1.0000   1.0000   1.0000   1.0000
     1.0000   1.0000   1.0000   1.0000   1.0000   1.0000   1.0000   1.0000
     1.0000   1.0000   1.0000   1.0000   1.0000   1.0000   1.0000   1.0000
     1.0000   1.0000   1.0000   1.0000   1.0000   1.0000   1.0000   1.0000
     1.0000   1.0000   1.0000   1.0000   1.0000   1.0000   1.0000   1.0000
     1.0000   1.0000   1.0000   1.0000   1.0000   1.0000   1.0000   1.0000
     1.0000   1.0000   1.0000   1.0000   1.0000   1.0000   1.0000   1.0000
     1.0000   1.0000   1.0000   1.0000   1.0000   1.0000   1.0000   1.0000
     1.0000   1.0000   1.0000   1.0000   1.0000   1.0000   1.0000   1.0000
     1.0000   1.0000   1.0000   1.0000   1.0000   1.0000   1.0000   1.0000
     1.0000   1.0000   1.0000   1.0000   1.0000   1.0000   1.0000   1.0000
     1.0000   1.0000   1.0000   1.0000   1.0000   1.0000   1.0000   1.0000
     1.0000   1.0000   1.0000   1.0000   1.0000   1.0000   1.0000   1.0000
     1.0000   1.0000   1.0000   1.0000   1.0000   1.0000   1.0000   1.0000
     1.0000   1.0000   1.0000   1.0000   1.0000   1.0000   1.0000   1.0000
     1.0000   1.0000   1.0000   1.0000   1.0000   1.0000   1.0000   1.0000
     1.0000   1.0000   1.0000   1.0000   1.0000   1.0000   1.0000   1.0000
     1.0000   1.0000   1.0000   1.0000   1.0000   1.0000   1.0000   1.0000
     1.0000   1.0000   1.0000   1.0000   1.0000   1.0000   1.0000   1.0000
     1.0000   1.0000   1.0000   1.0000   1.0000   1.0000   1.0000   1.0000
     1.0000   1.0000   1.0000   1.0000   1.0000   1.0000   1.0000   1.0000
     1.0000   1.0000   1.0000   1.0000   1.0000   1.0000   1.0000   1.0000
     1.0000   1.0000   1.0000   1.0000   1.0000   1.0000   1.0000   1.0000
     1.0000   1.0000   1.0000   1.0000   1.0000   1.0000   1.0000   1.0000
     1.0000   1.0000   1.0000   1.0000   1.0000   1.0000   1.0000   1.0000
     1.0000   1.0000   1.0000   1.0000   1.0000   1.0000   1.0000   1.0000
     1.0000   1.0000   1.0000   1.0000   1.0000   1.0000   1.0000   1.0000
     1.0000   1.0000   1.0000   1.0000   1.0000   1.0000   1.0000   1.0000
     1.0000   1.0000   1.0000   1.0000   1.0000   1.0000   1.0000   1.0000
     1.0000   1.0000   1.0000   1.0000   1.0000   1.0000   1.0000   1.0000
     1.0000   1.0000   1.0000   1.0000   1.0000   1.0000   1.0000   1.0000
     1.0000   1.0000   1.0000   1.0000   1.0000   1.0000   1.0000   1.0000
     1.0000   1.0000   1.0000   1.0000   1.0000   1.0000   1.0000   1.0000
     1.0000   1.0000   1.0000   1.0000   1.0000   1.0000   1.0000   1.0000
     1.0000   1.0000   1.0000   1.0000   1.0000   1.0000   1.0000   1.0000
     1.0000   1.0000   1.0000   1.0000   1.0000   1.0000   1.0000   1.0000
     1.0000   1.0000   1.0000   1.0000   1.0000   1.0000   1.0000   1.0000
     1.0000   1.0000   1.0000   1.0000   1.0000   1.0000   1.0000   1.0000
     1.0000   1.0000   1.0000   1.0000   1.0000   1.0000   1.0000   1.0000
     1.0000   1.0000   1.0000   1.0000   1.0000   1.0000   1.0000   1.0000
     1.0000   1.0000   1.0000   1.0000   1.0000   1.0000   1.0000   1.0000
     1.0000   1.0000   1.0000   1.0000   1.0000   1.0000   1.0000   1.0000
     1.0000   1.0000   1.0000   1.0000   1.0000   1.0000   1.0000   1.0000
     1.0000   1.0000   1.0000   1.0000   1.0000   1.0000   1.0000   1.0000
     1.0000   1.0000   1.0000   1.0000   1.0000   1.0000   1.0000   1.0000
     1.0000   1.0000   1.0000   1.0000   1.0000   1.0000   1.0000   1.0000
     1.0000   1.0000   1.0000   1.0000   1.0000   1.0000   1.0000   1.0000
     1.0000   1.0000   1.0000   1.0000   1.0000   1.0000   1.0000   1.0000
     1.0000   1.0000   1.0000   1.0000   1.0000   1.0000   1.0000   1.0000
     1.0000   1.0000   1.0000   1.0000   1.0000   1.0000   1.0000   1.0000
     1.0000   1.0000   1.0000   1.0000   1.0000   1.0000   1.0000   1.0000
     1.0000   1.0000   0.0000   0.0000   0.0000   0.0000   0.0000   0.0000
     0.0000   0.0000   0.0000   0.0000   0.0000   0.0000   0.0000   0.0000
     0.0000   0.0000   0.0000   0.0000   0.0000   0.0000   0.0000   0.0000
     0.0000   0.0000   0.0000   0.0000   0.0000   0.0000   0.0000   0.0000
     0.0000   0.0000   0.0000   0.0000   0.0000   0.0000   0.0000   0.0000
     0.0000   0.0000   0.0000   0.0000   0.0000   0.0000   0.0000   0.0000
     0.0000   0.0000   0.0000   0.0000   0.0000   0.0000   0.0000   0.0000
     0.0000   0.0000   0.0000   0.0000   0.0000   0.0000   0.0000   0.0000
     0.0000   0.0000   0.0000   0.0000   0.0000   0.0000   0.0000   0.0000
     0.0000   0.0000   0.0000   0.0000   0.0000   0.0000   0.0000   0.0000
     0.0000   0.0000   0.0000   0.0000   0.0000   0.0000   0.0000

          k = 0.0000-0.5774 0.0000 (170366 PWs)   bands (ev):

   -41.3580 -41.3578 -41.3577 -41.3576 -41.3559 -41.3557 -41.3557 -41.3555
   -41.3549 -41.3547 -41.3545 -41.3543 -41.3536 -41.3536 -41.3535 -41.3535
   -41.3534 -41.3533 -41.3531 -41.3530 -41.3525 -41.3523 -41.3517 -41.3516
   -41.3505 -41.3505 -41.3501 -41.3500 -41.3493 -41.3492 -41.3478 -41.3477
   -41.3477 -41.3476 -41.3458 -41.3458 -41.3458 -41.3457 -41.3439 -41.3438
   -41.3437 -41.3435 -41.3435 -41.3434 -41.3433 -41.3433 -41.3423 -41.3421
   -41.3421 -41.3421 -41.3417 -41.3417 -41.3405 -41.3405 -41.3397 -41.3396
   -41.3391 -41.3390 -41.3380 -41.3379 -41.3372 -41.3371 -41.3370 -41.3370
   -41.3351 -41.3351 -41.3349 -41.3349 -41.3343 -41.3342 -41.3340 -41.3339
   -41.3333 -41.3332 -41.3330 -41.3328 -41.3328 -41.3326 -41.3325 -41.3323
   -41.3322 -41.3320 -41.3315 -41.3313 -41.3300 -41.3298 -41.3297 -41.3295
   -41.3290 -41.3288 -40.7347 -40.7347 -40.7334 -40.7333 -40.7327 -40.7326
   -40.7325 -40.7324 -40.7315 -40.7313 -40.7310 -40.7309 -40.7302 -40.7300
   -40.7296 -40.7296 -40.7287 -40.7287 -40.7268 -40.7267 -40.7263 -40.7262
   -40.7246 -40.7244 -40.7242 -40.7240 -40.7229 -40.7229 -40.7224 -40.7224
   -40.6164 -40.6164 -40.6163 -40.6163 -40.6151 -40.6149 -40.6091 -40.6089
   -40.6089 -40.6087 -40.6074 -40.6073 -40.6073 -40.6071 -40.6071 -40.6069
   -40.6059 -40.6057 -40.5864 -40.5863 -40.5858 -40.5857 -40.5855 -40.5854
   -40.5850 -40.5848 -40.5840 -40.5838 -40.5834 -40.5833 -40.3406 -40.3404
   -40.3395 -40.3393 -40.3344 -40.3344 -40.3333 -40.3333 -40.3326 -40.3325
   -40.3315 -40.3314 -40.2625 -40.2623 -40.2582 -40.2581 -40.2564 -40.2564
   -40.2544 -40.2544 -40.2522 -40.2522 -40.2506 -40.2505 -40.2350 -40.2348
   -40.2290 -40.2289 -40.2272 -40.2271 -13.5246 -13.5223 -13.5190 -13.5171
   -13.5166 -13.5135 -13.5108 -13.5089 -13.5054 -13.5048 -13.5045 -13.5031
   -13.5020 -13.5012 -13.5008 -13.5001 -13.4999 -13.4993 -13.4978 -13.4972
   -13.4968 -13.4960 -13.4959 -13.4951 -13.4949 -13.4944 -13.4940 -13.4938
   -13.4934 -13.4926 -13.4920 -13.4915 -13.4909 -13.4899 -13.4896 -13.4892
   -13.4885 -13.4881 -13.4866 -13.4855 -13.4849 -13.4844 -13.4839 -13.4830
   -13.4818 -12.9002 -12.9001 -12.8998 -12.8997 -12.8851 -12.8851 -12.8833
   -12.8832 -12.8832 -12.8831 -12.7610 -12.7581 -12.7556 -12.7486 -12.7468
   -12.7431 -12.7355 -12.7342 -12.7331 -12.7320 -12.7314 -12.7311 -12.7307
   -12.7293 -12.7282 -12.7274 -12.7261 -12.7257 -12.7250 -12.7243 -12.7237
   -12.7189 -12.7164 -12.7145 -12.7067 -12.7040 -12.7036 -12.7022 -12.7005
   -12.7003  -8.5568  -8.5477  -8.3936  -8.3925  -8.1966  -8.1923  -8.1901
    -8.1885  -8.1750  -8.1692  -8.1615  -8.1044  -8.1001  -8.0763  -8.0652
    -8.0599  -8.0595  -8.0557  -7.8417  -7.7943  -7.6708  -7.6448  -7.5669
    -7.5650  -7.4816  -7.4602  -7.4287  -7.4066  -7.3861  -7.3721  -7.2215
    -7.1754  -7.1690  -7.0839  -7.0781  -7.0555  -4.2276  -4.2211  -4.2203
    -4.2183  -4.2134  -4.0095  -4.0070  -3.8275  -3.8263  -3.5447  -3.5372
    -3.4687  -3.4436  -3.3395  -3.2250  -3.1331  -3.1046   0.3897   0.5623
     0.5626   0.5715   0.5734   1.0167   1.0204   1.0221   1.0245   1.0400
     1.0403   1.1189   1.1219   1.1880   1.2748   1.2849   1.3239   1.3300
     1.3345   1.3364   1.3411   1.3734   1.3976   1.4068   1.4263   1.4415
     1.6585   1.6636   1.6674   1.7059   1.7743   1.7863   1.7933   1.8199
     1.8263   1.8346   1.8563   1.8760   1.8802   1.9108   1.9144   1.9298
     1.9458   1.9671   1.9695   2.0520   2.0914   2.1607   2.1693   2.1744
     2.1856   2.2030   2.2136   2.2271   2.2410   2.2605   2.2664   2.2706
     2.2747   2.2843   2.2923   2.3081   2.3433   2.3727   2.3775   2.4344
     2.4373   2.5392   2.5552   2.5861   2.6242   2.6395   2.6398   2.6534
     2.6771   2.6933   2.7496   2.7778   2.7990   2.8303   2.8427   2.8489
     2.8971   2.9058   2.9088   2.9122   2.9353   2.9419   2.9435   2.9442
     3.0064   3.0388   3.0461   3.0900   3.1254   3.2133   3.2232   3.3339
     3.3659   3.4086   3.4120   3.4728   3.4824   3.5135   3.5498   3.5841
     3.6147   3.6368   5.8888   5.8936   6.1514   6.3067   6.3115   6.3635
     6.3970   6.4718   6.4766   6.5166   6.5222   6.5238   6.5268   6.5338
     6.5416   6.6170   6.7227   6.7803   6.7831   6.7875   6.7900   6.8587
     6.8599   6.8637   6.9885   7.0177   7.0540   7.0544   7.0655   7.0666
     7.0900   7.1796   7.1978   7.2017   7.2457   7.2795   7.2943   7.3494
     7.3522   7.4168   7.4259   7.5227   7.5468   7.5603   7.6474   7.6820
     7.7187   7.8283   7.8968   7.9306   7.9561   8.8259   9.2842   9.2978
     9.3102   9.3196   9.5852   9.5950   9.7466   9.8014   9.8053   9.9679
     9.9799  10.0690  10.0784  10.0838  10.1194  10.1555  10.1920  10.2333
    10.3445  10.4410  10.4525  10.5336  10.5340  10.6236  10.6486  10.6629
    10.6741  10.6924  10.7134  10.7534  10.7757  10.7915  10.8191

     occupation numbers 
     1.0000   1.0000   1.0000   1.0000   1.0000   1.0000   1.0000   1.0000
     1.0000   1.0000   1.0000   1.0000   1.0000   1.0000   1.0000   1.0000
     1.0000   1.0000   1.0000   1.0000   1.0000   1.0000   1.0000   1.0000
     1.0000   1.0000   1.0000   1.0000   1.0000   1.0000   1.0000   1.0000
     1.0000   1.0000   1.0000   1.0000   1.0000   1.0000   1.0000   1.0000
     1.0000   1.0000   1.0000   1.0000   1.0000   1.0000   1.0000   1.0000
     1.0000   1.0000   1.0000   1.0000   1.0000   1.0000   1.0000   1.0000
     1.0000   1.0000   1.0000   1.0000   1.0000   1.0000   1.0000   1.0000
     1.0000   1.0000   1.0000   1.0000   1.0000   1.0000   1.0000   1.0000
     1.0000   1.0000   1.0000   1.0000   1.0000   1.0000   1.0000   1.0000
     1.0000   1.0000   1.0000   1.0000   1.0000   1.0000   1.0000   1.0000
     1.0000   1.0000   1.0000   1.0000   1.0000   1.0000   1.0000   1.0000
     1.0000   1.0000   1.0000   1.0000   1.0000   1.0000   1.0000   1.0000
     1.0000   1.0000   1.0000   1.0000   1.0000   1.0000   1.0000   1.0000
     1.0000   1.0000   1.0000   1.0000   1.0000   1.0000   1.0000   1.0000
     1.0000   1.0000   1.0000   1.0000   1.0000   1.0000   1.0000   1.0000
     1.0000   1.0000   1.0000   1.0000   1.0000   1.0000   1.0000   1.0000
     1.0000   1.0000   1.0000   1.0000   1.0000   1.0000   1.0000   1.0000
     1.0000   1.0000   1.0000   1.0000   1.0000   1.0000   1.0000   1.0000
     1.0000   1.0000   1.0000   1.0000   1.0000   1.0000   1.0000   1.0000
     1.0000   1.0000   1.0000   1.0000   1.0000   1.0000   1.0000   1.0000
     1.0000   1.0000   1.0000   1.0000   1.0000   1.0000   1.0000   1.0000
     1.0000   1.0000   1.0000   1.0000   1.0000   1.0000   1.0000   1.0000
     1.0000   1.0000   1.0000   1.0000   1.0000   1.0000   1.0000   1.0000
     1.0000   1.0000   1.0000   1.0000   1.0000   1.0000   1.0000   1.0000
     1.0000   1.0000   1.0000   1.0000   1.0000   1.0000   1.0000   1.0000
     1.0000   1.0000   1.0000   1.0000   1.0000   1.0000   1.0000   1.0000
     1.0000   1.0000   1.0000   1.0000   1.0000   1.0000   1.0000   1.0000
     1.0000   1.0000   1.0000   1.0000   1.0000   1.0000   1.0000   1.0000
     1.0000   1.0000   1.0000   1.0000   1.0000   1.0000   1.0000   1.0000
     1.0000   1.0000   1.0000   1.0000   1.0000   1.0000   1.0000   1.0000
     1.0000   1.0000   1.0000   1.0000   1.0000   1.0000   1.0000   1.0000
     1.0000   1.0000   1.0000   1.0000   1.0000   1.0000   1.0000   1.0000
     1.0000   1.0000   1.0000   1.0000   1.0000   1.0000   1.0000   1.0000
     1.0000   1.0000   1.0000   1.0000   1.0000   1.0000   1.0000   1.0000
     1.0000   1.0000   1.0000   1.0000   1.0000   1.0000   1.0000   1.0000
     1.0000   1.0000   1.0000   1.0000   1.0000   1.0000   1.0000   1.0000
     1.0000   1.0000   1.0000   1.0000   1.0000   1.0000   1.0000   1.0000
     1.0000   1.0000   1.0000   1.0000   1.0000   1.0000   1.0000   1.0000
     1.0000   1.0000   1.0000   1.0000   1.0000   1.0000   1.0000   1.0000
     1.0000   1.0000   1.0000   1.0000   1.0000   1.0000   1.0000   1.0000
     1.0000   1.0000   1.0000   1.0000   1.0000   1.0000   1.0000   1.0000
     1.0000   1.0000   1.0000   1.0000   1.0000   1.0000   1.0000   1.0000
     1.0000   1.0000   1.0000   1.0000   1.0000   1.0000   1.0000   1.0000
     1.0000   1.0000   1.0000   1.0000   1.0000   1.0000   1.0000   1.0000
     1.0000   1.0000   1.0000   1.0000   1.0000   1.0000   1.0000   1.0000
     1.0000   1.0000   1.0000   1.0000   1.0000   1.0000   1.0000   1.0000
     1.0000   1.0000   1.0000   1.0000   1.0000   1.0000   1.0000   1.0000
     1.0000   1.0000   1.0000   1.0000   1.0000   1.0000   1.0000   1.0000
     1.0000   1.0000   1.0000   1.0000   1.0000   1.0000   1.0000   1.0000
     1.0000   1.0000   1.0000   1.0000   1.0000   1.0000   1.0000   1.0000
     1.0000   1.0000   1.0000   1.0000   1.0000   1.0000   1.0000   1.0000
     1.0000   1.0000   1.0000   1.0000   1.0000   1.0000   1.0000   1.0000
     1.0000   1.0000   0.0000   0.0000   0.0000   0.0000   0.0000   0.0000
     0.0000   0.0000   0.0000   0.0000   0.0000   0.0000   0.0000   0.0000
     0.0000   0.0000   0.0000   0.0000   0.0000   0.0000   0.0000   0.0000
     0.0000   0.0000   0.0000   0.0000   0.0000   0.0000   0.0000   0.0000
     0.0000   0.0000   0.0000   0.0000   0.0000   0.0000   0.0000   0.0000
     0.0000   0.0000   0.0000   0.0000   0.0000   0.0000   0.0000   0.0000
     0.0000   0.0000   0.0000   0.0000   0.0000   0.0000   0.0000   0.0000
     0.0000   0.0000   0.0000   0.0000   0.0000   0.0000   0.0000   0.0000
     0.0000   0.0000   0.0000   0.0000   0.0000   0.0000   0.0000   0.0000
     0.0000   0.0000   0.0000   0.0000   0.0000   0.0000   0.0000   0.0000
     0.0000   0.0000   0.0000   0.0000   0.0000   0.0000   0.0000

          k = 0.5000-0.2887 0.0000 (170366 PWs)   bands (ev):

   -41.3580 -41.3578 -41.3577 -41.3576 -41.3559 -41.3557 -41.3557 -41.3555
   -41.3549 -41.3547 -41.3545 -41.3543 -41.3536 -41.3536 -41.3535 -41.3535
   -41.3534 -41.3533 -41.3531 -41.3530 -41.3525 -41.3523 -41.3517 -41.3516
   -41.3505 -41.3505 -41.3501 -41.3500 -41.3493 -41.3492 -41.3478 -41.3477
   -41.3477 -41.3476 -41.3458 -41.3458 -41.3458 -41.3457 -41.3439 -41.3438
   -41.3437 -41.3435 -41.3435 -41.3434 -41.3433 -41.3433 -41.3423 -41.3421
   -41.3421 -41.3421 -41.3417 -41.3417 -41.3405 -41.3405 -41.3397 -41.3396
   -41.3391 -41.3390 -41.3380 -41.3379 -41.3372 -41.3371 -41.3370 -41.3370
   -41.3351 -41.3351 -41.3349 -41.3349 -41.3343 -41.3342 -41.3340 -41.3339
   -41.3333 -41.3332 -41.3330 -41.3328 -41.3328 -41.3326 -41.3325 -41.3323
   -41.3322 -41.3320 -41.3315 -41.3313 -41.3300 -41.3298 -41.3297 -41.3295
   -41.3290 -41.3288 -40.7347 -40.7347 -40.7334 -40.7333 -40.7327 -40.7326
   -40.7325 -40.7324 -40.7315 -40.7313 -40.7310 -40.7309 -40.7302 -40.7300
   -40.7296 -40.7296 -40.7287 -40.7287 -40.7268 -40.7267 -40.7263 -40.7262
   -40.7246 -40.7244 -40.7242 -40.7240 -40.7229 -40.7229 -40.7224 -40.7224
   -40.6164 -40.6164 -40.6163 -40.6163 -40.6151 -40.6149 -40.6091 -40.6089
   -40.6089 -40.6087 -40.6074 -40.6073 -40.6073 -40.6071 -40.6071 -40.6069
   -40.6059 -40.6057 -40.5864 -40.5863 -40.5858 -40.5857 -40.5855 -40.5854
   -40.5850 -40.5848 -40.5840 -40.5838 -40.5834 -40.5833 -40.3406 -40.3404
   -40.3395 -40.3393 -40.3344 -40.3344 -40.3333 -40.3333 -40.3326 -40.3325
   -40.3315 -40.3314 -40.2625 -40.2623 -40.2582 -40.2581 -40.2564 -40.2564
   -40.2544 -40.2544 -40.2522 -40.2522 -40.2506 -40.2505 -40.2350 -40.2348
   -40.2290 -40.2289 -40.2272 -40.2271 -13.5245 -13.5226 -13.5189 -13.5169
   -13.5166 -13.5131 -13.5113 -13.5087 -13.5056 -13.5049 -13.5041 -13.5036
   -13.5019 -13.5014 -13.5010 -13.5005 -13.4994 -13.4977 -13.4975 -13.4969
   -13.4968 -13.4964 -13.4963 -13.4955 -13.4949 -13.4948 -13.4939 -13.4938
   -13.4936 -13.4933 -13.4920 -13.4912 -13.4902 -13.4902 -13.4893 -13.4888
   -13.4883 -13.4882 -13.4863 -13.4861 -13.4854 -13.4847 -13.4840 -13.4826
   -13.4817 -12.9002 -12.9000 -12.8998 -12.8997 -12.8851 -12.8851 -12.8833
   -12.8832 -12.8832 -12.8831 -12.7611 -12.7572 -12.7564 -12.7490 -12.7460
   -12.7434 -12.7356 -12.7343 -12.7328 -12.7322 -12.7313 -12.7310 -12.7308
   -12.7291 -12.7277 -12.7276 -12.7263 -12.7258 -12.7254 -12.7238 -12.7237
   -12.7193 -12.7155 -12.7151 -12.7067 -12.7043 -12.7034 -12.7021 -12.7009
   -12.7001  -8.5567  -8.5479  -8.3935  -8.3925  -8.1967  -8.1914  -8.1910
    -8.1890  -8.1741  -8.1691  -8.1620  -8.1037  -8.0997  -8.0769  -8.0662
    -8.0600  -8.0599  -8.0543  -7.8418  -7.7942  -7.6709  -7.6445  -7.5674
    -7.5648  -7.4817  -7.4601  -7.4284  -7.4067  -7.3862  -7.3720  -7.2215
    -7.1741  -7.1703  -7.0850  -7.0769  -7.0556  -4.2278  -4.2203  -4.2198
    -4.2184  -4.2142  -4.0096  -4.0070  -3.8277  -3.8260  -3.5445  -3.5371
    -3.4689  -3.4434  -3.3399  -3.2254  -3.1334  -3.1040   0.3898   0.5622
     0.5624   0.5715   0.5737   1.0158   1.0199   1.0230   1.0253   1.0396
     1.0404   1.1187   1.1218   1.1886   1.2744   1.2847   1.3245   1.3305
     1.3352   1.3353   1.3403   1.3732   1.3978   1.4074   1.4260   1.4414
     1.6592   1.6648   1.6672   1.7061   1.7742   1.7859   1.7929   1.8196
     1.8245   1.8364   1.8547   1.8771   1.8786   1.9104   1.9140   1.9304
     1.9449   1.9685   1.9686   2.0520   2.0911   2.1601   2.1695   2.1754
     2.1851   2.2037   2.2117   2.2293   2.2397   2.2615   2.2679   2.2697
     2.2745   2.2840   2.2922   2.3091   2.3445   2.3725   2.3772   2.4338
     2.4384   2.5388   2.5558   2.5861   2.6249   2.6373   2.6387   2.6552
     2.6770   2.6940   2.7496   2.7779   2.7988   2.8305   2.8426   2.8486
     2.8966   2.9056   2.9099   2.9122   2.9357   2.9417   2.9426   2.9442
     3.0060   3.0385   3.0470   3.0898   3.1249   3.2139   3.2232   3.3341
     3.3653   3.4091   3.4124   3.4717   3.4823   3.5134   3.5495   3.5837
     3.6152   3.6369   5.8910   5.8913   6.1515   6.3065   6.3117   6.3673
     6.3915   6.4717   6.4767   6.5118   6.5189   6.5268   6.5274   6.5368
     6.5457   6.6183   6.7222   6.7809   6.7825   6.7846   6.7912   6.8587
     6.8601   6.8638   6.9873   7.0157   7.0526   7.0542   7.0635   7.0694
     7.0853   7.1826   7.1973   7.2005   7.2493   7.2809   7.2933   7.3501
     7.3531   7.4202   7.4266   7.5212   7.5460   7.5577   7.6477   7.6833
     7.7206   7.8289   7.8987   7.9304   7.9533   8.8264   9.2834   9.2980
     9.3097   9.3202   9.5851   9.5951   9.7475   9.8006   9.8063   9.9679
     9.9790  10.0681  10.0785  10.0835  10.1185  10.1565  10.1907  10.2329
    10.3441  10.4417  10.4548  10.5321  10.5346  10.6222  10.6487  10.6614
    10.6740  10.6944  10.7143  10.7566  10.7741  10.7914  10.8200

     occupation numbers 
     1.0000   1.0000   1.0000   1.0000   1.0000   1.0000   1.0000   1.0000
     1.0000   1.0000   1.0000   1.0000   1.0000   1.0000   1.0000   1.0000
     1.0000   1.0000   1.0000   1.0000   1.0000   1.0000   1.0000   1.0000
     1.0000   1.0000   1.0000   1.0000   1.0000   1.0000   1.0000   1.0000
     1.0000   1.0000   1.0000   1.0000   1.0000   1.0000   1.0000   1.0000
     1.0000   1.0000   1.0000   1.0000   1.0000   1.0000   1.0000   1.0000
     1.0000   1.0000   1.0000   1.0000   1.0000   1.0000   1.0000   1.0000
     1.0000   1.0000   1.0000   1.0000   1.0000   1.0000   1.0000   1.0000
     1.0000   1.0000   1.0000   1.0000   1.0000   1.0000   1.0000   1.0000
     1.0000   1.0000   1.0000   1.0000   1.0000   1.0000   1.0000   1.0000
     1.0000   1.0000   1.0000   1.0000   1.0000   1.0000   1.0000   1.0000
     1.0000   1.0000   1.0000   1.0000   1.0000   1.0000   1.0000   1.0000
     1.0000   1.0000   1.0000   1.0000   1.0000   1.0000   1.0000   1.0000
     1.0000   1.0000   1.0000   1.0000   1.0000   1.0000   1.0000   1.0000
     1.0000   1.0000   1.0000   1.0000   1.0000   1.0000   1.0000   1.0000
     1.0000   1.0000   1.0000   1.0000   1.0000   1.0000   1.0000   1.0000
     1.0000   1.0000   1.0000   1.0000   1.0000   1.0000   1.0000   1.0000
     1.0000   1.0000   1.0000   1.0000   1.0000   1.0000   1.0000   1.0000
     1.0000   1.0000   1.0000   1.0000   1.0000   1.0000   1.0000   1.0000
     1.0000   1.0000   1.0000   1.0000   1.0000   1.0000   1.0000   1.0000
     1.0000   1.0000   1.0000   1.0000   1.0000   1.0000   1.0000   1.0000
     1.0000   1.0000   1.0000   1.0000   1.0000   1.0000   1.0000   1.0000
     1.0000   1.0000   1.0000   1.0000   1.0000   1.0000   1.0000   1.0000
     1.0000   1.0000   1.0000   1.0000   1.0000   1.0000   1.0000   1.0000
     1.0000   1.0000   1.0000   1.0000   1.0000   1.0000   1.0000   1.0000
     1.0000   1.0000   1.0000   1.0000   1.0000   1.0000   1.0000   1.0000
     1.0000   1.0000   1.0000   1.0000   1.0000   1.0000   1.0000   1.0000
     1.0000   1.0000   1.0000   1.0000   1.0000   1.0000   1.0000   1.0000
     1.0000   1.0000   1.0000   1.0000   1.0000   1.0000   1.0000   1.0000
     1.0000   1.0000   1.0000   1.0000   1.0000   1.0000   1.0000   1.0000
     1.0000   1.0000   1.0000   1.0000   1.0000   1.0000   1.0000   1.0000
     1.0000   1.0000   1.0000   1.0000   1.0000   1.0000   1.0000   1.0000
     1.0000   1.0000   1.0000   1.0000   1.0000   1.0000   1.0000   1.0000
     1.0000   1.0000   1.0000   1.0000   1.0000   1.0000   1.0000   1.0000
     1.0000   1.0000   1.0000   1.0000   1.0000   1.0000   1.0000   1.0000
     1.0000   1.0000   1.0000   1.0000   1.0000   1.0000   1.0000   1.0000
     1.0000   1.0000   1.0000   1.0000   1.0000   1.0000   1.0000   1.0000
     1.0000   1.0000   1.0000   1.0000   1.0000   1.0000   1.0000   1.0000
     1.0000   1.0000   1.0000   1.0000   1.0000   1.0000   1.0000   1.0000
     1.0000   1.0000   1.0000   1.0000   1.0000   1.0000   1.0000   1.0000
     1.0000   1.0000   1.0000   1.0000   1.0000   1.0000   1.0000   1.0000
     1.0000   1.0000   1.0000   1.0000   1.0000   1.0000   1.0000   1.0000
     1.0000   1.0000   1.0000   1.0000   1.0000   1.0000   1.0000   1.0000
     1.0000   1.0000   1.0000   1.0000   1.0000   1.0000   1.0000   1.0000
     1.0000   1.0000   1.0000   1.0000   1.0000   1.0000   1.0000   1.0000
     1.0000   1.0000   1.0000   1.0000   1.0000   1.0000   1.0000   1.0000
     1.0000   1.0000   1.0000   1.0000   1.0000   1.0000   1.0000   1.0000
     1.0000   1.0000   1.0000   1.0000   1.0000   1.0000   1.0000   1.0000
     1.0000   1.0000   1.0000   1.0000   1.0000   1.0000   1.0000   1.0000
     1.0000   1.0000   1.0000   1.0000   1.0000   1.0000   1.0000   1.0000
     1.0000   1.0000   1.0000   1.0000   1.0000   1.0000   1.0000   1.0000
     1.0000   1.0000   1.0000   1.0000   1.0000   1.0000   1.0000   1.0000
     1.0000   1.0000   1.0000   1.0000   1.0000   1.0000   1.0000   1.0000
     1.0000   1.0000   0.0000   0.0000   0.0000   0.0000   0.0000   0.0000
     0.0000   0.0000   0.0000   0.0000   0.0000   0.0000   0.0000   0.0000
     0.0000   0.0000   0.0000   0.0000   0.0000   0.0000   0.0000   0.0000
     0.0000   0.0000   0.0000   0.0000   0.0000   0.0000   0.0000   0.0000
     0.0000   0.0000   0.0000   0.0000   0.0000   0.0000   0.0000   0.0000
     0.0000   0.0000   0.0000   0.0000   0.0000   0.0000   0.0000   0.0000
     0.0000   0.0000   0.0000   0.0000   0.0000   0.0000   0.0000   0.0000
     0.0000   0.0000   0.0000   0.0000   0.0000   0.0000   0.0000   0.0000
     0.0000   0.0000   0.0000   0.0000   0.0000   0.0000   0.0000   0.0000
     0.0000   0.0000   0.0000   0.0000   0.0000   0.0000   0.0000   0.0000
     0.0000   0.0000   0.0000   0.0000   0.0000   0.0000   0.0000

          k =-0.5000-0.2887 0.0000 (170366 PWs)   bands (ev):

   -41.3580 -41.3578 -41.3577 -41.3576 -41.3559 -41.3557 -41.3557 -41.3555
   -41.3549 -41.3547 -41.3545 -41.3543 -41.3536 -41.3536 -41.3535 -41.3535
   -41.3534 -41.3533 -41.3531 -41.3530 -41.3525 -41.3523 -41.3517 -41.3516
   -41.3505 -41.3505 -41.3501 -41.3500 -41.3493 -41.3492 -41.3478 -41.3477
   -41.3477 -41.3476 -41.3458 -41.3458 -41.3458 -41.3457 -41.3439 -41.3438
   -41.3437 -41.3435 -41.3435 -41.3434 -41.3433 -41.3433 -41.3423 -41.3421
   -41.3421 -41.3421 -41.3417 -41.3417 -41.3405 -41.3405 -41.3397 -41.3396
   -41.3391 -41.3390 -41.3380 -41.3379 -41.3372 -41.3371 -41.3370 -41.3370
   -41.3351 -41.3351 -41.3349 -41.3349 -41.3343 -41.3342 -41.3340 -41.3339
   -41.3333 -41.3332 -41.3330 -41.3328 -41.3328 -41.3326 -41.3325 -41.3323
   -41.3322 -41.3320 -41.3315 -41.3313 -41.3300 -41.3298 -41.3297 -41.3295
   -41.3290 -41.3288 -40.7347 -40.7347 -40.7334 -40.7333 -40.7327 -40.7326
   -40.7325 -40.7324 -40.7315 -40.7313 -40.7310 -40.7309 -40.7302 -40.7300
   -40.7296 -40.7296 -40.7287 -40.7287 -40.7268 -40.7267 -40.7263 -40.7262
   -40.7246 -40.7244 -40.7242 -40.7240 -40.7229 -40.7229 -40.7224 -40.7224
   -40.6164 -40.6164 -40.6163 -40.6163 -40.6151 -40.6149 -40.6091 -40.6089
   -40.6089 -40.6087 -40.6074 -40.6073 -40.6073 -40.6071 -40.6071 -40.6069
   -40.6059 -40.6057 -40.5864 -40.5863 -40.5858 -40.5857 -40.5855 -40.5854
   -40.5850 -40.5848 -40.5840 -40.5838 -40.5834 -40.5833 -40.3406 -40.3404
   -40.3395 -40.3393 -40.3344 -40.3344 -40.3333 -40.3333 -40.3326 -40.3325
   -40.3315 -40.3314 -40.2625 -40.2623 -40.2582 -40.2581 -40.2564 -40.2564
   -40.2544 -40.2544 -40.2522 -40.2522 -40.2506 -40.2505 -40.2350 -40.2348
   -40.2290 -40.2289 -40.2272 -40.2271 -13.5246 -13.5223 -13.5190 -13.5171
   -13.5167 -13.5135 -13.5108 -13.5089 -13.5053 -13.5048 -13.5045 -13.5031
   -13.5020 -13.5012 -13.5007 -13.5001 -13.4999 -13.4993 -13.4978 -13.4972
   -13.4968 -13.4960 -13.4959 -13.4951 -13.4949 -13.4944 -13.4940 -13.4938
   -13.4934 -13.4926 -13.4920 -13.4915 -13.4909 -13.4899 -13.4896 -13.4892
   -13.4885 -13.4881 -13.4866 -13.4855 -13.4849 -13.4844 -13.4839 -13.4830
   -13.4819 -12.9002 -12.9001 -12.8998 -12.8997 -12.8851 -12.8851 -12.8832
   -12.8832 -12.8832 -12.8831 -12.7610 -12.7581 -12.7556 -12.7486 -12.7468
   -12.7431 -12.7355 -12.7342 -12.7331 -12.7320 -12.7314 -12.7311 -12.7307
   -12.7292 -12.7283 -12.7273 -12.7261 -12.7257 -12.7250 -12.7243 -12.7237
   -12.7189 -12.7164 -12.7145 -12.7067 -12.7040 -12.7037 -12.7022 -12.7006
   -12.7003  -8.5568  -8.5476  -8.3936  -8.3925  -8.1966  -8.1923  -8.1901
    -8.1885  -8.1750  -8.1692  -8.1615  -8.1044  -8.1001  -8.0763  -8.0651
    -8.0599  -8.0594  -8.0557  -7.8417  -7.7943  -7.6708  -7.6448  -7.5669
    -7.5651  -7.4816  -7.4602  -7.4287  -7.4066  -7.3860  -7.3721  -7.2215
    -7.1754  -7.1690  -7.0839  -7.0781  -7.0555  -4.2276  -4.2211  -4.2203
    -4.2183  -4.2134  -4.0095  -4.0070  -3.8275  -3.8263  -3.5447  -3.5372
    -3.4687  -3.4436  -3.3395  -3.2250  -3.1331  -3.1046   0.3897   0.5623
     0.5626   0.5715   0.5734   1.0167   1.0204   1.0220   1.0245   1.0400
     1.0403   1.1189   1.1219   1.1880   1.2748   1.2849   1.3239   1.3300
     1.3345   1.3364   1.3411   1.3734   1.3976   1.4067   1.4263   1.4415
     1.6585   1.6636   1.6674   1.7059   1.7743   1.7863   1.7933   1.8199
     1.8263   1.8346   1.8564   1.8760   1.8802   1.9107   1.9145   1.9298
     1.9458   1.9671   1.9695   2.0520   2.0914   2.1607   2.1693   2.1744
     2.1856   2.2030   2.2136   2.2271   2.2410   2.2604   2.2664   2.2706
     2.2747   2.2843   2.2923   2.3081   2.3432   2.3727   2.3775   2.4344
     2.4373   2.5392   2.5552   2.5861   2.6242   2.6395   2.6399   2.6534
     2.6771   2.6933   2.7496   2.7778   2.7990   2.8303   2.8427   2.8489
     2.8971   2.9058   2.9088   2.9122   2.9353   2.9419   2.9435   2.9442
     3.0064   3.0388   3.0461   3.0900   3.1254   3.2132   3.2232   3.3339
     3.3659   3.4086   3.4120   3.4729   3.4824   3.5135   3.5498   3.5841
     3.6147   3.6368   5.8888   5.8936   6.1514   6.3067   6.3115   6.3635
     6.3970   6.4718   6.4766   6.5166   6.5222   6.5238   6.5268   6.5337
     6.5415   6.6169   6.7227   6.7803   6.7832   6.7875   6.7900   6.8587
     6.8599   6.8637   6.9886   7.0177   7.0540   7.0544   7.0654   7.0666
     7.0900   7.1795   7.1978   7.2017   7.2457   7.2794   7.2943   7.3494
     7.3522   7.4168   7.4258   7.5227   7.5469   7.5603   7.6474   7.6820
     7.7187   7.8283   7.8968   7.9306   7.9561   8.8259   9.2842   9.2978
     9.3102   9.3196   9.5852   9.5950   9.7466   9.8014   9.8053   9.9679
     9.9799  10.0690  10.0785  10.0838  10.1194  10.1555  10.1920  10.2333
    10.3445  10.4410  10.4525  10.5337  10.5340  10.6236  10.6486  10.6629
    10.6741  10.6923  10.7134  10.7533  10.7757  10.7915  10.8191

     occupation numbers 
     1.0000   1.0000   1.0000   1.0000   1.0000   1.0000   1.0000   1.0000
     1.0000   1.0000   1.0000   1.0000   1.0000   1.0000   1.0000   1.0000
     1.0000   1.0000   1.0000   1.0000   1.0000   1.0000   1.0000   1.0000
     1.0000   1.0000   1.0000   1.0000   1.0000   1.0000   1.0000   1.0000
     1.0000   1.0000   1.0000   1.0000   1.0000   1.0000   1.0000   1.0000
     1.0000   1.0000   1.0000   1.0000   1.0000   1.0000   1.0000   1.0000
     1.0000   1.0000   1.0000   1.0000   1.0000   1.0000   1.0000   1.0000
     1.0000   1.0000   1.0000   1.0000   1.0000   1.0000   1.0000   1.0000
     1.0000   1.0000   1.0000   1.0000   1.0000   1.0000   1.0000   1.0000
     1.0000   1.0000   1.0000   1.0000   1.0000   1.0000   1.0000   1.0000
     1.0000   1.0000   1.0000   1.0000   1.0000   1.0000   1.0000   1.0000
     1.0000   1.0000   1.0000   1.0000   1.0000   1.0000   1.0000   1.0000
     1.0000   1.0000   1.0000   1.0000   1.0000   1.0000   1.0000   1.0000
     1.0000   1.0000   1.0000   1.0000   1.0000   1.0000   1.0000   1.0000
     1.0000   1.0000   1.0000   1.0000   1.0000   1.0000   1.0000   1.0000
     1.0000   1.0000   1.0000   1.0000   1.0000   1.0000   1.0000   1.0000
     1.0000   1.0000   1.0000   1.0000   1.0000   1.0000   1.0000   1.0000
     1.0000   1.0000   1.0000   1.0000   1.0000   1.0000   1.0000   1.0000
     1.0000   1.0000   1.0000   1.0000   1.0000   1.0000   1.0000   1.0000
     1.0000   1.0000   1.0000   1.0000   1.0000   1.0000   1.0000   1.0000
     1.0000   1.0000   1.0000   1.0000   1.0000   1.0000   1.0000   1.0000
     1.0000   1.0000   1.0000   1.0000   1.0000   1.0000   1.0000   1.0000
     1.0000   1.0000   1.0000   1.0000   1.0000   1.0000   1.0000   1.0000
     1.0000   1.0000   1.0000   1.0000   1.0000   1.0000   1.0000   1.0000
     1.0000   1.0000   1.0000   1.0000   1.0000   1.0000   1.0000   1.0000
     1.0000   1.0000   1.0000   1.0000   1.0000   1.0000   1.0000   1.0000
     1.0000   1.0000   1.0000   1.0000   1.0000   1.0000   1.0000   1.0000
     1.0000   1.0000   1.0000   1.0000   1.0000   1.0000   1.0000   1.0000
     1.0000   1.0000   1.0000   1.0000   1.0000   1.0000   1.0000   1.0000
     1.0000   1.0000   1.0000   1.0000   1.0000   1.0000   1.0000   1.0000
     1.0000   1.0000   1.0000   1.0000   1.0000   1.0000   1.0000   1.0000
     1.0000   1.0000   1.0000   1.0000   1.0000   1.0000   1.0000   1.0000
     1.0000   1.0000   1.0000   1.0000   1.0000   1.0000   1.0000   1.0000
     1.0000   1.0000   1.0000   1.0000   1.0000   1.0000   1.0000   1.0000
     1.0000   1.0000   1.0000   1.0000   1.0000   1.0000   1.0000   1.0000
     1.0000   1.0000   1.0000   1.0000   1.0000   1.0000   1.0000   1.0000
     1.0000   1.0000   1.0000   1.0000   1.0000   1.0000   1.0000   1.0000
     1.0000   1.0000   1.0000   1.0000   1.0000   1.0000   1.0000   1.0000
     1.0000   1.0000   1.0000   1.0000   1.0000   1.0000   1.0000   1.0000
     1.0000   1.0000   1.0000   1.0000   1.0000   1.0000   1.0000   1.0000
     1.0000   1.0000   1.0000   1.0000   1.0000   1.0000   1.0000   1.0000
     1.0000   1.0000   1.0000   1.0000   1.0000   1.0000   1.0000   1.0000
     1.0000   1.0000   1.0000   1.0000   1.0000   1.0000   1.0000   1.0000
     1.0000   1.0000   1.0000   1.0000   1.0000   1.0000   1.0000   1.0000
     1.0000   1.0000   1.0000   1.0000   1.0000   1.0000   1.0000   1.0000
     1.0000   1.0000   1.0000   1.0000   1.0000   1.0000   1.0000   1.0000
     1.0000   1.0000   1.0000   1.0000   1.0000   1.0000   1.0000   1.0000
     1.0000   1.0000   1.0000   1.0000   1.0000   1.0000   1.0000   1.0000
     1.0000   1.0000   1.0000   1.0000   1.0000   1.0000   1.0000   1.0000
     1.0000   1.0000   1.0000   1.0000   1.0000   1.0000   1.0000   1.0000
     1.0000   1.0000   1.0000   1.0000   1.0000   1.0000   1.0000   1.0000
     1.0000   1.0000   1.0000   1.0000   1.0000   1.0000   1.0000   1.0000
     1.0000   1.0000   1.0000   1.0000   1.0000   1.0000   1.0000   1.0000
     1.0000   1.0000   0.0000   0.0000   0.0000   0.0000   0.0000   0.0000
     0.0000   0.0000   0.0000   0.0000   0.0000   0.0000   0.0000   0.0000
     0.0000   0.0000   0.0000   0.0000   0.0000   0.0000   0.0000   0.0000
     0.0000   0.0000   0.0000   0.0000   0.0000   0.0000   0.0000   0.0000
     0.0000   0.0000   0.0000   0.0000   0.0000   0.0000   0.0000   0.0000
     0.0000   0.0000   0.0000   0.0000   0.0000   0.0000   0.0000   0.0000
     0.0000   0.0000   0.0000   0.0000   0.0000   0.0000   0.0000   0.0000
     0.0000   0.0000   0.0000   0.0000   0.0000   0.0000   0.0000   0.0000
     0.0000   0.0000   0.0000   0.0000   0.0000   0.0000   0.0000   0.0000
     0.0000   0.0000   0.0000   0.0000   0.0000   0.0000   0.0000   0.0000
     0.0000   0.0000   0.0000   0.0000   0.0000   0.0000   0.0000

     the Fermi energy is     4.5267 ev

!    total energy              =  -35528.31567589 Ry
     total all-electron energy =  -1223255.215149 Ry
     estimated scf accuracy    <       0.00000004 Ry
     smearing contrib. (-TS)   =      -0.00000000 Ry
     internal energy E=F+TS    =  -35528.31567589 Ry

     The total energy is F=E-TS. E is the sum of the following terms:
     one-electron contribution =   -6749.98762765 Ry
     hartree contribution      =    3754.83934035 Ry
     xc contribution           =   -2519.36256644 Ry
     ewald contribution        =   -5426.80927881 Ry
     one-center paw contrib.   =  -24586.99554335 Ry
      -> PAW hartree energy AE =      96.07291164 Ry
      -> PAW hartree energy PS =     -96.31118858 Ry
      -> PAW xc energy AE      =    -798.44450210 Ry
      -> PAW xc energy PS      =      33.32339485 Ry
      -> total E_H with PAW    =    3754.60106342 Ry
      -> total E_XC with PAW   =   -3284.48367369 Ry

     convergence has been achieved in  13 iterations


     -----------------------------------------------
     Non-local corr. energy    =      25.64264400 Ry
     -----------------------------------------------


     Forces acting on atoms (cartesian axes, Ry/au):

     atom    1 type  1   force =     0.00006054    0.00010175    0.00001071
     atom    2 type  1   force =     0.00207609   -0.00347739   -0.00010318
     atom    3 type  1   force =     0.00058554   -0.00084996   -0.00015620
     atom    4 type  1   force =    -0.00184127    0.00335581   -0.00002943
     atom    5 type  1   force =    -0.00045151    0.00099850    0.00001221
     atom    6 type  1   force =    -0.00405244    0.00005549    0.00008627
     atom    7 type  1   force =    -0.00102944    0.00007800    0.00017128
     atom    8 type  1   force =    -0.00204483   -0.00353783   -0.00000487
     atom    9 type  1   force =    -0.00051195   -0.00088516    0.00000940
     atom   10 type  1   force =    -0.00003872   -0.00001337    0.00053050
     atom   11 type  1   force =     0.00000154    0.00007530   -0.00044444
     atom   12 type  1   force =     0.00382321    0.00007978    0.00001091
     atom   13 type  1   force =     0.00109037    0.00010458    0.00000018
     atom   14 type  1   force =     0.00000608   -0.00003747   -0.00055105
     atom   15 type  1   force =     0.00006507    0.00004031    0.00045966
     atom   16 type  1   force =     0.00182591    0.00316572   -0.00000631
     atom   17 type  1   force =     0.00057190    0.00099089    0.00000632
     atom   18 type  2   force =     0.00010319   -0.00011892    0.00051241
     atom   19 type  2   force =    -0.00014961   -0.00066005   -0.00133176
     atom   20 type  2   force =    -0.00000266    0.00010221    0.00039308
     atom   21 type  2   force =    -0.00052961    0.00007228   -0.00118587
     atom   22 type  2   force =     0.00014633    0.00025257   -0.00018542
     atom   23 type  2   force =    -0.00107130   -0.00080834   -0.00155573
     atom   24 type  2   force =     0.00027475   -0.00001888    0.00019654
     atom   25 type  2   force =     0.00080189   -0.00032340   -0.00135301
     atom   26 type  2   force =     0.00029980    0.00016692    0.00046547
     atom   27 type  2   force =     0.00024516    0.00005893   -0.00112832
     atom   28 type  2   force =     0.00009353    0.00038005    0.00013516
     atom   29 type  2   force =     0.00023533    0.00049966   -0.00132710
     atom   30 type  2   force =    -0.00025388   -0.00008886    0.00023747
     atom   31 type  2   force =    -0.00055819   -0.00038066   -0.00119858
     atom   32 type  2   force =    -0.00004596   -0.00005418   -0.00012824
     atom   33 type  2   force =    -0.00000032    0.00109750   -0.00136724
     atom   34 type  2   force =    -0.00008301    0.00011984   -0.00006387
     atom   35 type  2   force =     0.00091883   -0.00070123   -0.00141517
     atom   36 type  2   force =    -0.00050254   -0.00046021    0.00125415
     atom   37 type  2   force =    -0.00014866    0.00002672   -0.00044198
     atom   38 type  2   force =    -0.00067758    0.00053021    0.00128564
     atom   39 type  2   force =    -0.00014364    0.00022437   -0.00011993
     atom   40 type  2   force =    -0.00004701   -0.00067014    0.00113374
     atom   41 type  2   force =     0.00005309   -0.00025010   -0.00016586
     atom   42 type  2   force =     0.00032626   -0.00042392    0.00110980
     atom   43 type  2   force =     0.00009432    0.00004043   -0.00032623
     atom   44 type  2   force =    -0.00007422    0.00024819    0.00104993
     atom   45 type  2   force =    -0.00000319    0.00034579   -0.00039366
     atom   46 type  2   force =     0.00095631    0.00055438    0.00131151
     atom   47 type  2   force =    -0.00000829   -0.00005173    0.00018606
     atom   48 type  2   force =    -0.00017122   -0.00134306    0.00149928
     atom   49 type  2   force =     0.00014240    0.00023091    0.00023787
     atom   50 type  2   force =     0.00031482    0.00044712    0.00126257
     atom   51 type  2   force =     0.00027611    0.00026488   -0.00006636
     atom   52 type  2   force =    -0.00107600    0.00044600    0.00136193
     atom   53 type  2   force =     0.00012866   -0.00000022    0.00011974
     The non-local contrib.  to forces
     atom    1 type  1   force =    -0.00039749   -0.00066979   -0.00001396
     atom    2 type  1   force =     0.03698329   -0.06465719    0.00207625
     atom    3 type  1   force =    -0.00014184    0.00022066    0.00184517
     atom    4 type  1   force =    -0.03829796    0.06594352    0.00159394
     atom    5 type  1   force =    -0.00060845   -0.00021387   -0.00006338
     atom    6 type  1   force =    -0.07445661   -0.00031590   -0.00208797
     atom    7 type  1   force =     0.00027794   -0.00002346   -0.00183069
     atom    8 type  1   force =    -0.03703822   -0.06415229   -0.00004201
     atom    9 type  1   force =     0.00048982    0.00086912   -0.00001763
     atom   10 type  1   force =     0.00116747    0.00038734    0.04545266
     atom   11 type  1   force =     0.00075191   -0.00005869   -0.00770251
     atom   12 type  1   force =     0.07629099   -0.00021078   -0.00159297
     atom   13 type  1   force =     0.00011663   -0.00065129    0.00010266
     atom   14 type  1   force =    -0.00022413    0.00116856   -0.04543794
     atom   15 type  1   force =    -0.00042898    0.00060642    0.00774019
     atom   16 type  1   force =     0.03882887    0.06724538   -0.00002549
     atom   17 type  1   force =    -0.00012525   -0.00018973    0.00000764
     atom   18 type  2   force =    -0.00019270   -0.00240828    0.26406373
     atom   19 type  2   force =    -0.00082890   -0.14497975    0.16892530
     atom   20 type  2   force =    -0.00193887    0.00091852    0.26377872
     atom   21 type  2   force =    -0.12600683    0.07152648    0.16847474
     atom   22 type  2   force =     0.00061312    0.00055548    0.25747007
     atom   23 type  2   force =    -0.03092221   -0.01819871    0.19367220
     atom   24 type  2   force =     0.00420614   -0.00242515    0.26966398
     atom   25 type  2   force =    -0.01011086    0.00579579    0.21102389
     atom   26 type  2   force =     0.00203727    0.00116475    0.26391101
     atom   27 type  2   force =     0.12562611    0.07223863    0.16815848
     atom   28 type  2   force =     0.00013736    0.00494625    0.26950594
     atom   29 type  2   force =     0.00016489   -0.01172770    0.21081393
     atom   30 type  2   force =    -0.00407559   -0.00253559    0.26966032
     atom   31 type  2   force =     0.01003922    0.00557124    0.21127151
     atom   32 type  2   force =    -0.00000386   -0.00082692    0.25748971
     atom   33 type  2   force =    -0.00015484    0.03500221    0.19397568
     atom   34 type  2   force =    -0.00074130    0.00065033    0.25759262
     atom   35 type  2   force =     0.03063767   -0.01816303    0.19380280
     atom   36 type  2   force =    -0.12514845   -0.07318246   -0.16898564
     atom   37 type  2   force =    -0.00199141   -0.00136937   -0.26402383
     atom   38 type  2   force =     0.01006935   -0.00585818   -0.21106877
     atom   39 type  2   force =    -0.00419819    0.00242173   -0.26961732
     atom   40 type  2   force =    -0.00019877    0.01149145   -0.21130804
     atom   41 type  2   force =    -0.00015601   -0.00478701   -0.26961444
     atom   42 type  2   force =     0.12494986   -0.07336129   -0.16851561
     atom   43 type  2   force =     0.00176734   -0.00122343   -0.26374001
     atom   44 type  2   force =    -0.00027574    0.14490125   -0.16821887
     atom   45 type  2   force =    -0.00001450    0.00234597   -0.26386794
     atom   46 type  2   force =     0.03038747    0.01737510   -0.19401445
     atom   47 type  2   force =    -0.00070001   -0.00040699   -0.25745557
     atom   48 type  2   force =    -0.00030787   -0.03588749   -0.19371467
     atom   49 type  2   force =     0.00017632    0.00079429   -0.25744387
     atom   50 type  2   force =    -0.01024109   -0.00572331   -0.21084824
     atom   51 type  2   force =     0.00421365    0.00258554   -0.26945708
     atom   52 type  2   force =    -0.03107661    0.01746782   -0.19384175
     atom   53 type  2   force =     0.00091938   -0.00030527   -0.25755915
     The ionic contribution  to forces
     atom    1 type  1   force =     0.00833438    0.01376851    0.00132441
     atom    2 type  1   force =     0.79135237   -1.31081739   -0.08533398
     atom    3 type  1   force =     0.30413168   -0.51534490   -0.09380101
     atom    4 type  1   force =    -0.72260549    1.28507373   -0.06518275
     atom    5 type  1   force =    -0.28714336    0.51530850    0.00899644
     atom    6 type  1   force =    -1.53163375    0.02981399    0.08535165
     atom    7 type  1   force =    -0.59894661    0.00584322    0.09381162
     atom    8 type  1   force =    -0.76653000   -1.32771018    0.00126520
     atom    9 type  1   force =    -0.30278875   -0.52496151    0.00109896
     atom   10 type  1   force =    -0.02165681   -0.02355162   -0.87785684
     atom   11 type  1   force =    -0.00767548   -0.00304106    0.17622461
     atom   12 type  1   force =     1.47353375    0.01668153    0.06472421
     atom   13 type  1   force =     0.58988201    0.00921901   -0.01023534
     atom   14 type  1   force =    -0.01013702   -0.02943223    0.87657207
     atom   15 type  1   force =     0.00123824   -0.00771830   -0.17747147
     atom   16 type  1   force =     0.70881336    1.22776067    0.00065034
     atom   17 type  1   force =     0.29452676    0.50955989   -0.00016925
     atom   18 type  2   force =    -0.08138495    1.23268332  -16.45896892
     atom   19 type  2   force =     0.00079581    9.56692610   -9.76200367
     atom   20 type  2   force =     1.10372113   -0.64446135  -16.48150692
     atom   21 type  2   force =     8.34226905   -4.74622196   -9.70708190
     atom   22 type  2   force =     0.03560347    0.01948190  -15.40149187
[...]
     atom   41 type  2   force =     0.00017977   -0.00002732    0.00562333
     atom   42 type  2   force =    -0.00266537    0.00131402    0.00368870
     atom   43 type  2   force =    -0.00005617    0.00003427    0.00560753
     atom   44 type  2   force =    -0.00010813   -0.00316391    0.00368229
     atom   45 type  2   force =    -0.00013539    0.00008059    0.00558798
     atom   46 type  2   force =    -0.00081777   -0.00051489    0.00418685
     atom   47 type  2   force =     0.00005570   -0.00012620    0.00544721
     atom   48 type  2   force =    -0.00011934    0.00075469    0.00421821
     atom   49 type  2   force =     0.00008535    0.00004526    0.00547634
     atom   50 type  2   force =     0.00033254    0.00027047    0.00474627
     atom   51 type  2   force =     0.00000833   -0.00001574    0.00564761
     atom   52 type  2   force =     0.00072641   -0.00060711    0.00418521
     atom   53 type  2   force =    -0.00014871   -0.00005580    0.00545130
     The Hubbard contrib.    to forces
     atom    1 type  1   force =     0.00000000    0.00000000    0.00000000
     atom    2 type  1   force =     0.00000000    0.00000000    0.00000000
     atom    3 type  1   force =     0.00000000    0.00000000    0.00000000
     atom    4 type  1   force =     0.00000000    0.00000000    0.00000000
     atom    5 type  1   force =     0.00000000    0.00000000    0.00000000
     atom    6 type  1   force =     0.00000000    0.00000000    0.00000000
     atom    7 type  1   force =     0.00000000    0.00000000    0.00000000
     atom    8 type  1   force =     0.00000000    0.00000000    0.00000000
     atom    9 type  1   force =     0.00000000    0.00000000    0.00000000
     atom   10 type  1   force =     0.00000000    0.00000000    0.00000000
     atom   11 type  1   force =     0.00000000    0.00000000    0.00000000
     atom   12 type  1   force =     0.00000000    0.00000000    0.00000000
     atom   13 type  1   force =     0.00000000    0.00000000    0.00000000
     atom   14 type  1   force =     0.00000000    0.00000000    0.00000000
     atom   15 type  1   force =     0.00000000    0.00000000    0.00000000
     atom   16 type  1   force =     0.00000000    0.00000000    0.00000000
     atom   17 type  1   force =     0.00000000    0.00000000    0.00000000
     atom   18 type  2   force =     0.00000000    0.00000000    0.00000000
     atom   19 type  2   force =     0.00000000    0.00000000    0.00000000
     atom   20 type  2   force =     0.00000000    0.00000000    0.00000000
     atom   21 type  2   force =     0.00000000    0.00000000    0.00000000
     atom   22 type  2   force =     0.00000000    0.00000000    0.00000000
     atom   23 type  2   force =     0.00000000    0.00000000    0.00000000
     atom   24 type  2   force =     0.00000000    0.00000000    0.00000000
     atom   25 type  2   force =     0.00000000    0.00000000    0.00000000
     atom   26 type  2   force =     0.00000000    0.00000000    0.00000000
     atom   27 type  2   force =     0.00000000    0.00000000    0.00000000
     atom   28 type  2   force =     0.00000000    0.00000000    0.00000000
     atom   29 type  2   force =     0.00000000    0.00000000    0.00000000
     atom   30 type  2   force =     0.00000000    0.00000000    0.00000000
     atom   31 type  2   force =     0.00000000    0.00000000    0.00000000
     atom   32 type  2   force =     0.00000000    0.00000000    0.00000000
     atom   33 type  2   force =     0.00000000    0.00000000    0.00000000
     atom   34 type  2   force =     0.00000000    0.00000000    0.00000000
     atom   35 type  2   force =     0.00000000    0.00000000    0.00000000
     atom   36 type  2   force =     0.00000000    0.00000000    0.00000000
     atom   37 type  2   force =     0.00000000    0.00000000    0.00000000
     atom   38 type  2   force =     0.00000000    0.00000000    0.00000000
     atom   39 type  2   force =     0.00000000    0.00000000    0.00000000
     atom   40 type  2   force =     0.00000000    0.00000000    0.00000000
     atom   41 type  2   force =     0.00000000    0.00000000    0.00000000
     atom   42 type  2   force =     0.00000000    0.00000000    0.00000000
     atom   43 type  2   force =     0.00000000    0.00000000    0.00000000
     atom   44 type  2   force =     0.00000000    0.00000000    0.00000000
     atom   45 type  2   force =     0.00000000    0.00000000    0.00000000
     atom   46 type  2   force =     0.00000000    0.00000000    0.00000000
     atom   47 type  2   force =     0.00000000    0.00000000    0.00000000
     atom   48 type  2   force =     0.00000000    0.00000000    0.00000000
     atom   49 type  2   force =     0.00000000    0.00000000    0.00000000
     atom   50 type  2   force =     0.00000000    0.00000000    0.00000000
     atom   51 type  2   force =     0.00000000    0.00000000    0.00000000
     atom   52 type  2   force =     0.00000000    0.00000000    0.00000000
     atom   53 type  2   force =     0.00000000    0.00000000    0.00000000
     The SCF correction term to forces
     atom    1 type  1   force =    -0.00000235   -0.00000410   -0.00000138
     atom    2 type  1   force =     0.00000202   -0.00000316    0.00000015
     atom    3 type  1   force =    -0.00000533    0.00000259   -0.00000054
     atom    4 type  1   force =    -0.00000273    0.00000170    0.00000177
     atom    5 type  1   force =     0.00000103   -0.00000239   -0.00000221
     atom    6 type  1   force =    -0.00000432    0.00000060    0.00000305
     atom    7 type  1   force =     0.00000478   -0.00000345    0.00000013
     atom    8 type  1   force =    -0.00000147   -0.00000337    0.00000171
     atom    9 type  1   force =     0.00000187    0.00000307   -0.00000021
     atom   10 type  1   force =     0.00000183   -0.00000016    0.00001006
     atom   11 type  1   force =    -0.00000167    0.00000315    0.00001207
     atom   12 type  1   force =     0.00000328   -0.00000145    0.00000104
     atom   13 type  1   force =    -0.00000216    0.00000015    0.00000192
     atom   14 type  1   force =    -0.00000105    0.00000120   -0.00000931
     atom   15 type  1   force =     0.00000393    0.00000074   -0.00000979
     atom   16 type  1   force =     0.00000095    0.00000163    0.00000124
     atom   17 type  1   force =     0.00000035    0.00000018   -0.00000039
     atom   18 type  2   force =    -0.00000012   -0.00000269    0.00002340
     atom   19 type  2   force =    -0.00000264   -0.00000050   -0.00000615
     atom   20 type  2   force =    -0.00000375   -0.00000165    0.00002499
     atom   21 type  2   force =    -0.00000188   -0.00000136   -0.00000902
     atom   22 type  2   force =    -0.00000645   -0.00000306    0.00001219
     atom   23 type  2   force =     0.00000155    0.00000397   -0.00001215
     atom   24 type  2   force =    -0.00000070   -0.00000275    0.00001519
     atom   25 type  2   force =    -0.00000421    0.00000085   -0.00000874
     atom   26 type  2   force =    -0.00000045   -0.00000410    0.00002010
     atom   27 type  2   force =     0.00000137    0.00000060   -0.00000686
     atom   28 type  2   force =    -0.00000396    0.00000255    0.00001195
     atom   29 type  2   force =    -0.00000055   -0.00000373   -0.00000678
     atom   30 type  2   force =     0.00000062    0.00000048    0.00001457
     atom   31 type  2   force =     0.00000594    0.00000156   -0.00000763
     atom   32 type  2   force =     0.00000310    0.00000451    0.00001160
     atom   33 type  2   force =     0.00000154   -0.00000221   -0.00001292
     atom   34 type  2   force =     0.00000841    0.00000034    0.00000767
     atom   35 type  2   force =    -0.00000023    0.00000555   -0.00000958
     atom   36 type  2   force =     0.00000367   -0.00000076    0.00000847
     atom   37 type  2   force =    -0.00000376   -0.00000198   -0.00002731
     atom   38 type  2   force =     0.00000307   -0.00000369    0.00001210
     atom   39 type  2   force =    -0.00000365   -0.00000064   -0.00001613
     atom   40 type  2   force =    -0.00000169    0.00000666    0.00001137
     atom   41 type  2   force =     0.00000072   -0.00000178   -0.00001595
     atom   42 type  2   force =    -0.00000209   -0.00000051    0.00001044
     atom   43 type  2   force =     0.00000203   -0.00000480   -0.00002913
     atom   44 type  2   force =     0.00000020   -0.00000091    0.00000971
     atom   45 type  2   force =    -0.00000340   -0.00000007   -0.00002445
     atom   46 type  2   force =    -0.00000441   -0.00000045    0.00001406
     atom   47 type  2   force =     0.00000171    0.00000453   -0.00001358
     atom   48 type  2   force =     0.00000285    0.00000533    0.00001368
     atom   49 type  2   force =     0.00000066   -0.00000648   -0.00001423
     atom   50 type  2   force =    -0.00000378   -0.00000319    0.00001096
     atom   51 type  2   force =     0.00000574   -0.00000101   -0.00001259
     atom   52 type  2   force =     0.00000643    0.00000206    0.00001183
     atom   53 type  2   force =    -0.00000335    0.00000710   -0.00000966

     Total force =     0.004201     Total SCF correction =     0.000096


     Computing stress (Cartesian axis) and pressure



     -----------------------------------------------
     Non-local corr. energy    =      25.64384193 Ry
     -----------------------------------------------

          total   stress  (Ry/bohr**3)                   (kbar)     P=       13.47
   0.00009046   0.00000006  -0.00000014           13.31        0.01       -0.02
   0.00000006   0.00009053   0.00000008            0.01       13.32        0.01
  -0.00000014   0.00000008   0.00009379           -0.02        0.01       13.80

     kinetic stress (kbar)  14631.56     -0.00     -0.01
                               -0.00  14631.55      0.01
                               -0.01      0.01  14642.29

     local   stress (kbar)  -7373.82     -3.31      2.34
                               -3.31  -7377.54     -1.32
                                2.34     -1.32    661.36

     nonloc. stress (kbar)   -919.36      0.01     -0.01
                                0.01   -919.35      0.01
                               -0.01      0.01   -923.71

     hartree stress (kbar)  11884.16      1.41     -0.95
                                1.41  11885.74      0.54
                               -0.95      0.54   8259.38

     exc-cor stress (kbar)   6857.97      0.00     -0.00
                                0.00   6857.98      0.00
                               -0.00      0.00   6857.05

     corecor stress (kbar) -11162.01     -0.00      0.00
                               -0.00 -11162.01     -0.00
                                0.00     -0.00 -11161.96

     ewald   stress (kbar) -13987.76      1.90     -1.39
                                1.90 -13985.62      0.78
                               -1.39      0.78 -18404.30

     hubbard stress (kbar)      0.00      0.00      0.00
                                0.00      0.00      0.00
                                0.00      0.00      0.00

     DFT-D   stress (kbar)      0.00      0.00      0.00
                                0.00      0.00      0.00
                                0.00      0.00      0.00

     XDM     stress (kbar)      0.00      0.00      0.00
                                0.00      0.00      0.00
                                0.00      0.00      0.00

     dft-nl  stress (kbar)     82.56     -0.00      0.00
                               -0.00     82.56     -0.00
                                0.00     -0.00     83.69

     TS-vdW  stress (kbar)      0.00      0.00      0.00
                                0.00      0.00      0.00
                                0.00      0.00      0.00

     MDB     stress (kbar)      0.00      0.00      0.00
                                0.00      0.00      0.00
                                0.00      0.00      0.00

     3D-RISM stress (kbar)      0.00      0.00      0.00
                                0.00      0.00      0.00
                                0.00      0.00      0.00

     Energy error            =      3.3E-05 Ry
     Gradient error          =      9.8E-04 Ry/Bohr

     bfgs converged in   9 scf cycles and   8 bfgs steps
     (criteria: energy <  1.0E-04 Ry, force <  1.0E-03 Ry/Bohr)

     End of BFGS Geometry Optimization

     Final energy             =  -35528.3166948928 Ry

     File ./PbI2.bfgs deleted, as requested
Begin final coordinates

ATOMIC_POSITIONS (angstrom)
Pb            2.3575112356        4.0828695603        7.3777794442
Pb            0.0748650558        8.0324121905       14.7532446729
Pb            0.0040408072        8.1566720413        7.3742773230
Pb           -2.4267711996       12.3664933326       14.7537590952
Pb           -2.3558259662       12.2467979023        7.3778387599
Pb            6.9192204449        4.0807871327       14.7573257758
Pb            7.0622081460        4.0816291451        7.3811733648
Pb            4.6368168291        8.0306706350       14.7553124776
Pb            4.7086989912        8.1552561329        7.3777559722
Pb            2.3550373283       12.2403659215       14.8296768125
Pb            2.3550931662       12.2419426616        7.3702906173
Pb           11.9234620599        4.0813477219       14.7567984627
Pb           11.7843169666        4.0829977847        7.3775701439
Pb            9.4233814910        8.1594719591       14.6808462771
Pb            9.4246604295        8.1603558957        7.3850930022
Pb            7.1391770617       12.3648903806       14.7552965744
Pb            7.0709156881       12.2467182068        7.3777121334
I             2.3604531284        1.3661267670        5.4978185295
I             2.3517992479        1.3205194639       12.8932832774
I             0.0048156401        5.4375379579        5.4949017369
I            -0.0322182974        5.4499582749       12.8941967273
I            -2.3511104337        9.5272764178        5.4971729063
I            -2.3826668819        9.5001409575       12.8680136307
I             7.0700152176        1.3653090147        5.5055427228
I             7.0651044856        1.3683555940       12.8419293149
I             4.7148605065        5.4375771579        5.4964867393
I             4.7362338328        5.4501992721       12.8955786184
I             2.3583230706        9.5265967932        5.5036727128
I             2.3589819108        9.5165621652       12.8419911558
I            11.7728446323        1.3618092864        5.5064256544
I            11.7781221474        1.3650509816       12.8445961068
I             9.4186678108        5.4340112721        5.4984886479
I             9.4196028644        5.4637867646       12.8715983836
I             7.0632502440        9.5210023386        5.4997920040
I             7.0887628652        9.4998362347       12.8707664044
I            -0.0320015355        2.6967912226        1.8618684046
I             0.0031680540        2.7270054652        9.2576494183
I            -2.3472234182        6.8025598764        1.9131562342
I            -2.3523187132        6.8052933009        9.2499206436
I            -4.7063783522       10.8823667082        1.9105322812
I            -4.7066293908       10.8762653411        9.2490482942
I             4.7361996848        2.6969069742        1.8609296555
I             4.7071249440        2.7225235012        9.2606066839
I             2.3522039096        6.8266495019        1.8595997897
I             2.3519375345        6.8018234778        9.2590256775
I             0.0223364991       10.8893662332        1.8834657245
I            -0.0030153344       10.8736817283        9.2569375410
I             9.4189979061        2.6863748226        1.8870249775
I             9.4267761402        2.7272586180        9.2582087335
I             7.0627838957        6.8009705073        1.9131283223
I             7.0716763476        6.8054599896        9.2518199255
I             4.6830079007       10.8887980740        1.8843387764
I             4.7141567173       10.8773520224        9.2556248244
End final coordinates



     Writing all to output data dir ./PbI2.save/
 
     init_run     :      9.74s CPU     10.29s WALL (       1 calls)
     electrons    :   7064.68s CPU   7198.94s WALL (       9 calls)
     update_pot   :     13.99s CPU     14.15s WALL (       8 calls)
     forces       :     50.26s CPU     51.40s WALL (       9 calls)
     stress       :    661.26s CPU    666.56s WALL (       9 calls)

     Called by init_run:
     wfcinit      :      6.95s CPU      7.21s WALL (       1 calls)
     wfcinit:atom :      0.06s CPU      0.08s WALL (       2 calls)
     wfcinit:wfcr :      6.49s CPU      6.61s WALL (       2 calls)
     potinit      :      1.00s CPU      1.19s WALL (       1 calls)
     hinit0       :      0.65s CPU      0.69s WALL (       1 calls)

     Called by electrons:
     c_bands      :   6764.55s CPU   6892.74s WALL (      90 calls)
     sum_band     :    219.37s CPU    222.24s WALL (      90 calls)
     v_of_rho     :     52.53s CPU     53.25s WALL (      91 calls)
     v_h          :      0.54s CPU      0.54s WALL (      91 calls)
     v_xc         :     61.86s CPU     62.94s WALL (     109 calls)
     newd         :     16.26s CPU     16.47s WALL (      91 calls)
     PAW_pot      :     17.93s CPU     18.20s WALL (      99 calls)
     mix_rho      :      1.87s CPU      1.98s WALL (      90 calls)
     vdW_kernel   :      0.25s CPU      0.26s WALL (       1 calls)

     Called by c_bands:
     init_us_2    :     13.90s CPU     14.12s WALL (     414 calls)
     init_us_2:cp :     13.89s CPU     14.12s WALL (     414 calls)
     cegterg      :   6646.12s CPU   6724.52s WALL (     182 calls)

     Called by sum_band:
     sum_band:wei :      0.09s CPU      0.10s WALL (      90 calls)
     sum_band:loo :    194.07s CPU    196.02s WALL (      90 calls)
     sum_band:buf :      5.03s CPU      5.11s WALL (     180 calls)
     sum_band:ini :      7.47s CPU      7.56s WALL (     180 calls)
     sum_band:cal :     80.24s CPU     80.86s WALL (     196 calls)
     sum_band:bec :      1.19s CPU      1.21s WALL (     196 calls)
     addusdens    :     19.77s CPU     20.23s WALL (      90 calls)
     addusd:skk   :      0.45s CPU      0.46s WALL (     180 calls)
     addusd:dgemm :     12.26s CPU     12.63s WALL (     180 calls)
     addusd:qvan2 :      6.37s CPU      6.43s WALL (     180 calls)

     Called by *egterg:
     cdiaghg      :   4179.02s CPU   4200.42s WALL (    2135 calls)
     cegterg:over :    497.85s CPU    509.65s WALL (    1987 calls)
     cegterg:upda :    315.62s CPU    323.26s WALL (    1987 calls)
     cegterg:last :    120.94s CPU    121.76s WALL (     186 calls)
     h_psi        :   1137.91s CPU   1157.36s WALL (    2171 calls)
     s_psi        :    232.95s CPU    234.65s WALL (    2171 calls)
     g_psi        :      1.80s CPU      1.82s WALL (    1987 calls)

     Called by h_psi:
     h_psi:calbec :    255.18s CPU    257.25s WALL (    2171 calls)
     vloc_psi     :    639.76s CPU    647.07s WALL (    2171 calls)
     add_vuspsi   :    232.60s CPU    234.39s WALL (    2171 calls)

     General routines
     calbec       :    384.36s CPU    387.41s WALL (    2457 calls)
     fft          :     35.38s CPU     35.83s WALL (    7252 calls)
     ffts         :      0.56s CPU      0.57s WALL (     181 calls)
     fftw         :    694.36s CPU    701.98s WALL (  655016 calls)
     interpolate  :      0.74s CPU      0.75s WALL (      91 calls)
 
     Parallel routines

     PAW routines
     PAW_pot      :     17.93s CPU     18.20s WALL (      99 calls)
 
     PWSCF        :      2h10m CPU      2h12m WALL

 
   This run was terminated on:  12: 7:32  11Feb2024            

=------------------------------------------------------------------------------=
   JOB DONE.
=------------------------------------------------------------------------------=
