
     Program PWSCF v.7.1 starts on 27Mar2024 at 19:55:24 

     This program is part of the open-source Quantum ESPRESSO suite
     for quantum simulation of materials; please cite
         "P. Giannozzi et al., J. Phys.:Condens. Matter 21 395502 (2009);
         "P. Giannozzi et al., J. Phys.:Condens. Matter 29 465901 (2017);
         "P. Giannozzi et al., J. Chem. Phys. 152 154105 (2020);
          URL http://www.quantum-espresso.org", 
     in publications or presentations arising from this work. More details at
     http://www.quantum-espresso.org/quote

     Parallel version (MPI & OpenMP), running on      27 processor cores
     Number of MPI processes:                27
     Threads/MPI process:                     1

     MPI processes distributed on     1 nodes
     1965076 MiB available memory on the printing compute node when the environment starts
 
     Reading input from espresso.pwi
Warning: card &CELL ignored
Warning: card    CELL_DYNAMICS    = 'BFGS' ignored
Warning: card / ignored

     Current dimensions of program PWSCF are:
     Max number of different atomic species (ntypx) = 10
     Max number of k-points (npk) =  40000
     Max angular momentum in pseudopotentials (lmaxx) =  4
     file Ga.pbe-dn-kjpaw_psl.1.0.0.UPF: wavefunction(s)  4S renormalized
     file N.pbe-n-kjpaw_psl.1.0.0.UPF: wavefunction(s)  2S renormalized

     **************************************************************************
     Initializing libbeef V0.1.2 with the BEEF-vdW functional.
     Citation: Wellendorff et al., PRB 85, 235149 (2012).
     **************************************************************************


     IMPORTANT: XC functional enforced from input :
     Exchange-correlation= BEEF-VDW
                           (   1   4  43  14   2   0   0)
     Any further DFT definition will be discarded
     Please, verify this is what you really want

 
     R & G space division:  proc/nbgrp/npool/nimage =      27
     Subspace diagonalization in iterative solution of the eigenvalue problem:
     a serial algorithm will be used

 
     Parallelization info
     --------------------
     sticks:   dense  smooth     PW     G-vecs:    dense   smooth      PW
     Min         134     107     28                10662     7629    1068
     Max         135     108     29                10667     7636    1077
     Sum        3643    2905    769               287969   206075   28939
 
     Using Slab Decomposition
 


     bravais-lattice index     =            4
     lattice parameter (alat)  =      12.2626  a.u.
     unit-cell volume          =    2602.7676 (a.u.)^3
     number of atoms/cell      =           31
     number of atomic types    =            2
     number of electrons       =       275.00
     number of Kohn-Sham states=          166
     kinetic-energy cutoff     =      70.0000  Ry
     charge density cutoff     =     350.0000  Ry
     scf convergence threshold =      1.0E-07
     mixing beta               =       0.7000
     number of iterations used =            8  plain     mixing
     energy convergence thresh.=      1.0E-04
     force convergence thresh. =      1.0E-03
     Exchange-correlation= BEEF-VDW
                           (   1   4  43  14   2   0   0)
     nstep                     =           50


     celldm(1)=  12.262616  celldm(2)=   0.000000  celldm(3)=   1.629879
     celldm(4)=   0.000000  celldm(5)=   0.000000  celldm(6)=   0.000000

     crystal axes: (cart. coord. in units of alat)
               a(1) = (   1.000000   0.000000   0.000000 )  
               a(2) = (  -0.500000   0.866025   0.000000 )  
               a(3) = (   0.000000   0.000000   1.629879 )  

     reciprocal axes: (cart. coord. in units 2 pi/alat)
               b(1) = (  1.000000  0.577350 -0.000000 )  
               b(2) = (  0.000000  1.154701  0.000000 )  
               b(3) = (  0.000000 -0.000000  0.613542 )  


     PseudoPot. # 1 for Ga read from file:
     /trace/group/acmegroup/atimmins/packages/espresso/pseudo/psl_1.0.0/pslibrary.1.0.0/pbe/PSEUDOPOTENTIALS/Ga.pbe-dn-kjpaw_psl.1.0.0.UPF
     MD5 check sum: cd2a01e492f15b435d17032472d8505c
     Pseudo is Projector augmented-wave + core cor, Zval = 13.0
     Generated using 'atomic' code by A. Dal Corso  v.7.1
     Shape of augmentation charge: PSQ
     Using radial grid of 1205 points,  6 beta functions with: 
                l(1) =   0
                l(2) =   0
                l(3) =   1
                l(4) =   1
                l(5) =   2
                l(6) =   2
     Q(r) pseudized with 0 coefficients 


     PseudoPot. # 2 for N  read from file:
     /trace/group/acmegroup/atimmins/packages/espresso/pseudo/psl_1.0.0/pslibrary.1.0.0/pbe/PSEUDOPOTENTIALS/N.pbe-n-kjpaw_psl.1.0.0.UPF
     MD5 check sum: f77f775694dac7e2c3fe1c82443d1a16
     Pseudo is Projector augmented-wave + core cor, Zval =  5.0
     Generated using 'atomic' code by A. Dal Corso  v.7.1
     Shape of augmentation charge: PSQ
     Using radial grid of 1085 points,  4 beta functions with: 
                l(1) =   0
                l(2) =   0
                l(3) =   1
                l(4) =   1
     Q(r) pseudized with 0 coefficients 


     atomic species   valence    mass     pseudopotential
        Ga            13.00    69.72300     Ga( 1.00)
        N              5.00    14.00700     N ( 1.00)

      6 Sym. Ops. (no inversion) found ( 4 have fractional translation)


                                    s                        frac. trans.

      isym =  1     identity                                     

 cryst.   s( 1) = (     1          0          0      )
                  (     0          1          0      )
                  (     0          0          1      )

 cart.    s( 1) = (  1.0000000  0.0000000  0.0000000 )
                  (  0.0000000  1.0000000  0.0000000 )
                  (  0.0000000  0.0000000  1.0000000 )


      isym =  2     120 deg rotation - cryst. axis [0,0,1]       

 cryst.   s( 2) = (     0          1          0      )    f =(  0.4999999 )
                  (    -1         -1          0      )       (  0.0000004 )
                  (     0          0          1      )       (  0.0000000 )

 cart.    s( 2) = ( -0.5000000 -0.8660254  0.0000000 )    f =(  0.4999998 )
                  (  0.8660254 -0.5000000  0.0000000 )       (  0.0000003 )
                  (  0.0000000  0.0000000  1.0000000 )       (  0.0000000 )


      isym =  3     120 deg rotation - cryst. axis [0,0,-1]      

 cryst.   s( 3) = (    -1         -1          0      )    f =(  0.4999996 )
                  (     1          0          0      )       (  0.4999999 )
                  (     0          0          1      )       (  0.0000000 )

 cart.    s( 3) = ( -0.5000000  0.8660254  0.0000000 )    f =(  0.2499996 )
                  ( -0.8660254 -0.5000000  0.0000000 )       (  0.4330127 )
                  (  0.0000000  0.0000000  1.0000000 )       (  0.0000000 )


      isym =  4     inv. 180 deg rotation - cart. axis [1,0,0]   

 cryst.   s( 4) = (    -1          0          0      )    f =(  0.4999996 )
                  (     1          1          0      )       (  0.0000000 )
                  (     0          0          1      )       (  0.0000000 )

 cart.    s( 4) = ( -1.0000000  0.0000000  0.0000000 )    f =(  0.4999996 )
                  (  0.0000000  1.0000000  0.0000000 )       (  0.0000000 )
                  (  0.0000000  0.0000000  1.0000000 )       (  0.0000000 )


      isym =  5     inv. 180 deg rotation - cryst. axis [0,1,0]  

 cryst.   s( 5) = (     1          1          0      )
                  (     0         -1          0      )
                  (     0          0          1      )

 cart.    s( 5) = (  0.5000000  0.8660254  0.0000000 )
                  (  0.8660254 -0.5000000  0.0000000 )
                  (  0.0000000  0.0000000  1.0000000 )


      isym =  6     inv. 180 deg rotation - cryst. axis [1,1,0]  

 cryst.   s( 6) = (     0         -1          0      )    f =(  0.4999999 )
                  (    -1          0          0      )       (  0.4999999 )
                  (     0          0          1      )       (  0.0000000 )

 cart.    s( 6) = (  0.5000000 -0.8660254  0.0000000 )    f =(  0.2500000 )
                  ( -0.8660254 -0.5000000  0.0000000 )       (  0.4330127 )
                  (  0.0000000  0.0000000  1.0000000 )       (  0.0000000 )


     point group C_3v (3m)  
     there are  3 classes
     the character table:

       E     2C3   3s_v 
A_1    1.00  1.00  1.00
A_2    1.00  1.00 -1.00
E      2.00 -1.00  0.00

     the symmetry operations in each class and the name of the first element:

     E        1
          identity                                               
     2C3      2    3
          120 deg rotation - cryst. axis [0,0,1]                 
     3s_v     4    5    6
          inv. 180 deg rotation - cart. axis [1,0,0]             

   Cartesian axes

     site n.     atom                  positions (alat units)
         1           Ga  tau(   1) = (   0.2500002   0.1443375   1.2217266  )
         2           Ga  tau(   2) = (   0.0000002   0.5773502   0.4067871  )
         3           Ga  tau(   3) = (   0.0000002   0.5773502   1.2217266  )
         4           Ga  tau(   4) = (   0.7500002   0.1443375   0.4067871  )
         5           Ga  tau(   5) = (   0.7500002   0.1443375   1.2217266  )
         6           Ga  tau(   6) = (   0.5000002   0.5773502   0.4067871  )
         7           Ga  tau(   7) = (   0.5000002   0.5773502   1.2217266  )
         8           Ga  tau(   8) = (  -0.0000003   0.2886754   0.8142568  )
         9           Ga  tau(   9) = (  -0.0000003   0.2886754   1.6291964  )
        10           Ga  tau(  10) = (  -0.2500003   0.7216881   0.8142568  )
        11           Ga  tau(  11) = (  -0.2500003   0.7216881   1.6291964  )
        12           Ga  tau(  12) = (   0.4999997   0.2886754   0.8142568  )
        13           Ga  tau(  13) = (   0.4999997   0.2886754   1.6291964  )
        14           Ga  tau(  14) = (   0.2499997   0.7216881   0.8142568  )
        15           Ga  tau(  15) = (   0.2499997   0.7216881   1.6291964  )
        16           N   tau(  16) = (   0.2500002   0.1443375   0.7137548  )
        17           N   tau(  17) = (   0.2500002   0.1443375   1.5286943  )
        18           N   tau(  18) = (   0.0000002   0.5773502   0.7137548  )
        19           N   tau(  19) = (   0.0000002   0.5773502   1.5286943  )
        20           N   tau(  20) = (   0.7500002   0.1443375   0.7137548  )
        21           N   tau(  21) = (   0.7500002   0.1443375   1.5286943  )
        22           N   tau(  22) = (   0.5000002   0.5773502   0.7137548  )
        23           N   tau(  23) = (   0.5000002   0.5773502   1.5286943  )
        24           N   tau(  24) = (  -0.0000003   0.2886754   0.3062850  )
        25           N   tau(  25) = (  -0.0000003   0.2886754   1.1212245  )
        26           N   tau(  26) = (  -0.2500003   0.7216881   0.3062850  )
        27           N   tau(  27) = (  -0.2500003   0.7216881   1.1212245  )
        28           N   tau(  28) = (   0.4999997   0.2886754   0.3062850  )
        29           N   tau(  29) = (   0.4999997   0.2886754   1.1212245  )
        30           N   tau(  30) = (   0.2499997   0.7216881   0.3062850  )
        31           N   tau(  31) = (   0.2499997   0.7216881   1.1212245  )

   Crystallographic axes

     site n.     atom                  positions (cryst. coord.)
         1           Ga  tau(   1) = (  0.3333335  0.1666666  0.7495811  )
         2           Ga  tau(   2) = (  0.3333335  0.6666666  0.2495811  )
         3           Ga  tau(   3) = (  0.3333335  0.6666666  0.7495811  )
         4           Ga  tau(   4) = (  0.8333335  0.1666666  0.2495811  )
         5           Ga  tau(   5) = (  0.8333335  0.1666666  0.7495811  )
         6           Ga  tau(   6) = (  0.8333335  0.6666666  0.2495811  )
         7           Ga  tau(   7) = (  0.8333335  0.6666666  0.7495811  )
         8           Ga  tau(   8) = (  0.1666665  0.3333336  0.4995811  )
         9           Ga  tau(   9) = (  0.1666665  0.3333336  0.9995811  )
        10           Ga  tau(  10) = (  0.1666665  0.8333336  0.4995811  )
        11           Ga  tau(  11) = (  0.1666665  0.8333336  0.9995811  )
        12           Ga  tau(  12) = (  0.6666665  0.3333336  0.4995811  )
        13           Ga  tau(  13) = (  0.6666665  0.3333336  0.9995811  )
        14           Ga  tau(  14) = (  0.6666665  0.8333336  0.4995811  )
        15           Ga  tau(  15) = (  0.6666665  0.8333336  0.9995811  )
        16           N   tau(  16) = (  0.3333335  0.1666666  0.4379189  )
        17           N   tau(  17) = (  0.3333335  0.1666666  0.9379189  )
        18           N   tau(  18) = (  0.3333335  0.6666666  0.4379189  )
        19           N   tau(  19) = (  0.3333335  0.6666666  0.9379189  )
        20           N   tau(  20) = (  0.8333335  0.1666666  0.4379189  )
        21           N   tau(  21) = (  0.8333335  0.1666666  0.9379189  )
        22           N   tau(  22) = (  0.8333335  0.6666666  0.4379189  )
        23           N   tau(  23) = (  0.8333335  0.6666666  0.9379189  )
        24           N   tau(  24) = (  0.1666665  0.3333336  0.1879189  )
        25           N   tau(  25) = (  0.1666665  0.3333336  0.6879189  )
        26           N   tau(  26) = (  0.1666665  0.8333336  0.1879189  )
        27           N   tau(  27) = (  0.1666665  0.8333336  0.6879189  )
        28           N   tau(  28) = (  0.6666665  0.3333336  0.1879189  )
        29           N   tau(  29) = (  0.6666665  0.3333336  0.6879189  )
        30           N   tau(  30) = (  0.6666665  0.8333336  0.1879189  )
        31           N   tau(  31) = (  0.6666665  0.8333336  0.6879189  )

     number of k points=     8  Gaussian smearing, width (Ry)=  0.0100
                       cart. coord. in units 2pi/alat
        k(    1) = (   0.0000000   0.0000000   0.0000000), wk =   0.0625000
        k(    2) = (   0.0000000   0.0000000  -0.3067712), wk =   0.0625000
        k(    3) = (   0.0000000   0.2886751   0.0000000), wk =   0.3750000
        k(    4) = (   0.0000000   0.2886751  -0.3067712), wk =   0.3750000
        k(    5) = (   0.0000000  -0.5773503   0.0000000), wk =   0.1875000
        k(    6) = (   0.0000000  -0.5773503  -0.3067712), wk =   0.1875000
        k(    7) = (   0.2500000   0.4330127   0.0000000), wk =   0.3750000
        k(    8) = (   0.2500000   0.4330127  -0.3067712), wk =   0.3750000

                       cryst. coord.
        k(    1) = (   0.0000000   0.0000000   0.0000000), wk =   0.0625000
        k(    2) = (   0.0000000   0.0000000  -0.5000000), wk =   0.0625000
        k(    3) = (   0.0000000   0.2500000   0.0000000), wk =   0.3750000
        k(    4) = (   0.0000000   0.2500000  -0.5000000), wk =   0.3750000
        k(    5) = (   0.0000000  -0.5000000   0.0000000), wk =   0.1875000
        k(    6) = (   0.0000000  -0.5000000  -0.5000000), wk =   0.1875000
        k(    7) = (   0.2500000   0.2500000   0.0000000), wk =   0.3750000
        k(    8) = (   0.2500000   0.2500000  -0.5000000), wk =   0.3750000

     Dense  grid:   287969 G-vectors     FFT dimensions: (  80,  80, 120)

     Smooth grid:   206075 G-vectors     FFT dimensions: (  72,  72, 108)

     Dynamical RAM for                 wfc:       2.41 MB

     Dynamical RAM for     wfc (w. buffer):      21.73 MB

     Dynamical RAM for           str. fact:       0.33 MB

     Dynamical RAM for           local pot:       0.00 MB

     Dynamical RAM for          nlocal pot:       5.79 MB

     Dynamical RAM for                qrad:       3.00 MB

     Dynamical RAM for          rho,v,vnew:       1.22 MB

     Dynamical RAM for               rhoin:       0.41 MB

     Dynamical RAM for            rho*nmix:       2.60 MB

     Dynamical RAM for           G-vectors:       0.67 MB

     Dynamical RAM for          h,s,v(r/c):      20.18 MB

     Dynamical RAM for          <psi|beta>:       1.01 MB

     Dynamical RAM for                 psi:       9.66 MB

     Dynamical RAM for                hpsi:       9.66 MB

     Dynamical RAM for                spsi:       9.66 MB

     Dynamical RAM for      wfcinit/wfcrot:       6.70 MB

     Dynamical RAM for           addusdens:      32.88 MB

     Dynamical RAM for          addusforce:      37.91 MB

     Dynamical RAM for         addusstress:      32.72 MB

     Estimated static dynamical RAM per process >      34.85 MB

     Estimated max dynamical RAM per process >      87.61 MB

     Estimated total dynamical RAM >       2.31 GB

     Check: negative core charge=   -0.000004

     Initial potential from superposition of free atoms

     starting charge     274.9556, renormalised to     275.0000


     %%%%%%%%%%%%%%%%%%%%%%%%%%%%%%%%%%%%%%%%%%%%%%%%%%%%%%%%%%%%%%%%%%%%%%%%
     %                                                                      %
     % You are using vdW-DF, which was implemented by the Thonhauser group. %
     % Please cite the following two papers that made this development      %
     % possible and the two reviews that describe the various versions:     %
     %                                                                      %
     %   T. Thonhauser et al., PRL 115, 136402 (2015).                      %
     %   T. Thonhauser et al., PRB 76, 125112 (2007).                       %
     %   K. Berland et al., Rep. Prog. Phys. 78, 066501 (2015).             %
     %   D.C. Langreth et al., J. Phys.: Condens. Matter 21, 084203 (2009). %
     %                                                                      %
     % If you are calculating stress with vdW-DF, please also cite:         %
     %                                                                      %
     %   R. Sabatini et al., J. Phys.: Condens. Matter 24, 424209 (2012).   %
     %                                                                      %
     %%%%%%%%%%%%%%%%%%%%%%%%%%%%%%%%%%%%%%%%%%%%%%%%%%%%%%%%%%%%%%%%%%%%%%%%

     %%%%%%%%%%%%%%%%%%%%%%%%%%%%%%%%%%%%%%%%%%%%%%%%%%%%%%%%%%%%%%%%%%%%%%%%
     %                                                                      %
     %  vdW-DF NEWS:                                                        %
     %                                                                      %
     %  * vdW-DF3 is now available. DOI: 10.1021/acs.jctc.0c00471           %
     %    use with input_dft = 'vdW-DF3-opt1' or 'vdW-DF3-opt2'             %
     %                                                                      %
     %  * Unscreened and range-separated vdW-DF hybrid functionals          %
     %    DOI: 10.1063/1.4986522 and 10.1088/1361-648X/ac2ad2               %
     %    use with input_dft = 'vdW-DF-cx0' (etc) and 'vdW-DF-ahcx'         %
     %                                                                      %
     %%%%%%%%%%%%%%%%%%%%%%%%%%%%%%%%%%%%%%%%%%%%%%%%%%%%%%%%%%%%%%%%%%%%%%%%


     Carrying out vdW-DF run using the following parameters:
     Nqs    =  20  Npoints =  1024  r_max =  100.000
     q_mesh =  0.00001000  0.04494208  0.09755937  0.15916263
               0.23128650  0.31572767  0.41458969  0.53033537
               0.66584808  0.82450364  1.01025438  1.22772762
               1.48234092  1.78043706  2.12944203  2.53805004
               3.01644009  3.57652955  4.23227104  5.00000000


     -----------------------------------------------
     Non-local corr. energy    =       7.85332003 Ry
     -----------------------------------------------

     Starting wfcs are  199 randomized atomic wfcs
     Checking if some PAW data can be deallocated... 
       PAW data deallocated on   16 nodes for type:  1
       PAW data deallocated on   11 nodes for type:  2

     total cpu time spent up to now is        4.3 secs

     Self-consistent Calculation

     iteration #  1     ecut=    70.00 Ry     beta= 0.70
     Davidson diagonalization with overlap

---- Real-time Memory Report at c_bands before calling an iterative solver
           251 MiB given to the printing process from OS
             0 MiB allocation reported by mallinfo(arena+hblkhd)
       1963283 MiB available memory on the node where the printing process lives
------------------
     ethr =  1.00E-02,  avg # of iterations =  4.1


     -----------------------------------------------
     Non-local corr. energy    =       8.18812067 Ry
     -----------------------------------------------


     total cpu time spent up to now is       11.8 secs

     total energy              =   -4707.00618156 Ry
     estimated scf accuracy    <       9.28298342 Ry

     iteration #  2     ecut=    70.00 Ry     beta= 0.70
     Davidson diagonalization with overlap

---- Real-time Memory Report at c_bands before calling an iterative solver
           291 MiB given to the printing process from OS
             0 MiB allocation reported by mallinfo(arena+hblkhd)
       1962261 MiB available memory on the node where the printing process lives
------------------
     ethr =  3.38E-03,  avg # of iterations =  6.5


     -----------------------------------------------
     Non-local corr. energy    =       8.14570741 Ry
     -----------------------------------------------


     total cpu time spent up to now is       25.9 secs

     total energy              =   -4709.32448866 Ry
     estimated scf accuracy    <      17.18923215 Ry

     iteration #  3     ecut=    70.00 Ry     beta= 0.70
     Davidson diagonalization with overlap

---- Real-time Memory Report at c_bands before calling an iterative solver
           294 MiB given to the printing process from OS
             0 MiB allocation reported by mallinfo(arena+hblkhd)
       1962122 MiB available memory on the node where the printing process lives
------------------
     ethr =  3.38E-03,  avg # of iterations =  6.8


     -----------------------------------------------
     Non-local corr. energy    =       8.16086473 Ry
     -----------------------------------------------


     total cpu time spent up to now is       37.6 secs

     total energy              =   -4711.71296518 Ry
     estimated scf accuracy    <       9.00220064 Ry

     iteration #  4     ecut=    70.00 Ry     beta= 0.70
     Davidson diagonalization with overlap

---- Real-time Memory Report at c_bands before calling an iterative solver
           296 MiB given to the printing process from OS
             0 MiB allocation reported by mallinfo(arena+hblkhd)
       1962090 MiB available memory on the node where the printing process lives
------------------
     ethr =  3.27E-03,  avg # of iterations =  6.3


     -----------------------------------------------
     Non-local corr. energy    =       8.18594923 Ry
     -----------------------------------------------


     total cpu time spent up to now is       47.2 secs

     total energy              =   -4712.66467952 Ry
     estimated scf accuracy    <       0.43978151 Ry

     iteration #  5     ecut=    70.00 Ry     beta= 0.70
     Davidson diagonalization with overlap

---- Real-time Memory Report at c_bands before calling an iterative solver
           296 MiB given to the printing process from OS
             0 MiB allocation reported by mallinfo(arena+hblkhd)
       1962067 MiB available memory on the node where the printing process lives
------------------
     ethr =  1.60E-04,  avg # of iterations =  9.5


     -----------------------------------------------
     Non-local corr. energy    =       8.27144815 Ry
     -----------------------------------------------


     total cpu time spent up to now is       61.5 secs

     total energy              =   -4712.75345530 Ry
     estimated scf accuracy    <       0.16122897 Ry

     iteration #  6     ecut=    70.00 Ry     beta= 0.70
     Davidson diagonalization with overlap

---- Real-time Memory Report at c_bands before calling an iterative solver
           300 MiB given to the printing process from OS
             0 MiB allocation reported by mallinfo(arena+hblkhd)
       1962055 MiB available memory on the node where the printing process lives
------------------
     ethr =  5.86E-05,  avg # of iterations =  9.4


     -----------------------------------------------
     Non-local corr. energy    =       8.29069839 Ry
     -----------------------------------------------


     total cpu time spent up to now is       74.8 secs

     total energy              =   -4712.75258949 Ry
     estimated scf accuracy    <       0.14771128 Ry

     iteration #  7     ecut=    70.00 Ry     beta= 0.70
     Davidson diagonalization with overlap

---- Real-time Memory Report at c_bands before calling an iterative solver
           301 MiB given to the printing process from OS
             0 MiB allocation reported by mallinfo(arena+hblkhd)
       1962038 MiB available memory on the node where the printing process lives
------------------
     ethr =  5.37E-05,  avg # of iterations =  9.0


     -----------------------------------------------
     Non-local corr. energy    =       8.28089849 Ry
     -----------------------------------------------


     total cpu time spent up to now is       87.3 secs

     total energy              =   -4712.76934605 Ry
     estimated scf accuracy    <       0.14215002 Ry

     iteration #  8     ecut=    70.00 Ry     beta= 0.70
     Davidson diagonalization with overlap

---- Real-time Memory Report at c_bands before calling an iterative solver
           302 MiB given to the printing process from OS
             0 MiB allocation reported by mallinfo(arena+hblkhd)
       1962023 MiB available memory on the node where the printing process lives
------------------
     ethr =  5.17E-05,  avg # of iterations =  8.8


     -----------------------------------------------
     Non-local corr. energy    =       8.27520399 Ry
     -----------------------------------------------


     total cpu time spent up to now is       98.3 secs

     total energy              =   -4712.77848781 Ry
     estimated scf accuracy    <       0.02207690 Ry

     iteration #  9     ecut=    70.00 Ry     beta= 0.70
     Davidson diagonalization with overlap

---- Real-time Memory Report at c_bands before calling an iterative solver
           305 MiB given to the printing process from OS
             0 MiB allocation reported by mallinfo(arena+hblkhd)
       1962001 MiB available memory on the node where the printing process lives
------------------
     ethr =  8.03E-06,  avg # of iterations =  8.6


     -----------------------------------------------
     Non-local corr. energy    =       8.26913555 Ry
     -----------------------------------------------


     total cpu time spent up to now is      109.7 secs

     total energy              =   -4712.78107223 Ry
     estimated scf accuracy    <       0.01143912 Ry

     iteration # 10     ecut=    70.00 Ry     beta= 0.70
     Davidson diagonalization with overlap

---- Real-time Memory Report at c_bands before calling an iterative solver
           305 MiB given to the printing process from OS
             0 MiB allocation reported by mallinfo(arena+hblkhd)
       1961985 MiB available memory on the node where the printing process lives
------------------
     ethr =  4.16E-06,  avg # of iterations =  3.8


     -----------------------------------------------
     Non-local corr. energy    =       8.26587204 Ry
     -----------------------------------------------


     total cpu time spent up to now is      116.6 secs

     total energy              =   -4712.78191527 Ry
     estimated scf accuracy    <       0.00071026 Ry

     iteration # 11     ecut=    70.00 Ry     beta= 0.70
     Davidson diagonalization with overlap

---- Real-time Memory Report at c_bands before calling an iterative solver
           306 MiB given to the printing process from OS
             0 MiB allocation reported by mallinfo(arena+hblkhd)
       1961970 MiB available memory on the node where the printing process lives
------------------
     ethr =  2.58E-07,  avg # of iterations =  5.0


     -----------------------------------------------
     Non-local corr. energy    =       8.26340906 Ry
     -----------------------------------------------


     total cpu time spent up to now is      130.0 secs

     total energy              =   -4712.78279811 Ry
     estimated scf accuracy    <       0.00036590 Ry

     iteration # 12     ecut=    70.00 Ry     beta= 0.70
     Davidson diagonalization with overlap

---- Real-time Memory Report at c_bands before calling an iterative solver
           310 MiB given to the printing process from OS
             0 MiB allocation reported by mallinfo(arena+hblkhd)
       1961944 MiB available memory on the node where the printing process lives
------------------
     ethr =  1.33E-07,  avg # of iterations =  8.8


     -----------------------------------------------
     Non-local corr. energy    =       8.26374023 Ry
     -----------------------------------------------


     total cpu time spent up to now is      141.3 secs

     total energy              =   -4712.78280084 Ry
     estimated scf accuracy    <       0.00023493 Ry

     iteration # 13     ecut=    70.00 Ry     beta= 0.70
     Davidson diagonalization with overlap

---- Real-time Memory Report at c_bands before calling an iterative solver
           310 MiB given to the printing process from OS
             0 MiB allocation reported by mallinfo(arena+hblkhd)
       1961950 MiB available memory on the node where the printing process lives
------------------
     ethr =  8.54E-08,  avg # of iterations =  2.4


     -----------------------------------------------
     Non-local corr. energy    =       8.26439899 Ry
     -----------------------------------------------


     total cpu time spent up to now is      147.3 secs

     total energy              =   -4712.78281598 Ry
     estimated scf accuracy    <       0.00002937 Ry

     iteration # 14     ecut=    70.00 Ry     beta= 0.70
     Davidson diagonalization with overlap

---- Real-time Memory Report at c_bands before calling an iterative solver
           310 MiB given to the printing process from OS
             0 MiB allocation reported by mallinfo(arena+hblkhd)
       1961947 MiB available memory on the node where the printing process lives
------------------
     ethr =  1.07E-08,  avg # of iterations =  8.6


     -----------------------------------------------
     Non-local corr. energy    =       8.26451003 Ry
     -----------------------------------------------


     total cpu time spent up to now is      158.2 secs

     total energy              =   -4712.78281882 Ry
     estimated scf accuracy    <       0.00000080 Ry

     iteration # 15     ecut=    70.00 Ry     beta= 0.70
     Davidson diagonalization with overlap

---- Real-time Memory Report at c_bands before calling an iterative solver
           310 MiB given to the printing process from OS
             0 MiB allocation reported by mallinfo(arena+hblkhd)
       1961947 MiB available memory on the node where the printing process lives
------------------
     ethr =  2.89E-10,  avg # of iterations =  6.5


     -----------------------------------------------
     Non-local corr. energy    =       8.26466319 Ry
     -----------------------------------------------


     total cpu time spent up to now is      173.0 secs

     total energy              =   -4712.78282005 Ry
     estimated scf accuracy    <       0.00000380 Ry

     iteration # 16     ecut=    70.00 Ry     beta= 0.70
     Davidson diagonalization with overlap

---- Real-time Memory Report at c_bands before calling an iterative solver
           310 MiB given to the printing process from OS
             0 MiB allocation reported by mallinfo(arena+hblkhd)
       1961950 MiB available memory on the node where the printing process lives
------------------
     ethr =  2.89E-10,  avg # of iterations =  4.1


     -----------------------------------------------
     Non-local corr. energy    =       8.26496644 Ry
     -----------------------------------------------


     total cpu time spent up to now is      179.9 secs

     total energy              =   -4712.78281951 Ry
     estimated scf accuracy    <       0.00000214 Ry

     iteration # 17     ecut=    70.00 Ry     beta= 0.70
     Davidson diagonalization with overlap

---- Real-time Memory Report at c_bands before calling an iterative solver
           311 MiB given to the printing process from OS
             0 MiB allocation reported by mallinfo(arena+hblkhd)
       1961938 MiB available memory on the node where the printing process lives
------------------
     ethr =  2.89E-10,  avg # of iterations =  5.0


     -----------------------------------------------
     Non-local corr. energy    =       8.26481586 Ry
     -----------------------------------------------


     total cpu time spent up to now is      192.5 secs

     total energy              =   -4712.78281979 Ry
     estimated scf accuracy    <       0.00000041 Ry

     iteration # 18     ecut=    70.00 Ry     beta= 0.70
     Davidson diagonalization with overlap

---- Real-time Memory Report at c_bands before calling an iterative solver
           311 MiB given to the printing process from OS
             0 MiB allocation reported by mallinfo(arena+hblkhd)
       1961932 MiB available memory on the node where the printing process lives
------------------
     ethr =  1.48E-10,  avg # of iterations =  5.9


     -----------------------------------------------
     Non-local corr. energy    =       8.26483895 Ry
     -----------------------------------------------


     total cpu time spent up to now is      201.5 secs

     End of self-consistent calculation

          k = 0.0000 0.0000 0.0000 ( 25781 PWs)   bands (ev):

    -7.6114  -7.3327  -7.2365  -7.2365  -7.2157  -7.2000  -7.2000  -7.1774
    -7.1293  -7.0399  -6.9602  -6.9602  -6.7781  -6.7273  -6.7272  -6.5970
    -6.1316  -6.1316  -6.0825  -6.0825  -6.0742  -6.0670  -6.0670  -6.0419
    -6.0372  -6.0372  -6.0259  -6.0156  -6.0156  -5.9993  -5.9524  -5.9524
    -5.9384  -5.9308  -5.9308  -5.9230  -5.9230  -5.9180  -5.8892  -5.8892
    -5.8756  -5.8756  -5.8747  -5.8712  -5.8712  -5.8709  -5.8526  -5.8526
    -5.8270  -5.8270  -5.8238  -5.8135  -5.8108  -5.8108  -5.7839  -5.7838
    -5.7655  -5.7621  -5.7541  -5.7541  -5.7390  -5.7390  -5.7108  -5.7058
    -5.7058  -5.7001  -5.6778  -5.6778  -5.6554  -5.6554  -5.6369  -5.6369
    -5.6190  -5.6190  -5.6088  -5.5942  -5.5448  -5.4052  -4.4080  -4.4080
    -4.3585  -4.2288  -4.1377  -4.1376  -4.0865  -4.0407  -4.0407  -3.8733
    -3.6801  -3.6801  -3.6190   1.4913   1.6358   1.6650   1.6650   1.7481
     1.7500   1.7501   2.1207   2.1208   2.5043   3.0150   3.0151   4.1023
     4.1599   4.1599   4.1964   4.3532   5.4420   5.5066   5.5131   5.5131
     6.0083   6.0084   6.0311   6.1793   6.2170   6.2170   6.2596   6.2596
     6.3019   6.3234   6.3234   6.4469   6.6135   6.6135   7.0492   7.0493
     7.1387   7.2893   7.2893   7.3650   7.5240   7.5241   7.9226   7.9227
     8.1941   8.3925   8.3925   9.7653  11.8190  12.0299  12.3317  12.4645
    12.4646  12.5429  12.5644  12.5644  12.6872  13.3122  13.3124  13.3615
    13.5297  13.5297  14.1734  14.4048  14.5126  14.5126  15.6045  15.6046
    15.7092  15.7092  15.7433  15.9874  16.2820  16.2820

     occupation numbers 
     1.0000   1.0000   1.0000   1.0000   1.0000   1.0000   1.0000   1.0000
     1.0000   1.0000   1.0000   1.0000   1.0000   1.0000   1.0000   1.0000
     1.0000   1.0000   1.0000   1.0000   1.0000   1.0000   1.0000   1.0000
     1.0000   1.0000   1.0000   1.0000   1.0000   1.0000   1.0000   1.0000
     1.0000   1.0000   1.0000   1.0000   1.0000   1.0000   1.0000   1.0000
     1.0000   1.0000   1.0000   1.0000   1.0000   1.0000   1.0000   1.0000
     1.0000   1.0000   1.0000   1.0000   1.0000   1.0000   1.0000   1.0000
     1.0000   1.0000   1.0000   1.0000   1.0000   1.0000   1.0000   1.0000
     1.0000   1.0000   1.0000   1.0000   1.0000   1.0000   1.0000   1.0000
     1.0000   1.0000   1.0000   1.0000   1.0000   1.0000   1.0000   1.0000
     1.0000   1.0000   1.0000   1.0000   1.0000   1.0000   1.0000   1.0000
     1.0000   1.0000   1.0000   1.0000   1.0000   1.0000   1.0000   1.0000
     1.0000   1.0000   1.0000   1.0000   1.0000   1.0000   1.0000   1.0000
     1.0000   1.0000   1.0000   1.0000   1.0000   1.0000   1.0000   1.0000
     1.0000   1.0000   1.0000   1.0000   1.0000   1.0000   1.0000   1.0000
     1.0000   1.0000   1.0000   1.0000   1.0000   1.0000   1.0000   1.0000
     1.0000   1.0000   1.0000   1.0000   1.0000   1.0000   0.9326   0.9325
     0.0924   0.0004   0.0004   0.0000   0.0000   0.0000   0.0000   0.0000
     0.0000   0.0000   0.0000   0.0000   0.0000   0.0000   0.0000   0.0000
     0.0000   0.0000   0.0000   0.0000   0.0000   0.0000   0.0000   0.0000
     0.0000   0.0000   0.0000   0.0000   0.0000   0.0000

          k = 0.0000 0.0000-0.3068 ( 25758 PWs)   bands (ev):

    -7.5783  -7.3682  -7.2339  -7.2339  -7.2115  -7.2009  -7.2009  -7.1787
    -7.1405  -7.0358  -6.9619  -6.9619  -6.7798  -6.7280  -6.7280  -6.5983
    -6.1317  -6.1317  -6.0819  -6.0819  -6.0747  -6.0670  -6.0670  -6.0410
    -6.0365  -6.0365  -6.0169  -6.0125  -6.0125  -5.9699  -5.9535  -5.9535
    -5.9398  -5.9311  -5.9311  -5.9235  -5.9235  -5.9098  -5.8876  -5.8876
    -5.8834  -5.8762  -5.8755  -5.8755  -5.8657  -5.8657  -5.8598  -5.8580
    -5.8580  -5.8327  -5.8327  -5.8235  -5.8136  -5.8136  -5.7897  -5.7803
    -5.7803  -5.7611  -5.7576  -5.7576  -5.7563  -5.7373  -5.7373  -5.7048
    -5.7042  -5.7042  -5.7024  -5.6771  -5.6771  -5.6549  -5.6549  -5.6369
    -5.6369  -5.6191  -5.6191  -5.6088  -5.5945  -4.7690  -4.6626  -4.3876
    -4.3875  -4.3531  -4.2394  -4.2394  -4.0944  -3.9134  -3.9134  -3.8512
    -3.7231  -3.7231  -3.6236   1.5401   1.5480   1.5480   1.7807   1.7807
     1.9150   2.2190   2.3233   2.4479   2.4479   2.5684   2.5953   2.5953
     4.3886   4.8660   4.8661   5.0844   5.0845   5.1325   5.5393   5.5676
     5.5676   5.7595   5.8264   6.0253   6.0253   6.4156   6.4258   6.4259
     6.5273   6.6035   6.6035   6.7220   6.7686   6.8107   6.8107   6.9721
     7.0522   7.0523   7.1598   7.1598   7.5446   7.5447   7.6763   7.9444
     7.9445   8.3788   8.3788  10.7793  11.0745  12.0134  12.3084  12.3464
    12.3464  12.4402  12.4632  12.4632  12.7259  13.1029  13.1030  13.2238
    13.7337  13.7337  14.1256  15.3427  15.3428  15.3458  15.4041  15.4715
    15.4716  15.6339  15.6340  15.8370  15.8652  15.8652

     occupation numbers 
     1.0000   1.0000   1.0000   1.0000   1.0000   1.0000   1.0000   1.0000
     1.0000   1.0000   1.0000   1.0000   1.0000   1.0000   1.0000   1.0000
     1.0000   1.0000   1.0000   1.0000   1.0000   1.0000   1.0000   1.0000
     1.0000   1.0000   1.0000   1.0000   1.0000   1.0000   1.0000   1.0000
     1.0000   1.0000   1.0000   1.0000   1.0000   1.0000   1.0000   1.0000
     1.0000   1.0000   1.0000   1.0000   1.0000   1.0000   1.0000   1.0000
     1.0000   1.0000   1.0000   1.0000   1.0000   1.0000   1.0000   1.0000
     1.0000   1.0000   1.0000   1.0000   1.0000   1.0000   1.0000   1.0000
     1.0000   1.0000   1.0000   1.0000   1.0000   1.0000   1.0000   1.0000
     1.0000   1.0000   1.0000   1.0000   1.0000   1.0000   1.0000   1.0000
     1.0000   1.0000   1.0000   1.0000   1.0000   1.0000   1.0000   1.0000
     1.0000   1.0000   1.0000   1.0000   1.0000   1.0000   1.0000   1.0000
     1.0000   1.0000   1.0000   1.0000   1.0000   1.0000   1.0000   1.0000
     1.0000   1.0000   1.0000   1.0000   1.0000   1.0000   1.0000   1.0000
     1.0000   1.0000   1.0000   1.0000   1.0000   1.0000   1.0000   1.0000
     1.0000   1.0000   1.0000   1.0000   1.0000   1.0000   1.0000   1.0000
     1.0000   1.0000   1.0000   1.0000   1.0000   1.0000   1.0000   0.8977
     0.8976   0.0006   0.0006   0.0000   0.0000   0.0000   0.0000   0.0000
     0.0000   0.0000   0.0000   0.0000   0.0000   0.0000   0.0000   0.0000
     0.0000   0.0000   0.0000   0.0000   0.0000   0.0000   0.0000   0.0000
     0.0000   0.0000   0.0000   0.0000   0.0000   0.0000

          k = 0.0000 0.2887 0.0000 ( 25764 PWs)   bands (ev):

    -7.5171  -7.2964  -7.2508  -7.2285  -7.2127  -7.2026  -7.1977  -7.1774
    -7.0973  -7.0255  -6.9635  -6.9551  -6.7754  -6.7235  -6.7171  -6.5841
    -6.1106  -6.1040  -6.0739  -6.0695  -6.0654  -6.0538  -6.0451  -6.0448
    -6.0400  -6.0354  -6.0114  -6.0051  -6.0049  -5.9893  -5.9627  -5.9603
    -5.9505  -5.9376  -5.9339  -5.9299  -5.9218  -5.9123  -5.8949  -5.8941
    -5.8869  -5.8843  -5.8772  -5.8752  -5.8720  -5.8659  -5.8452  -5.8421
    -5.8404  -5.8339  -5.8244  -5.8222  -5.8169  -5.8100  -5.7915  -5.7878
    -5.7729  -5.7669  -5.7587  -5.7550  -5.7444  -5.7398  -5.7143  -5.7121
    -5.7052  -5.7040  -5.6922  -5.6763  -5.6702  -5.6572  -5.6553  -5.6368
    -5.6358  -5.6300  -5.6229  -5.6084  -5.4077  -5.2731  -4.9079  -4.4844
    -4.4784  -4.4177  -4.3063  -4.1410  -4.1399  -4.0829  -4.0412  -3.8262
    -3.6336  -3.6023  -3.5641   1.6820   1.8929   1.9088   1.9962   2.0019
     2.1209   2.3183   2.3237   2.4573   2.8625   3.1632   3.4324   3.8162
     4.1289   4.1457   4.2189   4.3438   4.9510   4.9836   5.3694   5.4869
     5.6195   5.6303   5.7429   5.8016   6.1218   6.1321   6.1478   6.2260
     6.3711   6.3744   6.4550   6.4912   6.5107   6.6084   6.6298   6.7232
     6.7329   6.8218   6.8914   7.0072   7.2544   7.3587   7.4009   7.7656
     7.8841   8.1232   8.3162  10.7922  12.5225  12.6389  12.6771  12.7660
    12.9900  13.0657  13.1348  13.1575  13.1909  13.3448  13.7654  13.8228
    14.0332  14.1698  14.3467  14.5869  14.6424  14.8072  15.6303  15.7018
    15.7576  15.7859  15.8659  15.9008  16.0014  16.2095

     occupation numbers 
     1.0000   1.0000   1.0000   1.0000   1.0000   1.0000   1.0000   1.0000
     1.0000   1.0000   1.0000   1.0000   1.0000   1.0000   1.0000   1.0000
     1.0000   1.0000   1.0000   1.0000   1.0000   1.0000   1.0000   1.0000
     1.0000   1.0000   1.0000   1.0000   1.0000   1.0000   1.0000   1.0000
     1.0000   1.0000   1.0000   1.0000   1.0000   1.0000   1.0000   1.0000
     1.0000   1.0000   1.0000   1.0000   1.0000   1.0000   1.0000   1.0000
     1.0000   1.0000   1.0000   1.0000   1.0000   1.0000   1.0000   1.0000
     1.0000   1.0000   1.0000   1.0000   1.0000   1.0000   1.0000   1.0000
     1.0000   1.0000   1.0000   1.0000   1.0000   1.0000   1.0000   1.0000
     1.0000   1.0000   1.0000   1.0000   1.0000   1.0000   1.0000   1.0000
     1.0000   1.0000   1.0000   1.0000   1.0000   1.0000   1.0000   1.0000
     1.0000   1.0000   1.0000   1.0000   1.0000   1.0000   1.0000   1.0000
     1.0000   1.0000   1.0000   1.0000   1.0000   1.0000   1.0000   1.0000
     1.0000   1.0000   1.0000   1.0000   1.0000   1.0000   1.0000   1.0000
     1.0000   1.0000   1.0000   1.0000   1.0000   1.0000   1.0000   1.0000
     1.0000   1.0000   1.0000   1.0000   1.0000   1.0000   1.0000   1.0000
     1.0000   1.0000   1.0000   1.0000   1.0000   1.0000   1.0000   0.9991
     0.9710   0.2775   0.0047   0.0000   0.0000   0.0000   0.0000   0.0000
     0.0000   0.0000   0.0000   0.0000   0.0000   0.0000   0.0000   0.0000
     0.0000   0.0000   0.0000   0.0000   0.0000   0.0000   0.0000   0.0000
     0.0000   0.0000   0.0000   0.0000   0.0000   0.0000

          k = 0.0000 0.2887-0.3068 ( 25732 PWs)   bands (ev):

    -7.4907  -7.3190  -7.2467  -7.2260  -7.2107  -7.2030  -7.1985  -7.1782
    -7.1094  -7.0230  -6.9655  -6.9568  -6.7765  -6.7243  -6.7182  -6.5853
    -6.1107  -6.1053  -6.0737  -6.0684  -6.0651  -6.0533  -6.0448  -6.0448
    -6.0396  -6.0364  -6.0084  -6.0029  -6.0026  -5.9754  -5.9637  -5.9613
    -5.9516  -5.9373  -5.9309  -5.9305  -5.9219  -5.9076  -5.8974  -5.8969
    -5.8894  -5.8855  -5.8766  -5.8755  -5.8705  -5.8695  -5.8468  -5.8431
    -5.8409  -5.8343  -5.8237  -5.8209  -5.8140  -5.8024  -5.7842  -5.7838
    -5.7796  -5.7696  -5.7594  -5.7551  -5.7434  -5.7350  -5.7285  -5.7145
    -5.7054  -5.7036  -5.6905  -5.6828  -5.6763  -5.6652  -5.6569  -5.6505
    -5.6370  -5.6348  -5.6301  -5.6229  -5.6090  -4.8680  -4.7190  -4.6054
    -4.5324  -4.4538  -4.4267  -4.2856  -4.1573  -3.9405  -3.8479  -3.8146
    -3.7373  -3.6785  -3.6092   1.7866   1.7989   1.9838   1.9994   2.0700
     2.2712   2.3524   2.5663   2.6568   2.7041   2.7850   3.0413   3.1483
     4.3330   4.6039   4.6288   4.7190   4.8587   5.0894   5.1931   5.3180
     5.5278   5.5921   5.6741   5.7468   5.9376   6.0959   6.1871   6.2013
     6.2239   6.3133   6.4091   6.4791   6.6037   6.6406   6.7338   6.7453
     6.8044   6.8979   6.9026   7.1130   7.2181   7.4121   7.4754   7.6860
     7.7746   8.1188   8.2991  11.3915  11.6849  12.3693  12.5264  12.8049
    12.9159  12.9568  13.0172  13.0829  13.2787  13.5001  13.9310  13.9743
    14.1863  14.4522  14.4881  15.1143  15.1728  15.1851  15.3370  15.3627
    15.4393  15.7782  15.8241  15.9255  16.0178  16.0335

     occupation numbers 
     1.0000   1.0000   1.0000   1.0000   1.0000   1.0000   1.0000   1.0000
     1.0000   1.0000   1.0000   1.0000   1.0000   1.0000   1.0000   1.0000
     1.0000   1.0000   1.0000   1.0000   1.0000   1.0000   1.0000   1.0000
     1.0000   1.0000   1.0000   1.0000   1.0000   1.0000   1.0000   1.0000
     1.0000   1.0000   1.0000   1.0000   1.0000   1.0000   1.0000   1.0000
     1.0000   1.0000   1.0000   1.0000   1.0000   1.0000   1.0000   1.0000
     1.0000   1.0000   1.0000   1.0000   1.0000   1.0000   1.0000   1.0000
     1.0000   1.0000   1.0000   1.0000   1.0000   1.0000   1.0000   1.0000
     1.0000   1.0000   1.0000   1.0000   1.0000   1.0000   1.0000   1.0000
     1.0000   1.0000   1.0000   1.0000   1.0000   1.0000   1.0000   1.0000
     1.0000   1.0000   1.0000   1.0000   1.0000   1.0000   1.0000   1.0000
     1.0000   1.0000   1.0000   1.0000   1.0000   1.0000   1.0000   1.0000
     1.0000   1.0000   1.0000   1.0000   1.0000   1.0000   1.0000   1.0000
     1.0000   1.0000   1.0000   1.0000   1.0000   1.0000   1.0000   1.0000
     1.0000   1.0000   1.0000   1.0000   1.0000   1.0000   1.0000   1.0000
     1.0000   1.0000   1.0000   1.0000   1.0000   1.0000   1.0000   1.0000
     1.0000   1.0000   1.0000   1.0000   1.0000   1.0000   1.0000   1.0000
     0.9988   0.2930   0.0078   0.0000   0.0000   0.0000   0.0000   0.0000
     0.0000   0.0000   0.0000   0.0000   0.0000   0.0000   0.0000   0.0000
     0.0000   0.0000   0.0000   0.0000   0.0000   0.0000   0.0000   0.0000
     0.0000   0.0000   0.0000   0.0000   0.0000   0.0000

          k = 0.0000-0.5774 0.0000 ( 25772 PWs)   bands (ev):

    -7.3509  -7.3361  -7.2377  -7.2334  -7.2195  -7.1987  -7.1962  -7.1780
    -7.0641  -7.0024  -6.9761  -6.9499  -6.7732  -6.7198  -6.7052  -6.5708
    -6.0778  -6.0762  -6.0730  -6.0706  -6.0696  -6.0623  -6.0282  -6.0156
    -6.0097  -6.0055  -6.0008  -6.0004  -5.9915  -5.9877  -5.9688  -5.9647
    -5.9619  -5.9526  -5.9308  -5.9238  -5.9175  -5.9147  -5.9077  -5.9025
    -5.8957  -5.8921  -5.8890  -5.8835  -5.8748  -5.8667  -5.8653  -5.8536
    -5.8420  -5.8253  -5.8216  -5.8163  -5.8026  -5.7998  -5.7878  -5.7819
    -5.7731  -5.7729  -5.7679  -5.7549  -5.7312  -5.7253  -5.7226  -5.7065
    -5.7018  -5.7009  -5.6860  -5.6824  -5.6748  -5.6631  -5.6555  -5.6394
    -5.6376  -5.6336  -5.6246  -5.5873  -5.5319  -5.0421  -4.9787  -4.9514
    -4.7831  -4.5439  -4.4686  -4.1458  -4.1165  -4.0437  -3.9010  -3.8728
    -3.7403  -3.5358  -3.5091   2.0713   2.2394   2.2414   2.2495   2.3153
     2.3479   2.5875   2.9157   3.2101   3.4504   3.5724   3.5776   3.6351
     4.1517   4.2660   4.2712   4.3837   4.3892   4.5153   4.8596   4.9066
     4.9137   5.1809   5.2203   5.3748   5.9401   6.0917   6.1289   6.1428
     6.1732   6.1913   6.2146   6.2371   6.3032   6.4315   6.5006   6.6008
     6.6552   6.7821   6.8485   6.8541   7.0374   7.3203   7.3791   7.5056
     7.5767   8.0115   8.2244  11.9948  12.1564  13.0756  13.1085  13.1750
    13.3529  13.7343  13.7345  13.7659  13.8697  13.9237  14.0560  14.2167
    14.2478  14.4774  14.9256  15.3201  15.3341  15.4060  15.4627  15.5333
    15.5577  15.6832  15.7220  15.8481  15.8624  15.8872

     occupation numbers 
     1.0000   1.0000   1.0000   1.0000   1.0000   1.0000   1.0000   1.0000
     1.0000   1.0000   1.0000   1.0000   1.0000   1.0000   1.0000   1.0000
     1.0000   1.0000   1.0000   1.0000   1.0000   1.0000   1.0000   1.0000
     1.0000   1.0000   1.0000   1.0000   1.0000   1.0000   1.0000   1.0000
     1.0000   1.0000   1.0000   1.0000   1.0000   1.0000   1.0000   1.0000
     1.0000   1.0000   1.0000   1.0000   1.0000   1.0000   1.0000   1.0000
     1.0000   1.0000   1.0000   1.0000   1.0000   1.0000   1.0000   1.0000
     1.0000   1.0000   1.0000   1.0000   1.0000   1.0000   1.0000   1.0000
     1.0000   1.0000   1.0000   1.0000   1.0000   1.0000   1.0000   1.0000
     1.0000   1.0000   1.0000   1.0000   1.0000   1.0000   1.0000   1.0000
     1.0000   1.0000   1.0000   1.0000   1.0000   1.0000   1.0000   1.0000
     1.0000   1.0000   1.0000   1.0000   1.0000   1.0000   1.0000   1.0000
     1.0000   1.0000   1.0000   1.0000   1.0000   1.0000   1.0000   1.0000
     1.0000   1.0000   1.0000   1.0000   1.0000   1.0000   1.0000   1.0000
     1.0000   1.0000   1.0000   1.0000   1.0000   1.0000   1.0000   1.0000
     1.0000   1.0000   1.0000   1.0000   1.0000   1.0000   1.0000   1.0000
     1.0000   1.0000   1.0000   1.0000   1.0000   1.0000   1.0000   1.0000
     1.0000   0.7162   0.0503   0.0000   0.0000   0.0000   0.0000   0.0000
     0.0000   0.0000   0.0000   0.0000   0.0000   0.0000   0.0000   0.0000
     0.0000   0.0000   0.0000   0.0000   0.0000   0.0000   0.0000   0.0000
     0.0000   0.0000   0.0000   0.0000   0.0000   0.0000

          k = 0.0000-0.5774-0.3068 ( 25740 PWs)   bands (ev):

    -7.3359  -7.3264  -7.2466  -7.2373  -7.2171  -7.1971  -7.1967  -7.1783
    -7.0732  -7.0040  -6.9779  -6.9516  -6.7739  -6.7206  -6.7065  -6.5717
    -6.0791  -6.0749  -6.0720  -6.0705  -6.0701  -6.0623  -6.0272  -6.0159
    -6.0101  -6.0055  -6.0008  -5.9994  -5.9916  -5.9902  -5.9710  -5.9665
    -5.9625  -5.9503  -5.9340  -5.9264  -5.9177  -5.9124  -5.9081  -5.9021
    -5.8982  -5.8919  -5.8856  -5.8821  -5.8758  -5.8701  -5.8626  -5.8522
    -5.8486  -5.8259  -5.8201  -5.8132  -5.8009  -5.7989  -5.7822  -5.7793
    -5.7716  -5.7703  -5.7680  -5.7554  -5.7287  -5.7285  -5.7229  -5.7080
    -5.7020  -5.7006  -5.6855  -5.6814  -5.6745  -5.6629  -5.6564  -5.6399
    -5.6380  -5.6339  -5.6253  -5.5055  -5.4844  -5.4081  -5.2283  -4.5050
    -4.4864  -4.3751  -4.3378  -4.3245  -4.2238  -4.1700  -4.0249  -3.7963
    -3.6965  -3.6421  -3.5812   2.1460   2.1763   2.2979   2.4037   2.5292
     2.5548   2.6648   2.7603   2.8114   2.9594   3.0033   4.0206   4.2264
     4.2637   4.3487   4.3955   4.4937   4.5893   4.6086   4.8374   4.9456
     5.0080   5.1259   5.1261   5.2992   5.3457   5.6617   5.6750   5.7539
     5.9984   6.0654   6.2300   6.2482   6.4436   6.6254   6.6766   6.7343
     6.8780   6.9419   7.0779   7.1843   7.2003   7.2378   7.4046   7.4187
     7.4317   8.0654   8.2072  12.1295  12.1864  12.3098  12.6016  13.6695
    13.7347  13.7632  13.7981  13.8826  13.9021  14.0194  14.1841  14.1909
    14.2839  14.6567  14.9720  15.2068  15.2849  15.3438  15.5281  15.5292
    15.6605  15.7104  15.7989  15.8084  15.9066  16.0217

     occupation numbers 
     1.0000   1.0000   1.0000   1.0000   1.0000   1.0000   1.0000   1.0000
     1.0000   1.0000   1.0000   1.0000   1.0000   1.0000   1.0000   1.0000
     1.0000   1.0000   1.0000   1.0000   1.0000   1.0000   1.0000   1.0000
     1.0000   1.0000   1.0000   1.0000   1.0000   1.0000   1.0000   1.0000
     1.0000   1.0000   1.0000   1.0000   1.0000   1.0000   1.0000   1.0000
     1.0000   1.0000   1.0000   1.0000   1.0000   1.0000   1.0000   1.0000
     1.0000   1.0000   1.0000   1.0000   1.0000   1.0000   1.0000   1.0000
     1.0000   1.0000   1.0000   1.0000   1.0000   1.0000   1.0000   1.0000
     1.0000   1.0000   1.0000   1.0000   1.0000   1.0000   1.0000   1.0000
     1.0000   1.0000   1.0000   1.0000   1.0000   1.0000   1.0000   1.0000
     1.0000   1.0000   1.0000   1.0000   1.0000   1.0000   1.0000   1.0000
     1.0000   1.0000   1.0000   1.0000   1.0000   1.0000   1.0000   1.0000
     1.0000   1.0000   1.0000   1.0000   1.0000   1.0000   1.0000   1.0000
     1.0000   1.0000   1.0000   1.0000   1.0000   1.0000   1.0000   1.0000
     1.0000   1.0000   1.0000   1.0000   1.0000   1.0000   1.0000   1.0000
     1.0000   1.0000   1.0000   1.0000   1.0000   1.0000   1.0000   1.0000
     1.0000   1.0000   1.0000   1.0000   1.0000   1.0000   1.0000   1.0000
     1.0000   0.5046   0.0717   0.0000   0.0000   0.0000   0.0000   0.0000
     0.0000   0.0000   0.0000   0.0000   0.0000   0.0000   0.0000   0.0000
     0.0000   0.0000   0.0000   0.0000   0.0000   0.0000   0.0000   0.0000
     0.0000   0.0000   0.0000   0.0000   0.0000   0.0000

          k = 0.2500 0.4330 0.0000 ( 25702 PWs)   bands (ev):

    -7.3853  -7.2706  -7.2645  -7.2440  -7.2121  -7.2044  -7.1921  -7.1775
    -7.0647  -7.0041  -6.9716  -6.9520  -6.7726  -6.7232  -6.7023  -6.5707
    -6.0878  -6.0797  -6.0727  -6.0661  -6.0601  -6.0560  -6.0489  -6.0250
    -6.0125  -6.0033  -6.0001  -5.9923  -5.9861  -5.9793  -5.9767  -5.9721
    -5.9625  -5.9471  -5.9287  -5.9240  -5.9211  -5.9158  -5.9095  -5.9044
    -5.8936  -5.8884  -5.8826  -5.8778  -5.8739  -5.8678  -5.8587  -5.8538
    -5.8432  -5.8333  -5.8273  -5.8231  -5.8084  -5.7968  -5.7885  -5.7829
    -5.7767  -5.7715  -5.7587  -5.7525  -5.7329  -5.7245  -5.7209  -5.7077
    -5.7048  -5.6963  -5.6871  -5.6805  -5.6754  -5.6670  -5.6569  -5.6551
    -5.6426  -5.6408  -5.6299  -5.6228  -5.2209  -5.1679  -5.1087  -4.9835
    -4.6491  -4.5937  -4.5729  -4.2949  -4.0657  -3.9292  -3.9061  -3.7327
    -3.6784  -3.6100  -3.5557   1.9995   2.0569   2.0980   2.3451   2.4623
     2.6341   2.9067   2.9248   2.9602   3.0214   3.5442   3.5932   3.8319
     3.8721   3.9549   4.1745   4.3132   4.4501   4.7408   4.9414   5.1441
     5.2103   5.4114   5.4470   5.6941   5.7850   5.8906   5.9467   5.9683
     6.1263   6.2288   6.2842   6.3311   6.3449   6.4419   6.4868   6.5605
     6.6563   6.7462   6.8220   6.9338   6.9960   7.0537   7.3268   7.3990
     7.5830   8.0369   8.1180  11.8389  12.9409  12.9993  13.2343  13.3065
    13.4001  13.4206  13.4751  13.6977  13.8247  13.9741  14.0758  14.2546
    14.4856  14.6730  14.9096  15.0351  15.1803  15.4236  15.4754  15.5300
    15.6149  15.6399  15.6593  15.7922  15.8402  16.0146

     occupation numbers 
     1.0000   1.0000   1.0000   1.0000   1.0000   1.0000   1.0000   1.0000
     1.0000   1.0000   1.0000   1.0000   1.0000   1.0000   1.0000   1.0000
     1.0000   1.0000   1.0000   1.0000   1.0000   1.0000   1.0000   1.0000
     1.0000   1.0000   1.0000   1.0000   1.0000   1.0000   1.0000   1.0000
     1.0000   1.0000   1.0000   1.0000   1.0000   1.0000   1.0000   1.0000
     1.0000   1.0000   1.0000   1.0000   1.0000   1.0000   1.0000   1.0000
     1.0000   1.0000   1.0000   1.0000   1.0000   1.0000   1.0000   1.0000
     1.0000   1.0000   1.0000   1.0000   1.0000   1.0000   1.0000   1.0000
     1.0000   1.0000   1.0000   1.0000   1.0000   1.0000   1.0000   1.0000
     1.0000   1.0000   1.0000   1.0000   1.0000   1.0000   1.0000   1.0000
     1.0000   1.0000   1.0000   1.0000   1.0000   1.0000   1.0000   1.0000
     1.0000   1.0000   1.0000   1.0000   1.0000   1.0000   1.0000   1.0000
     1.0000   1.0000   1.0000   1.0000   1.0000   1.0000   1.0000   1.0000
     1.0000   1.0000   1.0000   1.0000   1.0000   1.0000   1.0000   1.0000
     1.0000   1.0000   1.0000   1.0000   1.0000   1.0000   1.0000   1.0000
     1.0000   1.0000   1.0000   1.0000   1.0000   1.0000   1.0000   1.0000
     1.0000   1.0000   1.0000   1.0000   1.0000   1.0000   1.0000   1.0000
     1.0000   0.6206   0.2960   0.0000   0.0000   0.0000   0.0000   0.0000
     0.0000   0.0000   0.0000   0.0000   0.0000   0.0000   0.0000   0.0000
     0.0000   0.0000   0.0000   0.0000   0.0000   0.0000   0.0000   0.0000
     0.0000   0.0000   0.0000   0.0000   0.0000   0.0000

          k = 0.2500 0.4330-0.3068 ( 25730 PWs)   bands (ev):

    -7.3692  -7.2654  -7.2642  -7.2476  -7.2147  -7.2061  -7.1911  -7.1775
    -7.0740  -7.0054  -6.9735  -6.9538  -6.7733  -6.7241  -6.7036  -6.5717
    -6.0881  -6.0783  -6.0735  -6.0658  -6.0599  -6.0561  -6.0489  -6.0249
    -6.0121  -6.0034  -6.0005  -5.9911  -5.9875  -5.9797  -5.9778  -5.9738
    -5.9640  -5.9467  -5.9325  -5.9240  -5.9212  -5.9160  -5.9099  -5.9026
    -5.8901  -5.8883  -5.8845  -5.8803  -5.8737  -5.8675  -5.8588  -5.8543
    -5.8432  -5.8348  -5.8273  -5.8235  -5.7988  -5.7956  -5.7881  -5.7808
    -5.7713  -5.7699  -5.7576  -5.7549  -5.7319  -5.7267  -5.7238  -5.7096
    -5.7044  -5.6948  -5.6899  -5.6756  -5.6683  -5.6614  -5.6579  -5.6437
    -5.6415  -5.6402  -5.6275  -5.5916  -5.4720  -5.1163  -5.0953  -4.9839
    -4.7876  -4.3801  -4.2871  -4.0731  -4.0690  -3.9785  -3.9412  -3.9107
    -3.8263  -3.7097  -3.5418   2.0711   2.2469   2.3712   2.4190   2.5145
     2.5337   2.5452   2.5929   2.7538   3.2934   3.5522   3.6027   3.6646
     3.7895   4.0755   4.4836   4.6587   4.7628   4.8778   4.9372   5.0888
     5.2336   5.2837   5.4148   5.4530   5.4732   5.5781   5.6646   5.7692
     5.9058   6.0272   6.2533   6.2562   6.4625   6.5143   6.5836   6.6770
     6.7242   6.9807   7.0481   7.0822   7.1500   7.2052   7.2966   7.3404
     7.4900   8.0736   8.1272  12.1175  12.3751  12.7613  12.8185  12.9365
    13.2003  13.7804  13.8795  14.0354  14.1171  14.2740  14.2960  14.5213
    14.7452  14.8974  14.9388  14.9933  15.0301  15.0732  15.2191  15.3704
    15.4852  15.6507  15.7752  15.8843  15.9047  15.9562

     occupation numbers 
     1.0000   1.0000   1.0000   1.0000   1.0000   1.0000   1.0000   1.0000
     1.0000   1.0000   1.0000   1.0000   1.0000   1.0000   1.0000   1.0000
     1.0000   1.0000   1.0000   1.0000   1.0000   1.0000   1.0000   1.0000
     1.0000   1.0000   1.0000   1.0000   1.0000   1.0000   1.0000   1.0000
     1.0000   1.0000   1.0000   1.0000   1.0000   1.0000   1.0000   1.0000
     1.0000   1.0000   1.0000   1.0000   1.0000   1.0000   1.0000   1.0000
     1.0000   1.0000   1.0000   1.0000   1.0000   1.0000   1.0000   1.0000
     1.0000   1.0000   1.0000   1.0000   1.0000   1.0000   1.0000   1.0000
     1.0000   1.0000   1.0000   1.0000   1.0000   1.0000   1.0000   1.0000
     1.0000   1.0000   1.0000   1.0000   1.0000   1.0000   1.0000   1.0000
     1.0000   1.0000   1.0000   1.0000   1.0000   1.0000   1.0000   1.0000
     1.0000   1.0000   1.0000   1.0000   1.0000   1.0000   1.0000   1.0000
     1.0000   1.0000   1.0000   1.0000   1.0000   1.0000   1.0000   1.0000
     1.0000   1.0000   1.0000   1.0000   1.0000   1.0000   1.0000   1.0000
     1.0000   1.0000   1.0000   1.0000   1.0000   1.0000   1.0000   1.0000
     1.0000   1.0000   1.0000   1.0000   1.0000   1.0000   1.0000   1.0000
     1.0000   1.0000   1.0000   1.0000   1.0000   1.0000   1.0000   1.0000
     1.0000   0.4705   0.2639   0.0000   0.0000   0.0000   0.0000   0.0000
     0.0000   0.0000   0.0000   0.0000   0.0000   0.0000   0.0000   0.0000
     0.0000   0.0000   0.0000   0.0000   0.0000   0.0000   0.0000   0.0000
     0.0000   0.0000   0.0000   0.0000   0.0000   0.0000

     the Fermi energy is     8.0665 ev

!    total energy              =   -4712.78281983 Ry
     total all-electron energy =    -60166.033507 Ry
     estimated scf accuracy    <       0.00000002 Ry
     smearing contrib. (-TS)   =      -0.00758175 Ry
     internal energy E=F+TS    =   -4712.77523808 Ry

     The total energy is F=E-TS. E is the sum of the following terms:
     one-electron contribution =   -1519.38342579 Ry
     hartree contribution      =    1039.68067630 Ry
     xc contribution           =    -687.87642075 Ry
     ewald contribution        =   -1672.99026517 Ry
     one-center paw contrib.   =   -1872.20580267 Ry
      -> PAW hartree energy AE =     289.07505008 Ry
      -> PAW hartree energy PS =    -286.22904459 Ry
      -> PAW xc energy AE      =    -313.88201451 Ry
      -> PAW xc energy PS      =      79.45380038 Ry
      -> total E_H with PAW    =    1042.52668179 Ry
      -> total E_XC with PAW   =    -922.30463488 Ry

     convergence has been achieved in  18 iterations


     -----------------------------------------------
     Non-local corr. energy    =       8.26483895 Ry
     -----------------------------------------------


     Forces acting on atoms (cartesian axes, Ry/au):

     atom    1 type  1   force =     0.00000000    0.00000000   -0.00074635
     atom    2 type  1   force =     0.00751686    0.00433986    0.01014876
     atom    3 type  1   force =     0.00323338    0.00186679   -0.00220252
     atom    4 type  1   force =     0.00000000   -0.00867972    0.01014876
     atom    5 type  1   force =     0.00000000   -0.00373359   -0.00220252
     atom    6 type  1   force =    -0.00751686    0.00433986    0.01014876
     atom    7 type  1   force =    -0.00323338    0.00186679   -0.00220252
     atom    8 type  1   force =     0.01070722   -0.00618182   -0.03119082
     atom    9 type  1   force =     0.01041487   -0.00601303    0.02007093
     atom   10 type  1   force =     0.00000000    0.01236364   -0.03119082
     atom   11 type  1   force =     0.00000000    0.01202606    0.02007093
     atom   12 type  1   force =    -0.01070722   -0.00618182   -0.03119082
     atom   13 type  1   force =    -0.01041487   -0.00601303    0.02007093
     atom   14 type  1   force =     0.00000000    0.00000000   -0.00977406
     atom   15 type  1   force =     0.00000000    0.00000000    0.00734790
     atom   16 type  2   force =     0.00000000    0.00000000    0.04841013
     atom   17 type  2   force =     0.00000000    0.00000000   -0.01093814
     atom   18 type  2   force =    -0.00058950   -0.00034035    0.00613504
     atom   19 type  2   force =     0.00147083    0.00084918   -0.00633626
     atom   20 type  2   force =     0.00000000    0.00068069    0.00613504
     atom   21 type  2   force =     0.00000000   -0.00169837   -0.00633626
     atom   22 type  2   force =     0.00058950   -0.00034035    0.00613504
     atom   23 type  2   force =    -0.00147083    0.00084918   -0.00633626
     atom   24 type  2   force =    -0.03618122    0.02088924   -0.01617662
     atom   25 type  2   force =     0.00029490   -0.00017026    0.00780866
     atom   26 type  2   force =     0.00000000   -0.04177847   -0.01617662
     atom   27 type  2   force =     0.00000000    0.00034052    0.00780866
     atom   28 type  2   force =     0.03618122    0.02088924   -0.01617662
     atom   29 type  2   force =    -0.00029490   -0.00017026    0.00780866
     atom   30 type  2   force =     0.00000000    0.00000000   -0.00337704
     atom   31 type  2   force =     0.00000000    0.00000000    0.00430606
     The non-local contrib.  to forces
     atom    1 type  1   force =     0.00000000   -0.00000000   -0.01801278
     atom    2 type  1   force =     0.00317655    0.00183398   -0.01090679
     atom    3 type  1   force =    -0.01605792   -0.00927104    0.00163787
     atom    4 type  1   force =     0.00000000   -0.00366796   -0.01090679
     atom    5 type  1   force =     0.00000000    0.01854209    0.00163787
     atom    6 type  1   force =    -0.00317655    0.00183398   -0.01090679
     atom    7 type  1   force =     0.01605792   -0.00927104    0.00163787
     atom    8 type  1   force =    -0.06377385    0.03681985    0.13158414
     atom    9 type  1   force =    -0.01559335    0.00900283   -0.10259864
     atom   10 type  1   force =     0.00000000   -0.07363970    0.13158414
     atom   11 type  1   force =    -0.00000000   -0.01800566   -0.10259864
     atom   12 type  1   force =     0.06377385    0.03681985    0.13158414
     atom   13 type  1   force =     0.01559335    0.00900283   -0.10259864
     atom   14 type  1   force =     0.00000000    0.00000000    0.05690488
     atom   15 type  1   force =     0.00000000    0.00000000   -0.04254991
     atom   16 type  2   force =     0.00000000   -0.00000000    0.57081499
     atom   17 type  2   force =     0.00000000    0.00000000   -0.04608127
     atom   18 type  2   force =     0.00022716    0.00013115    0.04358126
     atom   19 type  2   force =     0.01371609    0.00791899   -0.02076941
     atom   20 type  2   force =     0.00000000   -0.00026230    0.04358126
     atom   21 type  2   force =     0.00000000   -0.01583798   -0.02076941
     atom   22 type  2   force =    -0.00022716    0.00013115    0.04358126
     atom   23 type  2   force =    -0.01371609    0.00791899   -0.02076941
     atom   24 type  2   force =    -0.44360866    0.25611758   -0.23499906
     atom   25 type  2   force =    -0.01003593    0.00579425    0.03914456
     atom   26 type  2   force =     0.00000000   -0.51223516   -0.23499906
     atom   27 type  2   force =     0.00000000   -0.01158850    0.03914456
     atom   28 type  2   force =     0.44360866    0.25611758   -0.23499906
     atom   29 type  2   force =     0.01003593    0.00579425    0.03914456
     atom   30 type  2   force =     0.00000000    0.00000000   -0.02475603
     atom   31 type  2   force =     0.00000000   -0.00000000    0.03856168
     The ionic contribution  to forces
     atom    1 type  1   force =    -0.00003333    0.00002030    0.15865054
     atom    2 type  1   force =    -0.00003323    0.00002105    0.15864905
     atom    3 type  1   force =    -0.00003332    0.00002120    0.15865067
     atom    4 type  1   force =    -0.00003273    0.00002077    0.15864883
     atom    5 type  1   force =    -0.00003256    0.00002077    0.15865045
     atom    6 type  1   force =    -0.00003262    0.00002152    0.15864894
     atom    7 type  1   force =    -0.00003254    0.00002167    0.15865056
     atom    8 type  1   force =     2.52276139   -1.45652016   -8.52644238
     atom    9 type  1   force =     2.52276126   -1.45652009    8.84374348
     atom   10 type  1   force =     0.00003756    2.91298293   -8.52646219
     atom   11 type  1   force =     0.00003756    2.91298277    8.84376307
     atom   12 type  1   force =    -2.52269896   -1.45652748   -8.52646108
     atom   13 type  1   force =    -2.52269883   -1.45652740    8.84376240
     atom   14 type  1   force =     0.00002977   -0.00001805   -5.88502979
     atom   15 type  1   force =     0.00002977   -0.00001805    6.20233101
     atom   16 type  2   force =    -0.00002983    0.00001855   -9.66753439
     atom   17 type  2   force =    -0.00002983    0.00001855    3.22955846
     atom   18 type  2   force =    -0.00002979    0.00001896   -2.81550034
     atom   19 type  2   force =    -0.00002979    0.00001897    1.89384307
     atom   20 type  2   force =    -0.00002949    0.00001879   -2.81550012
     atom   21 type  2   force =    -0.00002948    0.00001879    1.89384329
     atom   22 type  2   force =    -0.00002945    0.00001920   -2.81550023
     atom   23 type  2   force =    -0.00002944    0.00001922    1.89384318
     atom   24 type  2   force =     6.36626068   -3.67556533    3.17758684
     atom   25 type  2   force =     0.13009403   -0.07511207   -0.95717075
     atom   26 type  2   force =     0.00004252    7.35112545    3.17761303
     atom   27 type  2   force =     0.00002972    0.15016705   -0.95717129
     atom   28 type  2   force =    -6.36623888   -3.67560184    3.17761163
     atom   29 type  2   force =    -0.13003482   -0.07511213   -0.95717148
     atom   30 type  2   force =     0.00002504   -0.00001552    1.01685578
     atom   31 type  2   force =     0.00002960   -0.00001840   -0.85496028
     The local contribution  to forces
     atom    1 type  1   force =    -0.00007738    0.00024635   -0.14264858
     atom    2 type  1   force =     0.00634743    0.00382884   -0.13589020
     atom    3 type  1   force =     0.01923758    0.01140444   -0.16318689
     atom    4 type  1   force =    -0.00011180   -0.00711929   -0.13589035
     atom    5 type  1   force =    -0.00007199   -0.02205978   -0.16318690
     atom    6 type  1   force =    -0.00646346    0.00398056   -0.13589013
     atom    7 type  1   force =    -0.01939231    0.01140442   -0.16318689
     atom    8 type  1   force =    -2.44789139    1.41342200    8.36223290
     atom    9 type  1   force =    -2.49497480    1.44060562   -8.72181427
     atom   10 type  1   force =     0.00108536   -2.82834430    8.36224864
     atom   11 type  1   force =     0.00108547   -2.88271135   -8.72183004
     atom   12 type  1   force =     2.45008672    1.41342897    8.36225139
     atom   13 type  1   force =     2.49716990    1.44061246   -8.72183268
     atom   14 type  1   force =     0.00110003   -0.00049655    5.81821261
     atom   15 type  1   force =     0.00110012   -0.00049663   -6.15288862
     atom   16 type  2   force =    -0.00000967    0.00001925    9.15443279
     atom   17 type  2   force =    -0.00001031    0.00002205   -3.19540233
     atom   18 type  2   force =    -0.00084144   -0.00045689    2.77854546
     atom   19 type  2   force =    -0.01204751   -0.00692630   -1.87998129
     atom   20 type  2   force =    -0.00001034    0.00098123    2.77854546
     atom   21 type  2   force =    -0.00000989    0.01392113   -1.87998131
     atom   22 type  2   force =     0.00082097   -0.00045516    2.77854546
     atom   23 type  2   force =     0.01202688   -0.00692628   -1.87998129
     atom   24 type  2   force =    -5.96622041    3.44461092   -2.96289541
     atom   25 type  2   force =    -0.11983096    0.06919517    0.92620670
     atom   26 type  2   force =     0.00006792   -6.88937638   -2.96291043
     atom   27 type  2   force =     0.00008457   -0.13850524    0.92620763
     atom   28 type  2   force =     5.96642978    3.44464106   -2.96292007
     atom   29 type  2   force =     0.12000158    0.06919553    0.92620771
     atom   30 type  2   force =     0.00009338   -0.00004016   -0.99620539
     atom   31 type  2   force =     0.00008576   -0.00003819    0.82108779
     The core correction contribution to forces
     atom    1 type  1   force =    -0.00000626    0.00001824    0.00104695
     atom    2 type  1   force =    -0.00202438   -0.00115767   -0.00207556
     atom    3 type  1   force =    -0.00008195   -0.00002500    0.00050968
     atom    4 type  1   force =    -0.00000908    0.00235343   -0.00207556
     atom    5 type  1   force =    -0.00000587    0.00010540    0.00050968
     atom    6 type  1   force =     0.00201548   -0.00114595   -0.00207555
     atom    7 type  1   force =     0.00006942   -0.00002500    0.00050968
     atom    8 type  1   force =     0.00071482   -0.00040328    0.00131328
     atom    9 type  1   force =    -0.00067892    0.00040140    0.00037347
     atom   10 type  1   force =     0.00008020    0.00069594    0.00131329
     atom   11 type  1   force =     0.00008020   -0.00091344    0.00037345
     atom   12 type  1   force =    -0.00055364   -0.00040329    0.00131330
     atom   13 type  1   force =     0.00084011    0.00040141    0.00037345
     atom   14 type  1   force =     0.00008062   -0.00003666   -0.00000557
     atom   15 type  1   force =     0.00008061   -0.00003666    0.00019474
     atom   16 type  2   force =     0.00000027   -0.00000037   -0.00950666
     atom   17 type  2   force =     0.00000024   -0.00000033    0.00071287
     atom   18 type  2   force =    -0.00000599   -0.00000394   -0.00069831
     atom   19 type  2   force =    -0.00021735   -0.00012596    0.00032519
     atom   20 type  2   force =     0.00000024    0.00000688   -0.00069831
     atom   21 type  2   force =     0.00000023    0.00025093    0.00032518
     atom   22 type  2   force =     0.00000648   -0.00000395   -0.00069832
     atom   23 type  2   force =     0.00021784   -0.00012597    0.00032519
     atom   24 type  2   force =     0.00745416   -0.00430368    0.00379413
     atom   25 type  2   force =     0.00016820   -0.00009715   -0.00062007
     atom   26 type  2   force =    -0.00000257    0.00861043    0.00379389
     atom   27 type  2   force =    -0.00000235    0.00019825   -0.00062003
     atom   28 type  2   force =    -0.00745819   -0.00430306    0.00379389
     atom   29 type  2   force =    -0.00017292   -0.00009714   -0.00062002
     atom   30 type  2   force =    -0.00000236    0.00000131    0.00039333
     atom   31 type  2   force =    -0.00000233    0.00000130   -0.00062210
     The Hubbard contrib.    to forces
     atom    1 type  1   force =     0.00000000    0.00000000    0.00000000
     atom    2 type  1   force =     0.00000000    0.00000000    0.00000000
     atom    3 type  1   force =     0.00000000    0.00000000    0.00000000
     atom    4 type  1   force =     0.00000000    0.00000000    0.00000000
     atom    5 type  1   force =     0.00000000    0.00000000    0.00000000
     atom    6 type  1   force =     0.00000000    0.00000000    0.00000000
     atom    7 type  1   force =     0.00000000    0.00000000    0.00000000
     atom    8 type  1   force =     0.00000000    0.00000000    0.00000000
     atom    9 type  1   force =     0.00000000    0.00000000    0.00000000
     atom   10 type  1   force =     0.00000000    0.00000000    0.00000000
     atom   11 type  1   force =     0.00000000    0.00000000    0.00000000
     atom   12 type  1   force =     0.00000000    0.00000000    0.00000000
     atom   13 type  1   force =     0.00000000    0.00000000    0.00000000
     atom   14 type  1   force =     0.00000000    0.00000000    0.00000000
     atom   15 type  1   force =     0.00000000    0.00000000    0.00000000
     atom   16 type  2   force =     0.00000000    0.00000000    0.00000000
     atom   17 type  2   force =     0.00000000    0.00000000    0.00000000
     atom   18 type  2   force =     0.00000000    0.00000000    0.00000000
     atom   19 type  2   force =     0.00000000    0.00000000    0.00000000
     atom   20 type  2   force =     0.00000000    0.00000000    0.00000000
     atom   21 type  2   force =     0.00000000    0.00000000    0.00000000
     atom   22 type  2   force =     0.00000000    0.00000000    0.00000000
     atom   23 type  2   force =     0.00000000    0.00000000    0.00000000
     atom   24 type  2   force =     0.00000000    0.00000000    0.00000000
     atom   25 type  2   force =     0.00000000    0.00000000    0.00000000
     atom   26 type  2   force =     0.00000000    0.00000000    0.00000000
     atom   27 type  2   force =     0.00000000    0.00000000    0.00000000
     atom   28 type  2   force =     0.00000000    0.00000000    0.00000000
     atom   29 type  2   force =     0.00000000    0.00000000    0.00000000
     atom   30 type  2   force =     0.00000000    0.00000000    0.00000000
     atom   31 type  2   force =     0.00000000    0.00000000    0.00000000
     The SCF correction term to forces
     atom    1 type  1   force =    -0.00000000    0.00000000   -0.00004186
     atom    2 type  1   force =    -0.00002292   -0.00001323    0.00011300
     atom    3 type  1   force =     0.00004903    0.00002831   -0.00007311
     atom    4 type  1   force =    -0.00000000    0.00002646    0.00011300
     atom    5 type  1   force =    -0.00000000   -0.00005661   -0.00007311
     atom    6 type  1   force =     0.00002292   -0.00001323    0.00011300
     atom    7 type  1   force =    -0.00004903    0.00002831   -0.00007311
     atom    8 type  1   force =     0.00010160   -0.00005866   -0.00013673
     atom    9 type  1   force =     0.00010592   -0.00006115    0.00010608
     atom   10 type  1   force =     0.00000000    0.00011731   -0.00013673
     atom   11 type  1   force =     0.00000000    0.00012230    0.00010608
     atom   12 type  1   force =    -0.00010159   -0.00005866   -0.00013673
     atom   13 type  1   force =    -0.00010591   -0.00006115    0.00010608
     atom   14 type  1   force =     0.00000000   -0.00000000   -0.00011558
     atom   15 type  1   force =     0.00000000   -0.00000000    0.00000131
     atom   16 type  2   force =    -0.00000000    0.00000000   -0.00005597
     atom   17 type  2   force =    -0.00000000    0.00000000    0.00001474
     atom   18 type  2   force =     0.00002010    0.00001160   -0.00005253
     atom   19 type  2   force =     0.00000907    0.00000523   -0.00001330
     atom   20 type  2   force =    -0.00000000   -0.00002321   -0.00005253
     atom   21 type  2   force =    -0.00000000   -0.00001047   -0.00001330
     atom   22 type  2   force =    -0.00002010    0.00001160   -0.00005253
     atom   23 type  2   force =    -0.00000907    0.00000523   -0.00001330
     atom   24 type  2   force =     0.00004193   -0.00002421    0.00007388
     atom   25 type  2   force =     0.00001171   -0.00000676   -0.00001143
     atom   26 type  2   force =     0.00000000    0.00004842    0.00007388
     atom   27 type  2   force =    -0.00000000    0.00001352   -0.00001143
     atom   28 type  2   force =    -0.00004193   -0.00002421    0.00007388
     atom   29 type  2   force =    -0.00001171   -0.00000676   -0.00001143
     atom   30 type  2   force =    -0.00000000    0.00000000    0.00007588
     atom   31 type  2   force =     0.00000000   -0.00000000   -0.00002040

     Total force =     0.121253     Total SCF correction =     0.000549


     Computing stress (Cartesian axis) and pressure



     -----------------------------------------------
     Non-local corr. energy    =       8.26483895 Ry
     -----------------------------------------------

          total   stress  (Ry/bohr**3)                   (kbar)     P=       -9.47
  -0.00007743   0.00000000   0.00000000          -11.39        0.00        0.00
   0.00000000  -0.00007743   0.00000000            0.00      -11.39        0.00
   0.00000000   0.00000000  -0.00003821            0.00        0.00       -5.62

     kinetic stress (kbar)  17635.41      0.00      0.00
                                0.00  17635.41     -0.00
                                0.00     -0.00  17657.28

     local   stress (kbar)   1979.43     -0.07     -0.00
                               -0.07   1979.35      0.00
                               -0.00      0.00   3220.28

     nonloc. stress (kbar)    158.04     -0.00      0.00
                                0.00    158.04      0.00
                                0.00      0.00    162.72

     hartree stress (kbar)  19804.54     -0.00      0.00
                               -0.00  19804.54     -0.00
                                0.00     -0.00  19152.34

     exc-cor stress (kbar)   4841.11      0.00     -0.00
                                0.00   4841.11      0.00
                               -0.00      0.00   4841.87

     corecor stress (kbar) -13267.72     -0.00     -0.00
                               -0.00 -13267.72     -0.00
                               -0.00     -0.00 -13267.75

     ewald   stress (kbar) -31315.35      0.09      0.00
                                0.09 -31315.24     -0.00
                                0.00     -0.00 -31924.68

     hubbard stress (kbar)      0.00      0.00      0.00
                                0.00      0.00      0.00
                                0.00      0.00      0.00

     DFT-D   stress (kbar)      0.00      0.00      0.00
                                0.00      0.00      0.00
                                0.00      0.00      0.00

     XDM     stress (kbar)      0.00      0.00      0.00
                                0.00      0.00      0.00
                                0.00      0.00      0.00

     dft-nl  stress (kbar)    153.13     -0.00      0.00
                               -0.00    153.13     -0.00
                                0.00     -0.00    152.32

     TS-vdW  stress (kbar)      0.00      0.00      0.00
[...]
     atom   20 type  2   force =    -0.00003015    0.08693243   -2.66955398
     atom   21 type  2   force =    -0.00002770    0.02656230    2.05710100
     atom   22 type  2   force =     0.07523940   -0.04343724   -2.66955207
     atom   23 type  2   force =     0.02295691   -0.01325207    2.05709976
     atom   24 type  2   force =     6.01944414   -3.47533100    2.89676672
     atom   25 type  2   force =     0.05418394   -0.03128540   -0.91879852
     atom   26 type  2   force =     0.00004766    6.95067087    2.89679319
     atom   27 type  2   force =     0.00003041    0.06251286   -0.91879797
     atom   28 type  2   force =    -6.01943168   -3.47537887    2.89679175
     atom   29 type  2   force =    -0.05412373   -0.03128568   -0.91879821
     atom   30 type  2   force =     0.00002397   -0.00001484    0.27047684
     atom   31 type  2   force =     0.00002998   -0.00001864   -0.51993481
     The local contribution  to forces
     atom    1 type  1   force =    -0.00007745    0.00024600   -1.24594477
     atom    2 type  1   force =    -0.71353823   -0.41179183    0.34995472
     atom    3 type  1   force =     0.15822130    0.09164694   -0.50518244
     atom    4 type  1   force =    -0.00011032    0.82412716    0.34995613
     atom    5 type  1   force =    -0.00007208   -0.18254463   -0.50518254
     atom    6 type  1   force =     0.71342283   -0.41164358    0.34995446
     atom    7 type  1   force =    -0.15837614    0.09164690   -0.50518245
     atom    8 type  1   force =    -1.88984486    1.09123303    8.93680921
     atom    9 type  1   force =    -3.50621644    2.02444638   -8.82710551
     atom   10 type  1   force =     0.00108513   -2.18395973    8.93682951
     atom   11 type  1   force =     0.00108701   -4.05039502   -8.82712921
     atom   12 type  1   force =     1.89203185    1.09123598    8.93683316
     atom   13 type  1   force =     3.50841468    2.02445324   -8.82713252
     atom   14 type  1   force =     0.00110094   -0.00049751    5.96365513
     atom   15 type  1   force =     0.00110008   -0.00049664   -6.91562167
     atom   16 type  2   force =    -0.00001301    0.00002007    9.16488903
     atom   17 type  2   force =    -0.00001044    0.00002179   -3.44031398
     atom   18 type  2   force =     0.07777209    0.04492970    2.69722954
     atom   19 type  2   force =    -0.00359298   -0.00204463   -2.05653611
     atom   20 type  2   force =    -0.00001069   -0.08979315    2.69722935
     atom   21 type  2   force =    -0.00000958    0.00415831   -2.05653608
     atom   22 type  2   force =    -0.07779355    0.04493298    2.69722973
     atom   23 type  2   force =     0.00357277   -0.00204490   -2.05653600
     atom   24 type  2   force =    -5.73187192    3.30930587   -2.72874264
     atom   25 type  2   force =    -0.04369586    0.02523828    0.86186074
     atom   26 type  2   force =     0.00006715   -6.61879706   -2.72876641
     atom   27 type  2   force =     0.00008309   -0.05059086    0.86185974
     atom   28 type  2   force =     5.73209640    3.30935560   -2.72877553
     atom   29 type  2   force =     0.04386439    0.02523962    0.86185973
     atom   30 type  2   force =     0.00009424   -0.00004066   -0.34450292
     atom   31 type  2   force =     0.00008586   -0.00003830    0.53131416
     The core correction contribution to forces
     atom    1 type  1   force =    -0.00000627    0.00001823   -0.00017679
     atom    2 type  1   force =    -0.00129479   -0.00073636   -0.00014032
     atom    3 type  1   force =    -0.00017387   -0.00007807    0.00021530
     atom    4 type  1   force =    -0.00000898    0.00151081   -0.00014029
     atom    5 type  1   force =    -0.00000587    0.00021155    0.00021530
     atom    6 type  1   force =     0.00128595   -0.00072480   -0.00014037
     atom    7 type  1   force =     0.00016134   -0.00007807    0.00021530
     atom    8 type  1   force =     0.00182018   -0.00104143   -0.00043588
     atom    9 type  1   force =    -0.00034182    0.00020679    0.00142275
     atom   10 type  1   force =     0.00008021    0.00197220   -0.00043588
     atom   11 type  1   force =     0.00008021   -0.00052423    0.00142273
     atom   12 type  1   force =    -0.00165894   -0.00104153   -0.00043588
     atom   13 type  1   force =     0.00050306    0.00020679    0.00142272
     atom   14 type  1   force =     0.00008064   -0.00003670    0.00093272
     atom   15 type  1   force =     0.00008061   -0.00003667   -0.00103573
     atom   16 type  2   force =     0.00000022   -0.00000028   -0.00676728
     atom   17 type  2   force =     0.00000024   -0.00000032   -0.00055670
     atom   18 type  2   force =     0.00004358    0.00002468    0.00044792
     atom   19 type  2   force =    -0.00043062   -0.00024910   -0.00000587
     atom   20 type  2   force =     0.00000024   -0.00005036    0.00044791
     atom   21 type  2   force =     0.00000023    0.00049720   -0.00000588
     atom   22 type  2   force =    -0.00004312    0.00002470    0.00044792
     atom   23 type  2   force =     0.00043112   -0.00024911   -0.00000587
     atom   24 type  2   force =     0.00489525   -0.00282636    0.00275285
     atom   25 type  2   force =     0.00017154   -0.00009908   -0.00094016
     atom   26 type  2   force =    -0.00000254    0.00565568    0.00275266
     atom   27 type  2   force =    -0.00000234    0.00020210   -0.00094016
     atom   28 type  2   force =    -0.00489933   -0.00282562    0.00275268
     atom   29 type  2   force =    -0.00017625   -0.00009907   -0.00094016
     atom   30 type  2   force =    -0.00000241    0.00000136   -0.00121412
     atom   31 type  2   force =    -0.00000233    0.00000130    0.00019259
     The Hubbard contrib.    to forces
     atom    1 type  1   force =     0.00000000    0.00000000    0.00000000
     atom    2 type  1   force =     0.00000000    0.00000000    0.00000000
     atom    3 type  1   force =     0.00000000    0.00000000    0.00000000
     atom    4 type  1   force =     0.00000000    0.00000000    0.00000000
     atom    5 type  1   force =     0.00000000    0.00000000    0.00000000
     atom    6 type  1   force =     0.00000000    0.00000000    0.00000000
     atom    7 type  1   force =     0.00000000    0.00000000    0.00000000
     atom    8 type  1   force =     0.00000000    0.00000000    0.00000000
     atom    9 type  1   force =     0.00000000    0.00000000    0.00000000
     atom   10 type  1   force =     0.00000000    0.00000000    0.00000000
     atom   11 type  1   force =     0.00000000    0.00000000    0.00000000
     atom   12 type  1   force =     0.00000000    0.00000000    0.00000000
     atom   13 type  1   force =     0.00000000    0.00000000    0.00000000
     atom   14 type  1   force =     0.00000000    0.00000000    0.00000000
     atom   15 type  1   force =     0.00000000    0.00000000    0.00000000
     atom   16 type  2   force =     0.00000000    0.00000000    0.00000000
     atom   17 type  2   force =     0.00000000    0.00000000    0.00000000
     atom   18 type  2   force =     0.00000000    0.00000000    0.00000000
     atom   19 type  2   force =     0.00000000    0.00000000    0.00000000
     atom   20 type  2   force =     0.00000000    0.00000000    0.00000000
     atom   21 type  2   force =     0.00000000    0.00000000    0.00000000
     atom   22 type  2   force =     0.00000000    0.00000000    0.00000000
     atom   23 type  2   force =     0.00000000    0.00000000    0.00000000
     atom   24 type  2   force =     0.00000000    0.00000000    0.00000000
     atom   25 type  2   force =     0.00000000    0.00000000    0.00000000
     atom   26 type  2   force =     0.00000000    0.00000000    0.00000000
     atom   27 type  2   force =     0.00000000    0.00000000    0.00000000
     atom   28 type  2   force =     0.00000000    0.00000000    0.00000000
     atom   29 type  2   force =     0.00000000    0.00000000    0.00000000
     atom   30 type  2   force =     0.00000000    0.00000000    0.00000000
     atom   31 type  2   force =     0.00000000    0.00000000    0.00000000
     The SCF correction term to forces
     atom    1 type  1   force =     0.00000000   -0.00000000   -0.00001675
     atom    2 type  1   force =     0.00000563    0.00000325   -0.00000185
     atom    3 type  1   force =    -0.00000204   -0.00000118    0.00000175
     atom    4 type  1   force =     0.00000000   -0.00000650   -0.00000185
     atom    5 type  1   force =    -0.00000000    0.00000236    0.00000175
     atom    6 type  1   force =    -0.00000563    0.00000325   -0.00000185
     atom    7 type  1   force =     0.00000204   -0.00000118    0.00000175
     atom    8 type  1   force =    -0.00000833    0.00000481    0.00000416
     atom    9 type  1   force =    -0.00000783    0.00000452    0.00001650
     atom   10 type  1   force =    -0.00000000   -0.00000962    0.00000416
     atom   11 type  1   force =    -0.00000000   -0.00000905    0.00001650
     atom   12 type  1   force =     0.00000833    0.00000481    0.00000416
     atom   13 type  1   force =     0.00000783    0.00000452    0.00001650
     atom   14 type  1   force =     0.00000000   -0.00000000   -0.00001092
     atom   15 type  1   force =     0.00000000   -0.00000000    0.00000882
     atom   16 type  2   force =     0.00000000   -0.00000000   -0.00000110
     atom   17 type  2   force =    -0.00000000   -0.00000000    0.00000180
     atom   18 type  2   force =     0.00000057    0.00000033   -0.00000299
     atom   19 type  2   force =     0.00000054    0.00000031    0.00000189
     atom   20 type  2   force =    -0.00000000   -0.00000065   -0.00000299
     atom   21 type  2   force =    -0.00000000   -0.00000062    0.00000189
     atom   22 type  2   force =    -0.00000057    0.00000033   -0.00000299
     atom   23 type  2   force =    -0.00000054    0.00000031    0.00000189
     atom   24 type  2   force =    -0.00000161    0.00000093    0.00000277
     atom   25 type  2   force =    -0.00000139    0.00000080   -0.00000143
     atom   26 type  2   force =    -0.00000000   -0.00000186    0.00000277
     atom   27 type  2   force =     0.00000000   -0.00000161   -0.00000143
     atom   28 type  2   force =     0.00000161    0.00000093    0.00000277
     atom   29 type  2   force =     0.00000139    0.00000080   -0.00000143
     atom   30 type  2   force =     0.00000000   -0.00000000    0.00000301
     atom   31 type  2   force =    -0.00000000    0.00000000   -0.00000160

     Total force =     0.001714     Total SCF correction =     0.000046


     Computing stress (Cartesian axis) and pressure



     -----------------------------------------------
     Non-local corr. energy    =       8.27281875 Ry
     -----------------------------------------------

          total   stress  (Ry/bohr**3)                   (kbar)     P=        7.50
   0.00003196   0.00000000   0.00000000            4.70        0.00        0.00
   0.00000000   0.00003196   0.00000000            0.00        4.70        0.00
   0.00000000   0.00000000   0.00008911            0.00        0.00       13.11

     kinetic stress (kbar)  17740.68      0.00      0.00
                                0.00  17740.68     -0.00
                                0.00     -0.00  17784.67

     local   stress (kbar)   1507.96     -0.07     -0.00
                               -0.07   1507.87      0.00
                               -0.00      0.00   3014.04

     nonloc. stress (kbar)     48.83      0.00      0.00
                                0.00     48.83      0.00
                                0.00      0.00     50.54

     hartree stress (kbar)  20054.55     -0.00      0.00
                               -0.00  20054.55     -0.00
                                0.00     -0.00  19272.65

     exc-cor stress (kbar)   4835.63      0.00     -0.00
                                0.00   4835.63      0.00
                               -0.00      0.00   4836.37

     corecor stress (kbar) -13267.12     -0.00     -0.00
                               -0.00 -13267.12     -0.00
                               -0.00     -0.00 -13267.62

     ewald   stress (kbar) -31069.14      0.09      0.00
                                0.09 -31069.03     -0.00
                                0.00     -0.00 -31830.15

     hubbard stress (kbar)      0.00      0.00      0.00
                                0.00      0.00      0.00
                                0.00      0.00      0.00

     DFT-D   stress (kbar)      0.00      0.00      0.00
                                0.00      0.00      0.00
                                0.00      0.00      0.00

     XDM     stress (kbar)      0.00      0.00      0.00
                                0.00      0.00      0.00
                                0.00      0.00      0.00

     dft-nl  stress (kbar)    153.31     -0.00      0.00
                               -0.00    153.31     -0.00
                                0.00     -0.00    152.61

     TS-vdW  stress (kbar)      0.00      0.00      0.00
                                0.00      0.00      0.00
                                0.00      0.00      0.00

     MDB     stress (kbar)      0.00      0.00      0.00
                                0.00      0.00      0.00
                                0.00      0.00      0.00

     3D-RISM stress (kbar)      0.00      0.00      0.00
                                0.00      0.00      0.00
                                0.00      0.00      0.00

     Energy error            =      1.3E-05 Ry
     Gradient error          =      7.7E-04 Ry/Bohr

     bfgs converged in  12 scf cycles and  11 bfgs steps
     (criteria: energy <  1.0E-04 Ry, force <  1.0E-03 Ry/Bohr)

     End of BFGS Geometry Optimization

     Final energy             =   -4712.8175453602 Ry

     File ./GaN.bfgs deleted, as requested
Begin final coordinates

ATOMIC_POSITIONS (angstrom)
Ga            1.6222756606        0.9366198184        7.9065979786
Ga            0.0245301780        3.7606428380        2.6747099178
Ga            0.0004887301        3.7467625016        7.9183428369
Ga            4.8668240777        0.9082964854        2.6747099178
Ga            4.8668240777        0.9360571582        7.9183428369
Ga            3.2200211432        3.7606428380        2.6747099178
Ga            3.2440625911        3.7467625016        7.9183428369
Ga            0.0057970132        1.8698944050        5.2596030809
Ga           -0.0035709363        1.8753029932       10.5748575141
Ga           -1.6222761733        4.6897998827        5.2596030809
Ga           -1.6222761733        4.6789827062       10.5748575141
Ga            3.2387474743        1.8698944050        5.2596030809
Ga            3.2481154238        1.8753029932       10.5748575141
Ga            1.6222722437        4.6831037996        5.3019954805
Ga            1.6222722437        4.6831037996       10.5535206462
N             1.6222756606        0.9366198184        4.7976918383
N             1.6222756606        0.9366198184        9.9240525119
N             0.0051083569        3.7494296444        4.6441082944
N             0.0047001282        3.7491939534        9.9005741653
N             4.8668240777        0.9307228727        4.6441082944
N             4.8668240777        0.9311942546        9.9005741653
N             3.2394429643        3.7494296444        4.6441082944
N             3.2398511930        3.7491939534        9.9005741653
N            -0.1493352874        1.9594600805        1.9398477216
N            -0.0047152777        1.8759636790        7.2788808121
N            -1.6222761733        4.5106685316        1.9398477216
N            -1.6222761733        4.6776613347        7.2788808121
N             3.3938797749        1.9594600805        1.9398477216
N             3.2492597652        1.8759636790        7.2788808121
N             1.6222722437        4.6831037996        1.9792373111
N             1.6222722437        4.6831037996        7.2768708245
End final coordinates



     Writing all to output data dir ./GaN.save/
 
     init_run     :      3.83s CPU      3.96s WALL (       1 calls)
     electrons    :   2018.71s CPU   2036.40s WALL (      12 calls)
     update_pot   :      8.94s CPU      9.01s WALL (      11 calls)
     forces       :     16.37s CPU     16.56s WALL (      12 calls)
     stress       :     75.46s CPU     76.05s WALL (      12 calls)

     Called by init_run:
     wfcinit      :      1.98s CPU      2.02s WALL (       1 calls)
     wfcinit:atom :      0.02s CPU      0.02s WALL (       8 calls)
     wfcinit:wfcr :      1.87s CPU      1.90s WALL (       8 calls)
     potinit      :      1.57s CPU      1.62s WALL (       1 calls)
     hinit0       :      0.12s CPU      0.12s WALL (       1 calls)

     Called by electrons:
     c_bands      :   1763.92s CPU   1777.84s WALL (     183 calls)
     sum_band     :    130.35s CPU    132.20s WALL (     183 calls)
     v_of_rho     :     39.80s CPU     40.27s WALL (     194 calls)
     v_h          :      0.35s CPU      0.36s WALL (     194 calls)
     v_xc         :     44.29s CPU     44.80s WALL (     218 calls)
     newd         :     12.10s CPU     12.24s WALL (     194 calls)
     PAW_pot      :     82.61s CPU     83.01s WALL (     205 calls)
     mix_rho      :      1.48s CPU      1.51s WALL (     183 calls)
     vdW_kernel   :      0.88s CPU      0.89s WALL (       1 calls)

     Called by c_bands:
     init_us_2    :     16.74s CPU     16.98s WALL (    3216 calls)
     init_us_2:cp :     16.70s CPU     16.96s WALL (    3216 calls)
     cegterg      :   1729.85s CPU   1742.59s WALL (    1464 calls)

     Called by sum_band:
     sum_band:wei :      0.11s CPU      0.11s WALL (     183 calls)
     sum_band:loo :    111.24s CPU    112.78s WALL (     183 calls)
     sum_band:buf :      4.94s CPU      5.25s WALL (    1464 calls)
     sum_band:ini :      7.56s CPU      7.65s WALL (    1464 calls)
     sum_band:cal :     25.84s CPU     25.97s WALL (    1552 calls)
     sum_band:bec :      0.63s CPU      0.65s WALL (    1552 calls)
     addusdens    :     16.42s CPU     16.67s WALL (     183 calls)
     addusd:skk   :      0.59s CPU      0.61s WALL (     366 calls)
     addusd:dgemm :     11.31s CPU     11.50s WALL (     366 calls)
     addusd:qvan2 :      4.08s CPU      4.11s WALL (     366 calls)

     Called by *egterg:
     cdiaghg      :    784.23s CPU    787.38s WALL (   11889 calls)
     cegterg:over :    127.20s CPU    128.26s WALL (   10521 calls)
     cegterg:upda :     94.04s CPU     94.82s WALL (   10521 calls)
     cegterg:last :     28.70s CPU     28.90s WALL (    1566 calls)
     h_psi        :    571.93s CPU    578.66s WALL (   11993 calls)
     s_psi        :     72.42s CPU     72.92s WALL (   11993 calls)
     g_psi        :      0.83s CPU      0.84s WALL (   10521 calls)

     Called by h_psi:
     h_psi:calbec :     94.79s CPU     95.45s WALL (   11993 calls)
     vloc_psi     :    392.15s CPU    397.55s WALL (   11993 calls)
     add_vuspsi   :     76.18s CPU     76.79s WALL (   11993 calls)

     General routines
     calbec       :    134.54s CPU    135.46s WALL (   14025 calls)
     fft          :     22.23s CPU     22.45s WALL (   14238 calls)
     ffts         :      0.76s CPU      0.76s WALL (     377 calls)
     fftw         :    434.49s CPU    440.15s WALL ( 1538092 calls)
     interpolate  :      1.29s CPU      1.31s WALL (     194 calls)
 
     Parallel routines

     PAW routines
     PAW_pot      :     82.61s CPU     83.01s WALL (     205 calls)
     PAW_symme    :      0.13s CPU      0.13s WALL (     388 calls)
 
     PWSCF        :  35m32.41s CPU  35m52.94s WALL

 
   This run was terminated on:  20:31:17  27Mar2024            

=------------------------------------------------------------------------------=
   JOB DONE.
=------------------------------------------------------------------------------=
