
     Program PWSCF v.7.1 starts on 27Mar2024 at 22:26:18 

     This program is part of the open-source Quantum ESPRESSO suite
     for quantum simulation of materials; please cite
         "P. Giannozzi et al., J. Phys.:Condens. Matter 21 395502 (2009);
         "P. Giannozzi et al., J. Phys.:Condens. Matter 29 465901 (2017);
         "P. Giannozzi et al., J. Chem. Phys. 152 154105 (2020);
          URL http://www.quantum-espresso.org", 
     in publications or presentations arising from this work. More details at
     http://www.quantum-espresso.org/quote

     Parallel version (MPI & OpenMP), running on      27 processor cores
     Number of MPI processes:                27
     Threads/MPI process:                     1

     MPI processes distributed on     1 nodes
     1961155 MiB available memory on the printing compute node when the environment starts
 
     Reading input from espresso.pwi
Warning: card &CELL ignored
Warning: card    CELL_DYNAMICS    = 'BFGS' ignored
Warning: card / ignored

     Current dimensions of program PWSCF are:
     Max number of different atomic species (ntypx) = 10
     Max number of k-points (npk) =  40000
     Max angular momentum in pseudopotentials (lmaxx) =  4
     file Ga.pbe-dn-kjpaw_psl.1.0.0.UPF: wavefunction(s)  4S renormalized
     file N.pbe-n-kjpaw_psl.1.0.0.UPF: wavefunction(s)  2S renormalized

     **************************************************************************
     Initializing libbeef V0.1.2 with the BEEF-vdW functional.
     Citation: Wellendorff et al., PRB 85, 235149 (2012).
     **************************************************************************


     IMPORTANT: XC functional enforced from input :
     Exchange-correlation= BEEF-VDW
                           (   1   4  43  14   2   0   0)
     Any further DFT definition will be discarded
     Please, verify this is what you really want

 
     R & G space division:  proc/nbgrp/npool/nimage =      27
     Subspace diagonalization in iterative solution of the eigenvalue problem:
     a serial algorithm will be used

 
     Parallelization info
     --------------------
     sticks:   dense  smooth     PW     G-vecs:    dense   smooth      PW
     Min         134     107     28                10662     7629    1068
     Max         135     108     29                10667     7636    1077
     Sum        3643    2905    769               287969   206075   28939
 
     Using Slab Decomposition
 


     bravais-lattice index     =            4
     lattice parameter (alat)  =      12.2626  a.u.
     unit-cell volume          =    2602.7676 (a.u.)^3
     number of atoms/cell      =           31
     number of atomic types    =            2
     number of electrons       =       275.00
     number of Kohn-Sham states=          166
     kinetic-energy cutoff     =      70.0000  Ry
     charge density cutoff     =     350.0000  Ry
     scf convergence threshold =      1.0E-07
     mixing beta               =       0.7000
     number of iterations used =            8  plain     mixing
     Exchange-correlation= BEEF-VDW
                           (   1   4  43  14   2   0   0)

     celldm(1)=  12.262616  celldm(2)=   0.000000  celldm(3)=   1.629879
     celldm(4)=   0.000000  celldm(5)=   0.000000  celldm(6)=   0.000000

     crystal axes: (cart. coord. in units of alat)
               a(1) = (   1.000000   0.000000   0.000000 )  
               a(2) = (  -0.500000   0.866025   0.000000 )  
               a(3) = (   0.000000   0.000000   1.629879 )  

     reciprocal axes: (cart. coord. in units 2 pi/alat)
               b(1) = (  1.000000  0.577350 -0.000000 )  
               b(2) = (  0.000000  1.154701  0.000000 )  
               b(3) = (  0.000000 -0.000000  0.613542 )  


     PseudoPot. # 1 for Ga read from file:
     /trace/group/acmegroup/atimmins/packages/espresso/pseudo/psl_1.0.0/pslibrary.1.0.0/pbe/PSEUDOPOTENTIALS/Ga.pbe-dn-kjpaw_psl.1.0.0.UPF
     MD5 check sum: cd2a01e492f15b435d17032472d8505c
     Pseudo is Projector augmented-wave + core cor, Zval = 13.0
     Generated using 'atomic' code by A. Dal Corso  v.7.1
     Shape of augmentation charge: PSQ
     Using radial grid of 1205 points,  6 beta functions with: 
                l(1) =   0
                l(2) =   0
                l(3) =   1
                l(4) =   1
                l(5) =   2
                l(6) =   2
     Q(r) pseudized with 0 coefficients 


     PseudoPot. # 2 for N  read from file:
     /trace/group/acmegroup/atimmins/packages/espresso/pseudo/psl_1.0.0/pslibrary.1.0.0/pbe/PSEUDOPOTENTIALS/N.pbe-n-kjpaw_psl.1.0.0.UPF
     MD5 check sum: f77f775694dac7e2c3fe1c82443d1a16
     Pseudo is Projector augmented-wave + core cor, Zval =  5.0
     Generated using 'atomic' code by A. Dal Corso  v.7.1
     Shape of augmentation charge: PSQ
     Using radial grid of 1085 points,  4 beta functions with: 
                l(1) =   0
                l(2) =   0
                l(3) =   1
                l(4) =   1
     Q(r) pseudized with 0 coefficients 


     atomic species   valence    mass     pseudopotential
        Ga            13.00    69.72300     Ga( 1.00)
        N              5.00    14.00700     N ( 1.00)

      6 Sym. Ops. (no inversion) found ( 4 have fractional translation)


                                    s                        frac. trans.

      isym =  1     identity                                     

 cryst.   s( 1) = (     1          0          0      )
                  (     0          1          0      )
                  (     0          0          1      )

 cart.    s( 1) = (  1.0000000  0.0000000  0.0000000 )
                  (  0.0000000  1.0000000  0.0000000 )
                  (  0.0000000  0.0000000  1.0000000 )


      isym =  2     120 deg rotation - cryst. axis [0,0,1]       

 cryst.   s( 2) = (     0          1          0      )    f =(  0.4999999 )
                  (    -1         -1          0      )       (  0.0000004 )
                  (     0          0          1      )       (  0.0000000 )

 cart.    s( 2) = ( -0.5000000 -0.8660254  0.0000000 )    f =(  0.4999998 )
                  (  0.8660254 -0.5000000  0.0000000 )       (  0.0000003 )
                  (  0.0000000  0.0000000  1.0000000 )       (  0.0000000 )


      isym =  3     120 deg rotation - cryst. axis [0,0,-1]      

 cryst.   s( 3) = (    -1         -1          0      )    f =(  0.4999996 )
                  (     1          0          0      )       (  0.4999999 )
                  (     0          0          1      )       (  0.0000000 )

 cart.    s( 3) = ( -0.5000000  0.8660254  0.0000000 )    f =(  0.2499996 )
                  ( -0.8660254 -0.5000000  0.0000000 )       (  0.4330127 )
                  (  0.0000000  0.0000000  1.0000000 )       (  0.0000000 )


      isym =  4     inv. 180 deg rotation - cart. axis [1,0,0]   

 cryst.   s( 4) = (    -1          0          0      )    f =(  0.4999996 )
                  (     1          1          0      )       (  0.0000000 )
                  (     0          0          1      )       (  0.0000000 )

 cart.    s( 4) = ( -1.0000000  0.0000000  0.0000000 )    f =(  0.4999996 )
                  (  0.0000000  1.0000000  0.0000000 )       (  0.0000000 )
                  (  0.0000000  0.0000000  1.0000000 )       (  0.0000000 )


      isym =  5     inv. 180 deg rotation - cryst. axis [0,1,0]  

 cryst.   s( 5) = (     1          1          0      )
                  (     0         -1          0      )
                  (     0          0          1      )

 cart.    s( 5) = (  0.5000000  0.8660254  0.0000000 )
                  (  0.8660254 -0.5000000  0.0000000 )
                  (  0.0000000  0.0000000  1.0000000 )


      isym =  6     inv. 180 deg rotation - cryst. axis [1,1,0]  

 cryst.   s( 6) = (     0         -1          0      )    f =(  0.4999999 )
                  (    -1          0          0      )       (  0.4999999 )
                  (     0          0          1      )       (  0.0000000 )

 cart.    s( 6) = (  0.5000000 -0.8660254  0.0000000 )    f =(  0.2500000 )
                  ( -0.8660254 -0.5000000  0.0000000 )       (  0.4330127 )
                  (  0.0000000  0.0000000  1.0000000 )       (  0.0000000 )


     point group C_3v (3m)  
     there are  3 classes
     the character table:

       E     2C3   3s_v 
A_1    1.00  1.00  1.00
A_2    1.00  1.00 -1.00
E      2.00 -1.00  0.00

     the symmetry operations in each class and the name of the first element:

     E        1
          identity                                               
     2C3      2    3
          120 deg rotation - cryst. axis [0,0,1]                 
     3s_v     4    5    6
          inv. 180 deg rotation - cart. axis [1,0,0]             

   Cartesian axes

     site n.     atom                  positions (alat units)
         1           Ga  tau(   1) = (   0.2500002   0.1443375   1.2217266  )
         2           Ga  tau(   2) = (   0.0000002   0.5773502   0.4067871  )
         3           Ga  tau(   3) = (   0.0000002   0.5773502   1.2217266  )
         4           Ga  tau(   4) = (   0.7500002   0.1443375   0.4067871  )
         5           Ga  tau(   5) = (   0.7500002   0.1443375   1.2217266  )
         6           Ga  tau(   6) = (   0.5000002   0.5773502   0.4067871  )
         7           Ga  tau(   7) = (   0.5000002   0.5773502   1.2217266  )
         8           Ga  tau(   8) = (  -0.0000003   0.2886754   0.8142568  )
         9           Ga  tau(   9) = (  -0.0000003   0.2886754   1.6291964  )
        10           Ga  tau(  10) = (  -0.2500003   0.7216881   0.8142568  )
        11           Ga  tau(  11) = (  -0.2500003   0.7216881   1.6291964  )
        12           Ga  tau(  12) = (   0.4999997   0.2886754   0.8142568  )
        13           Ga  tau(  13) = (   0.4999997   0.2886754   1.6291964  )
        14           Ga  tau(  14) = (   0.2499997   0.7216881   0.8142568  )
        15           Ga  tau(  15) = (   0.2499997   0.7216881   1.6291964  )
        16           N   tau(  16) = (   0.2500002   0.1443375   0.7137548  )
        17           N   tau(  17) = (   0.2500002   0.1443375   1.5286943  )
        18           N   tau(  18) = (   0.0000002   0.5773502   0.7137548  )
        19           N   tau(  19) = (   0.0000002   0.5773502   1.5286943  )
        20           N   tau(  20) = (   0.7500002   0.1443375   0.7137548  )
        21           N   tau(  21) = (   0.7500002   0.1443375   1.5286943  )
        22           N   tau(  22) = (   0.5000002   0.5773502   0.7137548  )
        23           N   tau(  23) = (   0.5000002   0.5773502   1.5286943  )
        24           N   tau(  24) = (  -0.0000003   0.2886754   0.3062850  )
        25           N   tau(  25) = (  -0.0000003   0.2886754   1.1212245  )
        26           N   tau(  26) = (  -0.2500003   0.7216881   0.3062850  )
        27           N   tau(  27) = (  -0.2500003   0.7216881   1.1212245  )
        28           N   tau(  28) = (   0.4999997   0.2886754   0.3062850  )
        29           N   tau(  29) = (   0.4999997   0.2886754   1.1212245  )
        30           N   tau(  30) = (   0.2499997   0.7216881   0.3062850  )
        31           N   tau(  31) = (   0.2499997   0.7216881   1.1212245  )

   Crystallographic axes

     site n.     atom                  positions (cryst. coord.)
         1           Ga  tau(   1) = (  0.3333335  0.1666666  0.7495811  )
         2           Ga  tau(   2) = (  0.3333335  0.6666666  0.2495811  )
         3           Ga  tau(   3) = (  0.3333335  0.6666666  0.7495811  )
         4           Ga  tau(   4) = (  0.8333335  0.1666666  0.2495811  )
         5           Ga  tau(   5) = (  0.8333335  0.1666666  0.7495811  )
         6           Ga  tau(   6) = (  0.8333335  0.6666666  0.2495811  )
         7           Ga  tau(   7) = (  0.8333335  0.6666666  0.7495811  )
         8           Ga  tau(   8) = (  0.1666665  0.3333336  0.4995811  )
         9           Ga  tau(   9) = (  0.1666665  0.3333336  0.9995811  )
        10           Ga  tau(  10) = (  0.1666665  0.8333336  0.4995811  )
        11           Ga  tau(  11) = (  0.1666665  0.8333336  0.9995811  )
        12           Ga  tau(  12) = (  0.6666665  0.3333336  0.4995811  )
        13           Ga  tau(  13) = (  0.6666665  0.3333336  0.9995811  )
        14           Ga  tau(  14) = (  0.6666665  0.8333336  0.4995811  )
        15           Ga  tau(  15) = (  0.6666665  0.8333336  0.9995811  )
        16           N   tau(  16) = (  0.3333335  0.1666666  0.4379189  )
        17           N   tau(  17) = (  0.3333335  0.1666666  0.9379189  )
        18           N   tau(  18) = (  0.3333335  0.6666666  0.4379189  )
        19           N   tau(  19) = (  0.3333335  0.6666666  0.9379189  )
        20           N   tau(  20) = (  0.8333335  0.1666666  0.4379189  )
        21           N   tau(  21) = (  0.8333335  0.1666666  0.9379189  )
        22           N   tau(  22) = (  0.8333335  0.6666666  0.4379189  )
        23           N   tau(  23) = (  0.8333335  0.6666666  0.9379189  )
        24           N   tau(  24) = (  0.1666665  0.3333336  0.1879189  )
        25           N   tau(  25) = (  0.1666665  0.3333336  0.6879189  )
        26           N   tau(  26) = (  0.1666665  0.8333336  0.1879189  )
        27           N   tau(  27) = (  0.1666665  0.8333336  0.6879189  )
        28           N   tau(  28) = (  0.6666665  0.3333336  0.1879189  )
        29           N   tau(  29) = (  0.6666665  0.3333336  0.6879189  )
        30           N   tau(  30) = (  0.6666665  0.8333336  0.1879189  )
        31           N   tau(  31) = (  0.6666665  0.8333336  0.6879189  )

     number of k points=     8  Gaussian smearing, width (Ry)=  0.0100
                       cart. coord. in units 2pi/alat
        k(    1) = (   0.0000000   0.0000000   0.0000000), wk =   0.0625000
        k(    2) = (   0.0000000   0.0000000  -0.3067712), wk =   0.0625000
        k(    3) = (   0.0000000   0.2886751   0.0000000), wk =   0.3750000
        k(    4) = (   0.0000000   0.2886751  -0.3067712), wk =   0.3750000
        k(    5) = (   0.0000000  -0.5773503   0.0000000), wk =   0.1875000
        k(    6) = (   0.0000000  -0.5773503  -0.3067712), wk =   0.1875000
        k(    7) = (   0.2500000   0.4330127   0.0000000), wk =   0.3750000
        k(    8) = (   0.2500000   0.4330127  -0.3067712), wk =   0.3750000

                       cryst. coord.
        k(    1) = (   0.0000000   0.0000000   0.0000000), wk =   0.0625000
        k(    2) = (   0.0000000   0.0000000  -0.5000000), wk =   0.0625000
        k(    3) = (   0.0000000   0.2500000   0.0000000), wk =   0.3750000
        k(    4) = (   0.0000000   0.2500000  -0.5000000), wk =   0.3750000
        k(    5) = (   0.0000000  -0.5000000   0.0000000), wk =   0.1875000
        k(    6) = (   0.0000000  -0.5000000  -0.5000000), wk =   0.1875000
        k(    7) = (   0.2500000   0.2500000   0.0000000), wk =   0.3750000
        k(    8) = (   0.2500000   0.2500000  -0.5000000), wk =   0.3750000

     Dense  grid:   287969 G-vectors     FFT dimensions: (  80,  80, 120)

     Smooth grid:   206075 G-vectors     FFT dimensions: (  72,  72, 108)

     Dynamical RAM for                 wfc:       2.41 MB

     Dynamical RAM for     wfc (w. buffer):      21.73 MB

     Dynamical RAM for           str. fact:       0.33 MB

     Dynamical RAM for           local pot:       0.00 MB

     Dynamical RAM for          nlocal pot:       5.79 MB

     Dynamical RAM for                qrad:       3.00 MB

     Dynamical RAM for          rho,v,vnew:       1.22 MB

     Dynamical RAM for               rhoin:       0.41 MB

     Dynamical RAM for            rho*nmix:       2.60 MB

     Dynamical RAM for           G-vectors:       0.67 MB

     Dynamical RAM for          h,s,v(r/c):      20.18 MB

     Dynamical RAM for          <psi|beta>:       1.01 MB

     Dynamical RAM for                 psi:       9.66 MB

     Dynamical RAM for                hpsi:       9.66 MB

     Dynamical RAM for                spsi:       9.66 MB

     Dynamical RAM for      wfcinit/wfcrot:       5.46 MB

     Dynamical RAM for           addusdens:      32.88 MB

     Dynamical RAM for          addusforce:      37.91 MB

     Dynamical RAM for         addusstress:      32.72 MB

     Estimated static dynamical RAM per process >      34.85 MB

     Estimated max dynamical RAM per process >      87.61 MB

     Estimated total dynamical RAM >       2.31 GB

     Atomic positions and unit cell read from directory:
     ./GaN.save/
     Atomic positions from file used, from input discarded
 

     Check: negative core charge=   -0.000004

     The initial density is read from file :
     ./GaN.save/charge-density



     %%%%%%%%%%%%%%%%%%%%%%%%%%%%%%%%%%%%%%%%%%%%%%%%%%%%%%%%%%%%%%%%%%%%%%%%
     %                                                                      %
     % You are using vdW-DF, which was implemented by the Thonhauser group. %
     % Please cite the following two papers that made this development      %
     % possible and the two reviews that describe the various versions:     %
     %                                                                      %
     %   T. Thonhauser et al., PRL 115, 136402 (2015).                      %
     %   T. Thonhauser et al., PRB 76, 125112 (2007).                       %
     %   K. Berland et al., Rep. Prog. Phys. 78, 066501 (2015).             %
     %   D.C. Langreth et al., J. Phys.: Condens. Matter 21, 084203 (2009). %
     %                                                                      %
     % If you are calculating stress with vdW-DF, please also cite:         %
     %                                                                      %
     %   R. Sabatini et al., J. Phys.: Condens. Matter 24, 424209 (2012).   %
     %                                                                      %
     %%%%%%%%%%%%%%%%%%%%%%%%%%%%%%%%%%%%%%%%%%%%%%%%%%%%%%%%%%%%%%%%%%%%%%%%

     %%%%%%%%%%%%%%%%%%%%%%%%%%%%%%%%%%%%%%%%%%%%%%%%%%%%%%%%%%%%%%%%%%%%%%%%
     %                                                                      %
     %  vdW-DF NEWS:                                                        %
     %                                                                      %
     %  * vdW-DF3 is now available. DOI: 10.1021/acs.jctc.0c00471           %
     %    use with input_dft = 'vdW-DF3-opt1' or 'vdW-DF3-opt2'             %
     %                                                                      %
     %  * Unscreened and range-separated vdW-DF hybrid functionals          %
     %    DOI: 10.1063/1.4986522 and 10.1088/1361-648X/ac2ad2               %
     %    use with input_dft = 'vdW-DF-cx0' (etc) and 'vdW-DF-ahcx'         %
     %                                                                      %
     %%%%%%%%%%%%%%%%%%%%%%%%%%%%%%%%%%%%%%%%%%%%%%%%%%%%%%%%%%%%%%%%%%%%%%%%


     Carrying out vdW-DF run using the following parameters:
     Nqs    =  20  Npoints =  1024  r_max =  100.000
     q_mesh =  0.00001000  0.04494208  0.09755937  0.15916263
               0.23128650  0.31572767  0.41458969  0.53033537
               0.66584808  0.82450364  1.01025438  1.22772762
               1.48234092  1.78043706  2.12944203  2.53805004
               3.01644009  3.57652955  4.23227104  5.00000000


     -----------------------------------------------
     Non-local corr. energy    =       8.27281875 Ry
     -----------------------------------------------

     Starting wfcs from file
     Checking if some PAW data can be deallocated... 
       PAW data deallocated on   16 nodes for type:  1
       PAW data deallocated on   11 nodes for type:  2

     total cpu time spent up to now is        6.3 secs

     Self-consistent Calculation

     iteration #  1     ecut=    70.00 Ry     beta= 0.70
     Davidson diagonalization with overlap

---- Real-time Memory Report at c_bands before calling an iterative solver
           254 MiB given to the printing process from OS
             0 MiB allocation reported by mallinfo(arena+hblkhd)
       1959556 MiB available memory on the node where the printing process lives
------------------
     ethr =  1.00E-05,  avg # of iterations =  1.0

     Threshold (ethr) on eigenvalues was too large:
     Diagonalizing with lowered threshold

     Davidson diagonalization with overlap

---- Real-time Memory Report at c_bands before calling an iterative solver
           302 MiB given to the printing process from OS
             0 MiB allocation reported by mallinfo(arena+hblkhd)
       1958367 MiB available memory on the node where the printing process lives
------------------
     ethr =  1.57E-13,  avg # of iterations = 10.6


     -----------------------------------------------
     Non-local corr. energy    =       8.27281886 Ry
     -----------------------------------------------


     total cpu time spent up to now is       27.5 secs

     End of self-consistent calculation

          k = 0.0000 0.0000 0.0000 ( 25781 PWs)   bands (ev):

    -7.5821  -7.2710  -7.2463  -7.1703  -7.1367  -7.1367  -7.1200  -7.0900
    -7.0865  -7.0865  -7.0609  -7.0608  -6.9657  -6.9075  -6.9075  -6.8754
    -6.0081  -6.0081  -5.9999  -5.9826  -5.9826  -5.9763  -5.9763  -5.9642
    -5.9591  -5.9591  -5.9458  -5.9441  -5.9441  -5.9425  -5.9341  -5.9341
    -5.9093  -5.9093  -5.8814  -5.8814  -5.8714  -5.8654  -5.8654  -5.8600
    -5.8490  -5.8490  -5.8414  -5.8347  -5.8211  -5.8211  -5.8077  -5.8043
    -5.8043  -5.8002  -5.8002  -5.7789  -5.7789  -5.7789  -5.7722  -5.7611
    -5.7611  -5.7587  -5.7587  -5.7482  -5.7468  -5.7468  -5.7430  -5.7430
    -5.7425  -5.7290  -5.7290  -5.7221  -5.7117  -5.7117  -5.6909  -5.6879
    -5.6879  -5.6511  -5.6511  -5.6304  -5.5327  -5.4123  -4.3549  -4.3549
    -4.3126  -4.2184  -4.1013  -4.0866  -4.0866  -4.0472  -4.0472  -3.9945
    -3.6793  -3.6793  -3.6575   1.4611   1.6632   1.6978   1.6979   1.7643
     1.7643   1.7819   1.9096   1.9097   2.5596   2.9464   2.9465   4.0279
     4.1337   4.1337   4.1826   4.4616   5.4829   5.5215   5.5215   5.5454
     5.9701   5.9779   5.9780   6.1528   6.1528   6.1821   6.2290   6.2290
     6.2565   6.2565   6.2935   6.4955   6.5257   6.5257   7.0042   7.0042
     7.1354   7.2563   7.2563   7.3774   7.5202   7.5203   7.8936   7.8937
     8.1571   8.3800   8.3800   9.8003  11.9218  11.9984  12.3068  12.5324
    12.5325  12.6767  12.6768  12.6957  12.7822  13.2429  13.2430  13.4500
    13.7021  13.7021  14.4496  14.4496  14.4502  14.6762  15.5578  15.5579
    15.9691  16.0411  16.0411  16.1553  16.2884  16.2884

     occupation numbers 
     1.0000   1.0000   1.0000   1.0000   1.0000   1.0000   1.0000   1.0000
     1.0000   1.0000   1.0000   1.0000   1.0000   1.0000   1.0000   1.0000
     1.0000   1.0000   1.0000   1.0000   1.0000   1.0000   1.0000   1.0000
     1.0000   1.0000   1.0000   1.0000   1.0000   1.0000   1.0000   1.0000
     1.0000   1.0000   1.0000   1.0000   1.0000   1.0000   1.0000   1.0000
     1.0000   1.0000   1.0000   1.0000   1.0000   1.0000   1.0000   1.0000
     1.0000   1.0000   1.0000   1.0000   1.0000   1.0000   1.0000   1.0000
     1.0000   1.0000   1.0000   1.0000   1.0000   1.0000   1.0000   1.0000
     1.0000   1.0000   1.0000   1.0000   1.0000   1.0000   1.0000   1.0000
     1.0000   1.0000   1.0000   1.0000   1.0000   1.0000   1.0000   1.0000
     1.0000   1.0000   1.0000   1.0000   1.0000   1.0000   1.0000   1.0000
     1.0000   1.0000   1.0000   1.0000   1.0000   1.0000   1.0000   1.0000
     1.0000   1.0000   1.0000   1.0000   1.0000   1.0000   1.0000   1.0000
     1.0000   1.0000   1.0000   1.0000   1.0000   1.0000   1.0000   1.0000
     1.0000   1.0000   1.0000   1.0000   1.0000   1.0000   1.0000   1.0000
     1.0000   1.0000   1.0000   1.0000   1.0000   1.0000   1.0000   1.0000
     1.0000   1.0000   1.0000   1.0000   1.0000   1.0000   0.9888   0.9888
     0.3247   0.0028   0.0028   0.0000   0.0000   0.0000   0.0000   0.0000
     0.0000   0.0000   0.0000   0.0000   0.0000   0.0000   0.0000   0.0000
     0.0000   0.0000   0.0000   0.0000   0.0000   0.0000   0.0000   0.0000
     0.0000   0.0000   0.0000   0.0000   0.0000   0.0000

          k = 0.0000 0.0000-0.3068 ( 25758 PWs)   bands (ev):

    -7.4932  -7.4296  -7.1838  -7.1699  -7.1218  -7.1216  -7.1216  -7.1034
    -7.1033  -7.0907  -7.0583  -7.0583  -6.9683  -6.9090  -6.9089  -6.8739
    -6.0082  -6.0082  -5.9838  -5.9838  -5.9793  -5.9757  -5.9757  -5.9547
    -5.9546  -5.9480  -5.9453  -5.9453  -5.9343  -5.9290  -5.9290  -5.9163
    -5.9031  -5.9018  -5.9018  -5.8950  -5.8873  -5.8873  -5.8734  -5.8734
    -5.8441  -5.8415  -5.8415  -5.8277  -5.8277  -5.8235  -5.8221  -5.8194
    -5.8194  -5.8051  -5.7911  -5.7911  -5.7802  -5.7802  -5.7732  -5.7653
    -5.7653  -5.7636  -5.7576  -5.7576  -5.7484  -5.7484  -5.7425  -5.7354
    -5.7354  -5.7314  -5.7271  -5.7271  -5.7202  -5.7117  -5.7117  -5.6941
    -5.6874  -5.6874  -5.6514  -5.6514  -5.6305  -4.7774  -4.6864  -4.3010
    -4.3010  -4.2863  -4.2591  -4.2590  -4.1203  -3.9540  -3.8525  -3.8525
    -3.7524  -3.7524  -3.6588   1.5762   1.5763   1.5876   1.6857   1.6857
     1.9364   2.2479   2.3141   2.3681   2.3682   2.5105   2.5193   2.5194
     4.4401   4.8986   4.8986   4.9673   4.9673   5.1828   5.6158   5.6159
     5.6400   5.7510   5.8808   5.8809   5.9104   6.3471   6.4455   6.4504
     6.4505   6.5090   6.5090   6.7160   6.7672   6.8005   6.8005   6.9061
     6.9061   6.9336   7.1645   7.1646   7.5800   7.5801   7.7062   7.8876
     7.8877   8.3751   8.3751  10.8336  11.0669  12.0677  12.2868  12.4021
    12.4022  12.5652  12.5732  12.5733  12.9075  13.1670  13.1671  13.2572
    13.6822  13.6823  14.6337  15.4014  15.4015  15.4434  15.5339  15.5339
    15.5705  15.7311  15.7312  15.9686  15.9687  16.0408

     occupation numbers 
     1.0000   1.0000   1.0000   1.0000   1.0000   1.0000   1.0000   1.0000
     1.0000   1.0000   1.0000   1.0000   1.0000   1.0000   1.0000   1.0000
     1.0000   1.0000   1.0000   1.0000   1.0000   1.0000   1.0000   1.0000
     1.0000   1.0000   1.0000   1.0000   1.0000   1.0000   1.0000   1.0000
     1.0000   1.0000   1.0000   1.0000   1.0000   1.0000   1.0000   1.0000
     1.0000   1.0000   1.0000   1.0000   1.0000   1.0000   1.0000   1.0000
     1.0000   1.0000   1.0000   1.0000   1.0000   1.0000   1.0000   1.0000
     1.0000   1.0000   1.0000   1.0000   1.0000   1.0000   1.0000   1.0000
     1.0000   1.0000   1.0000   1.0000   1.0000   1.0000   1.0000   1.0000
     1.0000   1.0000   1.0000   1.0000   1.0000   1.0000   1.0000   1.0000
     1.0000   1.0000   1.0000   1.0000   1.0000   1.0000   1.0000   1.0000
     1.0000   1.0000   1.0000   1.0000   1.0000   1.0000   1.0000   1.0000
     1.0000   1.0000   1.0000   1.0000   1.0000   1.0000   1.0000   1.0000
     1.0000   1.0000   1.0000   1.0000   1.0000   1.0000   1.0000   1.0000
     1.0000   1.0000   1.0000   1.0000   1.0000   1.0000   1.0000   1.0000
     1.0000   1.0000   1.0000   1.0000   1.0000   1.0000   1.0000   1.0000
     1.0000   1.0000   1.0000   1.0000   1.0000   1.0000   1.0000   0.9905
     0.9905   0.0033   0.0033   0.0000   0.0000   0.0000   0.0000   0.0000
     0.0000   0.0000   0.0000   0.0000   0.0000   0.0000   0.0000   0.0000
     0.0000   0.0000   0.0000   0.0000   0.0000   0.0000   0.0000   0.0000
     0.0000   0.0000   0.0000   0.0000   0.0000   0.0000

          k = 0.0000 0.2887 0.0000 ( 25764 PWs)   bands (ev):

    -7.4821  -7.2279  -7.2124  -7.1684  -7.1411  -7.1293  -7.1138  -7.0932
    -7.0868  -7.0815  -7.0638  -7.0579  -6.9568  -6.9137  -6.9016  -6.8661
    -5.9957  -5.9900  -5.9762  -5.9694  -5.9690  -5.9609  -5.9601  -5.9556
    -5.9549  -5.9504  -5.9445  -5.9364  -5.9282  -5.9275  -5.9155  -5.9129
    -5.9041  -5.8968  -5.8855  -5.8818  -5.8778  -5.8718  -5.8673  -5.8551
    -5.8537  -5.8460  -5.8410  -5.8395  -5.8275  -5.8231  -5.8170  -5.8144
    -5.8125  -5.8055  -5.8024  -5.7944  -5.7877  -5.7875  -5.7831  -5.7785
    -5.7754  -5.7702  -5.7653  -5.7630  -5.7618  -5.7571  -5.7552  -5.7502
    -5.7464  -5.7382  -5.7334  -5.7312  -5.7278  -5.7154  -5.7043  -5.6998
    -5.6870  -5.6693  -5.6567  -5.6468  -5.3992  -5.2930  -4.8784  -4.4865
    -4.4356  -4.4030  -4.2903  -4.1479  -4.0985  -4.0455  -4.0387  -3.8858
    -3.6429  -3.5914  -3.5752   1.6436   1.9354   1.9415   2.0073   2.0074
     2.1167   2.1188   2.2706   2.3904   2.8895   3.0857   3.3900   3.7642
     4.0962   4.1303   4.1769   4.4578   4.9778   4.9908   5.3358   5.4385
     5.5461   5.5923   5.7553   5.7620   6.0530   6.1193   6.1222   6.2413
     6.3344   6.3405   6.4036   6.4476   6.4871   6.5411   6.5892   6.6930
     6.7124   6.8102   6.8732   6.9298   7.2187   7.3009   7.4392   7.7463
     7.9990   8.1125   8.3398  10.8314  12.5626  12.6705  12.7812  12.8482
    12.9288  13.1298  13.1657  13.2956  13.3071  13.4228  13.8679  13.9314
    14.0887  14.2271  14.4710  14.5714  14.7764  14.9720  15.6216  15.7255
    15.8007  16.0065  16.0462  16.0926  16.1284  16.2833

     occupation numbers 
     1.0000   1.0000   1.0000   1.0000   1.0000   1.0000   1.0000   1.0000
     1.0000   1.0000   1.0000   1.0000   1.0000   1.0000   1.0000   1.0000
     1.0000   1.0000   1.0000   1.0000   1.0000   1.0000   1.0000   1.0000
     1.0000   1.0000   1.0000   1.0000   1.0000   1.0000   1.0000   1.0000
     1.0000   1.0000   1.0000   1.0000   1.0000   1.0000   1.0000   1.0000
     1.0000   1.0000   1.0000   1.0000   1.0000   1.0000   1.0000   1.0000
     1.0000   1.0000   1.0000   1.0000   1.0000   1.0000   1.0000   1.0000
     1.0000   1.0000   1.0000   1.0000   1.0000   1.0000   1.0000   1.0000
     1.0000   1.0000   1.0000   1.0000   1.0000   1.0000   1.0000   1.0000
     1.0000   1.0000   1.0000   1.0000   1.0000   1.0000   1.0000   1.0000
     1.0000   1.0000   1.0000   1.0000   1.0000   1.0000   1.0000   1.0000
     1.0000   1.0000   1.0000   1.0000   1.0000   1.0000   1.0000   1.0000
     1.0000   1.0000   1.0000   1.0000   1.0000   1.0000   1.0000   1.0000
     1.0000   1.0000   1.0000   1.0000   1.0000   1.0000   1.0000   1.0000
     1.0000   1.0000   1.0000   1.0000   1.0000   1.0000   1.0000   1.0000
     1.0000   1.0000   1.0000   1.0000   1.0000   1.0000   1.0000   1.0000
     1.0000   1.0000   1.0000   1.0000   1.0000   1.0000   1.0000   0.9999
     0.8828   0.5036   0.0093   0.0000   0.0000   0.0000   0.0000   0.0000
     0.0000   0.0000   0.0000   0.0000   0.0000   0.0000   0.0000   0.0000
     0.0000   0.0000   0.0000   0.0000   0.0000   0.0000   0.0000   0.0000
     0.0000   0.0000   0.0000   0.0000   0.0000   0.0000

          k = 0.0000 0.2887-0.3068 ( 25732 PWs)   bands (ev):

    -7.4028  -7.3578  -7.1738  -7.1546  -7.1326  -7.1165  -7.1144  -7.1059
    -7.0977  -7.0885  -7.0614  -7.0557  -6.9595  -6.9154  -6.9032  -6.8651
    -5.9952  -5.9894  -5.9785  -5.9703  -5.9670  -5.9594  -5.9583  -5.9500
    -5.9491  -5.9404  -5.9385  -5.9356  -5.9316  -5.9253  -5.9153  -5.9103
    -5.8993  -5.8965  -5.8940  -5.8873  -5.8775  -5.8753  -5.8653  -5.8640
    -5.8524  -5.8514  -5.8393  -5.8375  -5.8310  -5.8232  -5.8207  -5.8199
    -5.8146  -5.8104  -5.7974  -5.7862  -5.7852  -5.7821  -5.7801  -5.7748
    -5.7748  -5.7700  -5.7671  -5.7595  -5.7579  -5.7532  -5.7513  -5.7468
    -5.7405  -5.7393  -5.7359  -5.7346  -5.7265  -5.7148  -5.7066  -5.7040
    -5.6872  -5.6844  -5.6648  -5.6569  -5.6472  -4.8203  -4.7656  -4.6230
    -4.5583  -4.3685  -4.3553  -4.3128  -4.1438  -3.9022  -3.8658  -3.7820
    -3.7639  -3.7055  -3.6223   1.8092   1.8229   1.9165   1.9439   2.0594
     2.2439   2.4090   2.5220   2.5868   2.6483   2.6969   3.0426   3.0756
     4.3299   4.6170   4.6391   4.6457   4.8274   5.0696   5.2378   5.3266
     5.4404   5.5481   5.7402   5.8149   5.9530   5.9767   6.1020   6.1770
     6.1978   6.2822   6.3267   6.3645   6.5268   6.6041   6.7027   6.7306
     6.8921   6.8941   6.9173   6.9430   7.1864   7.4283   7.4867   7.7109
     7.7213   8.1810   8.3330  11.4953  11.6353  12.4679  12.5488  12.8500
    12.9594  13.0340  13.1454  13.1937  13.3712  13.5676  14.0106  14.0403
    14.1802  14.4106  14.8316  15.1903  15.2103  15.3386  15.3997  15.4553
    15.5949  15.7982  15.8301  16.0345  16.1307  16.1608

     occupation numbers 
     1.0000   1.0000   1.0000   1.0000   1.0000   1.0000   1.0000   1.0000
     1.0000   1.0000   1.0000   1.0000   1.0000   1.0000   1.0000   1.0000
     1.0000   1.0000   1.0000   1.0000   1.0000   1.0000   1.0000   1.0000
     1.0000   1.0000   1.0000   1.0000   1.0000   1.0000   1.0000   1.0000
     1.0000   1.0000   1.0000   1.0000   1.0000   1.0000   1.0000   1.0000
     1.0000   1.0000   1.0000   1.0000   1.0000   1.0000   1.0000   1.0000
     1.0000   1.0000   1.0000   1.0000   1.0000   1.0000   1.0000   1.0000
     1.0000   1.0000   1.0000   1.0000   1.0000   1.0000   1.0000   1.0000
     1.0000   1.0000   1.0000   1.0000   1.0000   1.0000   1.0000   1.0000
     1.0000   1.0000   1.0000   1.0000   1.0000   1.0000   1.0000   1.0000
     1.0000   1.0000   1.0000   1.0000   1.0000   1.0000   1.0000   1.0000
     1.0000   1.0000   1.0000   1.0000   1.0000   1.0000   1.0000   1.0000
     1.0000   1.0000   1.0000   1.0000   1.0000   1.0000   1.0000   1.0000
     1.0000   1.0000   1.0000   1.0000   1.0000   1.0000   1.0000   1.0000
     1.0000   1.0000   1.0000   1.0000   1.0000   1.0000   1.0000   1.0000
     1.0000   1.0000   1.0000   1.0000   1.0000   1.0000   1.0000   1.0000
     1.0000   1.0000   1.0000   1.0000   1.0000   1.0000   1.0000   1.0000
     1.0000   0.2411   0.0112   0.0000   0.0000   0.0000   0.0000   0.0000
     0.0000   0.0000   0.0000   0.0000   0.0000   0.0000   0.0000   0.0000
     0.0000   0.0000   0.0000   0.0000   0.0000   0.0000   0.0000   0.0000
     0.0000   0.0000   0.0000   0.0000   0.0000   0.0000

          k = 0.0000-0.5774 0.0000 ( 25772 PWs)   bands (ev):

    -7.3236  -7.2486  -7.1759  -7.1484  -7.1345  -7.1216  -7.1211  -7.0964
    -7.0906  -7.0764  -7.0686  -7.0550  -6.9397  -6.9278  -6.8955  -6.8563
    -5.9818  -5.9816  -5.9713  -5.9624  -5.9599  -5.9482  -5.9455  -5.9430
    -5.9310  -5.9246  -5.9182  -5.9099  -5.9092  -5.9085  -5.9069  -5.9050
    -5.8969  -5.8938  -5.8876  -5.8849  -5.8812  -5.8695  -5.8586  -5.8538
    -5.8495  -5.8450  -5.8430  -5.8391  -5.8382  -5.8339  -5.8284  -5.8249
    -5.8178  -5.8111  -5.8091  -5.8033  -5.8013  -5.8010  -5.7972  -5.7909
    -5.7903  -5.7853  -5.7768  -5.7713  -5.7707  -5.7594  -5.7546  -5.7531
    -5.7497  -5.7459  -5.7391  -5.7349  -5.7235  -5.7221  -5.7062  -5.6904
    -5.6842  -5.6642  -5.6608  -5.5988  -5.5006  -5.0687  -4.9710  -4.9499
    -4.8297  -4.4981  -4.3901  -4.1122  -4.1092  -4.0474  -3.9017  -3.8838
    -3.7337  -3.5291  -3.5189   1.9944   2.2199   2.2448   2.2557   2.3556
     2.3603   2.4043   2.9652   3.1280   3.3630   3.5375   3.6127   3.6899
     4.0783   4.1727   4.2881   4.3848   4.3878   4.5322   4.8382   4.8681
     4.9357   5.1186   5.1464   5.4137   5.8516   6.0138   6.0211   6.0283
     6.1181   6.1838   6.2160   6.2399   6.3436   6.3918   6.4606   6.5489
     6.5875   6.7789   6.7858   6.8215   7.0375   7.3259   7.4624   7.5279
     7.6216   8.0396   8.2882  12.0299  12.2532  13.1259  13.1482  13.1781
    13.3770  13.7455  13.8163  13.8172  13.9600  14.0777  14.2701  14.3501
    14.4169  14.4732  14.9156  15.4133  15.4165  15.4713  15.5614  15.5743
    15.6421  15.7955  15.8253  15.8693  15.9038  16.0541

     occupation numbers 
     1.0000   1.0000   1.0000   1.0000   1.0000   1.0000   1.0000   1.0000
     1.0000   1.0000   1.0000   1.0000   1.0000   1.0000   1.0000   1.0000
     1.0000   1.0000   1.0000   1.0000   1.0000   1.0000   1.0000   1.0000
     1.0000   1.0000   1.0000   1.0000   1.0000   1.0000   1.0000   1.0000
     1.0000   1.0000   1.0000   1.0000   1.0000   1.0000   1.0000   1.0000
     1.0000   1.0000   1.0000   1.0000   1.0000   1.0000   1.0000   1.0000
     1.0000   1.0000   1.0000   1.0000   1.0000   1.0000   1.0000   1.0000
     1.0000   1.0000   1.0000   1.0000   1.0000   1.0000   1.0000   1.0000
     1.0000   1.0000   1.0000   1.0000   1.0000   1.0000   1.0000   1.0000
     1.0000   1.0000   1.0000   1.0000   1.0000   1.0000   1.0000   1.0000
     1.0000   1.0000   1.0000   1.0000   1.0000   1.0000   1.0000   1.0000
     1.0000   1.0000   1.0000   1.0000   1.0000   1.0000   1.0000   1.0000
     1.0000   1.0000   1.0000   1.0000   1.0000   1.0000   1.0000   1.0000
     1.0000   1.0000   1.0000   1.0000   1.0000   1.0000   1.0000   1.0000
     1.0000   1.0000   1.0000   1.0000   1.0000   1.0000   1.0000   1.0000
     1.0000   1.0000   1.0000   1.0000   1.0000   1.0000   1.0000   1.0000
     1.0000   1.0000   1.0000   1.0000   1.0000   1.0000   1.0000   1.0000
     1.0000   0.7786   0.0346   0.0000   0.0000   0.0000   0.0000   0.0000
     0.0000   0.0000   0.0000   0.0000   0.0000   0.0000   0.0000   0.0000
     0.0000   0.0000   0.0000   0.0000   0.0000   0.0000   0.0000   0.0000
     0.0000   0.0000   0.0000   0.0000   0.0000   0.0000

          k = 0.0000-0.5774-0.3068 ( 25740 PWs)   bands (ev):

    -7.2704  -7.2441  -7.2178  -7.1749  -7.1309  -7.1174  -7.1070  -7.0930
    -7.0916  -7.0900  -7.0681  -7.0532  -6.9427  -6.9301  -6.8973  -6.8558
    -5.9831  -5.9687  -5.9671  -5.9625  -5.9602  -5.9561  -5.9465  -5.9384
    -5.9374  -5.9318  -5.9218  -5.9215  -5.9149  -5.9106  -5.9077  -5.9041
    -5.8982  -5.8904  -5.8902  -5.8777  -5.8714  -5.8697  -5.8687  -5.8528
    -5.8508  -5.8496  -5.8465  -5.8405  -5.8331  -5.8314  -5.8309  -5.8233
    -5.8163  -5.8085  -5.8037  -5.8023  -5.7969  -5.7924  -5.7887  -5.7869
    -5.7865  -5.7796  -5.7778  -5.7757  -5.7714  -5.7609  -5.7585  -5.7552
    -5.7492  -5.7482  -5.7384  -5.7339  -5.7244  -5.7209  -5.7108  -5.6927
    -5.6852  -5.6649  -5.6609  -5.5021  -5.4403  -5.4339  -5.2417  -4.4727
    -4.4222  -4.3967  -4.3542  -4.3159  -4.2604  -4.1722  -3.9443  -3.7370
    -3.7296  -3.6665  -3.5883   2.1416   2.1722   2.2452   2.3599   2.4948
     2.5826   2.6337   2.7669   2.8144   2.8418   2.9479   4.0712   4.2752
     4.2894   4.2952   4.3895   4.4383   4.5561   4.5728   4.7284   4.9037
     4.9423   5.0986   5.1610   5.1772   5.3017   5.6389   5.6947   5.7055
     5.8401   6.0342   6.3015   6.3056   6.3299   6.6352   6.6394   6.7188
     6.8372   6.8848   7.0930   7.1505   7.2804   7.3083   7.3109   7.3478
     7.4269   8.1278   8.2815  12.2025  12.2518  12.3618  12.6155  13.7237
    13.7652  13.8369  13.8886  13.9204  13.9823  14.1528  14.2557  14.3691
    14.4783  14.6496  14.9801  15.2635  15.3363  15.5435  15.5702  15.6013
    15.7533  15.7966  15.8333  15.8454  15.9610  16.0910

     occupation numbers 
     1.0000   1.0000   1.0000   1.0000   1.0000   1.0000   1.0000   1.0000
     1.0000   1.0000   1.0000   1.0000   1.0000   1.0000   1.0000   1.0000
     1.0000   1.0000   1.0000   1.0000   1.0000   1.0000   1.0000   1.0000
     1.0000   1.0000   1.0000   1.0000   1.0000   1.0000   1.0000   1.0000
     1.0000   1.0000   1.0000   1.0000   1.0000   1.0000   1.0000   1.0000
     1.0000   1.0000   1.0000   1.0000   1.0000   1.0000   1.0000   1.0000
     1.0000   1.0000   1.0000   1.0000   1.0000   1.0000   1.0000   1.0000
     1.0000   1.0000   1.0000   1.0000   1.0000   1.0000   1.0000   1.0000
     1.0000   1.0000   1.0000   1.0000   1.0000   1.0000   1.0000   1.0000
     1.0000   1.0000   1.0000   1.0000   1.0000   1.0000   1.0000   1.0000
     1.0000   1.0000   1.0000   1.0000   1.0000   1.0000   1.0000   1.0000
     1.0000   1.0000   1.0000   1.0000   1.0000   1.0000   1.0000   1.0000
     1.0000   1.0000   1.0000   1.0000   1.0000   1.0000   1.0000   1.0000
     1.0000   1.0000   1.0000   1.0000   1.0000   1.0000   1.0000   1.0000
     1.0000   1.0000   1.0000   1.0000   1.0000   1.0000   1.0000   1.0000
     1.0000   1.0000   1.0000   1.0000   1.0000   1.0000   1.0000   1.0000
     1.0000   1.0000   1.0000   1.0000   1.0000   1.0000   1.0000   1.0000
     1.0000   0.4408   0.0403   0.0000   0.0000   0.0000   0.0000   0.0000
     0.0000   0.0000   0.0000   0.0000   0.0000   0.0000   0.0000   0.0000
     0.0000   0.0000   0.0000   0.0000   0.0000   0.0000   0.0000   0.0000
     0.0000   0.0000   0.0000   0.0000   0.0000   0.0000

          k = 0.2500 0.4330 0.0000 ( 25702 PWs)   bands (ev):

    -7.3432  -7.2129  -7.1779  -7.1608  -7.1448  -7.1217  -7.1048  -7.1028
    -7.0902  -7.0756  -7.0717  -7.0540  -6.9421  -6.9228  -6.8982  -6.8563
    -5.9840  -5.9764  -5.9714  -5.9613  -5.9572  -5.9528  -5.9477  -5.9396
    -5.9364  -5.9296  -5.9292  -5.9216  -5.9169  -5.9070  -5.9020  -5.9005
    -5.8971  -5.8925  -5.8877  -5.8824  -5.8803  -5.8716  -5.8647  -5.8534
    -5.8470  -5.8453  -5.8412  -5.8370  -5.8323  -5.8294  -5.8267  -5.8224
    -5.8147  -5.8126  -5.8072  -5.8030  -5.8011  -5.7990  -5.7952  -5.7945
    -5.7910  -5.7791  -5.7783  -5.7756  -5.7690  -5.7624  -5.7575  -5.7531
    -5.7472  -5.7460  -5.7420  -5.7282  -5.7209  -5.7149  -5.7129  -5.6974
    -5.6900  -5.6715  -5.6646  -5.6475  -5.2486  -5.1442  -5.0901  -4.9684
    -4.6584  -4.5935  -4.5749  -4.2942  -3.9898  -3.9067  -3.8382  -3.7815
    -3.6787  -3.6068  -3.5854   1.9484   2.0442   2.1136   2.2822   2.4161
     2.6447   2.8715   2.8839   2.9211   3.0034   3.5493   3.6337   3.7318
     3.8519   3.9589   4.1930   4.2555   4.3977   4.6809   4.9564   5.1269
     5.2062   5.4018   5.4838   5.6754   5.7249   5.8161   5.8893   5.9645
     6.0934   6.1255   6.1910   6.2476   6.3041   6.4539   6.4879   6.5330
     6.6135   6.7228   6.7654   6.8428   6.9538   7.0531   7.3673   7.4163
     7.7476   8.0655   8.1862  11.8907  13.0157  13.0876  13.2886  13.3339
    13.4460  13.4921  13.5559  13.6653  13.9698  14.0707  14.1743  14.3263
    14.5521  14.8258  15.0178  15.1398  15.2044  15.5146  15.5334  15.5618
    15.6025  15.7214  15.8419  15.9054  16.0066  16.1253

     occupation numbers 
     1.0000   1.0000   1.0000   1.0000   1.0000   1.0000   1.0000   1.0000
     1.0000   1.0000   1.0000   1.0000   1.0000   1.0000   1.0000   1.0000
     1.0000   1.0000   1.0000   1.0000   1.0000   1.0000   1.0000   1.0000
     1.0000   1.0000   1.0000   1.0000   1.0000   1.0000   1.0000   1.0000
     1.0000   1.0000   1.0000   1.0000   1.0000   1.0000   1.0000   1.0000
     1.0000   1.0000   1.0000   1.0000   1.0000   1.0000   1.0000   1.0000
     1.0000   1.0000   1.0000   1.0000   1.0000   1.0000   1.0000   1.0000
     1.0000   1.0000   1.0000   1.0000   1.0000   1.0000   1.0000   1.0000
     1.0000   1.0000   1.0000   1.0000   1.0000   1.0000   1.0000   1.0000
     1.0000   1.0000   1.0000   1.0000   1.0000   1.0000   1.0000   1.0000
     1.0000   1.0000   1.0000   1.0000   1.0000   1.0000   1.0000   1.0000
     1.0000   1.0000   1.0000   1.0000   1.0000   1.0000   1.0000   1.0000
     1.0000   1.0000   1.0000   1.0000   1.0000   1.0000   1.0000   1.0000
     1.0000   1.0000   1.0000   1.0000   1.0000   1.0000   1.0000   1.0000
     1.0000   1.0000   1.0000   1.0000   1.0000   1.0000   1.0000   1.0000
     1.0000   1.0000   1.0000   1.0000   1.0000   1.0000   1.0000   1.0000
     1.0000   1.0000   1.0000   1.0000   1.0000   1.0000   1.0000   1.0000
     0.9999   0.6908   0.2245   0.0000   0.0000   0.0000   0.0000   0.0000
     0.0000   0.0000   0.0000   0.0000   0.0000   0.0000   0.0000   0.0000
     0.0000   0.0000   0.0000   0.0000   0.0000   0.0000   0.0000   0.0000
     0.0000   0.0000   0.0000   0.0000   0.0000   0.0000

          k = 0.2500 0.4330-0.3068 ( 25730 PWs)   bands (ev):

    -7.2818  -7.2648  -7.1757  -7.1652  -7.1385  -7.1188  -7.1149  -7.1076
    -7.0864  -7.0826  -7.0695  -7.0526  -6.9450  -6.9252  -6.9000  -6.8559
    -5.9797  -5.9690  -5.9680  -5.9619  -5.9588  -5.9515  -5.9496  -5.9468
    -5.9389  -5.9363  -5.9299  -5.9270  -5.9173  -5.9136  -5.9060  -5.9039
    -5.8950  -5.8917  -5.8857  -5.8794  -5.8735  -5.8714  -5.8625  -5.8590
    -5.8530  -5.8528  -5.8447  -5.8410  -5.8307  -5.8289  -5.8253  -5.8168
    -5.8117  -5.8103  -5.8050  -5.8002  -5.7969  -5.7919  -5.7899  -5.7871
    -5.7864  -5.7809  -5.7768  -5.7692  -5.7655  -5.7632  -5.7592  -5.7543
    -5.7500  -5.7475  -5.7436  -5.7269  -5.7227  -5.7186  -5.7163  -5.6950
    -5.6896  -5.6694  -5.6636  -5.5757  -5.5011  -5.0929  -5.0333  -5.0234
    -4.7926  -4.3647  -4.3126  -4.0514  -3.9982  -3.9857  -3.9675  -3.8781
    -3.7849  -3.7177  -3.5764   2.1261   2.1995   2.3453   2.3988   2.4326
     2.5040   2.5298   2.5560   2.6645   3.3486   3.5736   3.6289   3.6525
     3.7031   4.0422   4.4133   4.6519   4.6626   4.8647   4.9645   5.0584
     5.2013   5.2636   5.3194   5.4087   5.4874   5.5149   5.6197   5.7103
     5.9358   6.0276   6.2049   6.3257   6.3696   6.4211   6.5910   6.6258
     6.6736   6.9699   6.9941   7.0860   7.1330   7.1666   7.2676   7.3678
     7.5556   8.1416   8.1983  12.2554  12.2988  12.8519  12.8794  13.0525
    13.2413  13.8360  14.0209  14.1029  14.1517  14.3345  14.4116  14.6123
    14.7897  14.9806  15.0338  15.0939  15.1222  15.1903  15.2471  15.4212
    15.6803  15.7193  15.7826  15.9138  15.9768  16.0070

     occupation numbers 
     1.0000   1.0000   1.0000   1.0000   1.0000   1.0000   1.0000   1.0000
     1.0000   1.0000   1.0000   1.0000   1.0000   1.0000   1.0000   1.0000
     1.0000   1.0000   1.0000   1.0000   1.0000   1.0000   1.0000   1.0000
     1.0000   1.0000   1.0000   1.0000   1.0000   1.0000   1.0000   1.0000
     1.0000   1.0000   1.0000   1.0000   1.0000   1.0000   1.0000   1.0000
     1.0000   1.0000   1.0000   1.0000   1.0000   1.0000   1.0000   1.0000
     1.0000   1.0000   1.0000   1.0000   1.0000   1.0000   1.0000   1.0000
     1.0000   1.0000   1.0000   1.0000   1.0000   1.0000   1.0000   1.0000
     1.0000   1.0000   1.0000   1.0000   1.0000   1.0000   1.0000   1.0000
     1.0000   1.0000   1.0000   1.0000   1.0000   1.0000   1.0000   1.0000
     1.0000   1.0000   1.0000   1.0000   1.0000   1.0000   1.0000   1.0000
     1.0000   1.0000   1.0000   1.0000   1.0000   1.0000   1.0000   1.0000
     1.0000   1.0000   1.0000   1.0000   1.0000   1.0000   1.0000   1.0000
     1.0000   1.0000   1.0000   1.0000   1.0000   1.0000   1.0000   1.0000
     1.0000   1.0000   1.0000   1.0000   1.0000   1.0000   1.0000   1.0000
     1.0000   1.0000   1.0000   1.0000   1.0000   1.0000   1.0000   1.0000
     1.0000   1.0000   1.0000   1.0000   1.0000   1.0000   1.0000   1.0000
     1.0000   0.3849   0.1889   0.0000   0.0000   0.0000   0.0000   0.0000
     0.0000   0.0000   0.0000   0.0000   0.0000   0.0000   0.0000   0.0000
     0.0000   0.0000   0.0000   0.0000   0.0000   0.0000   0.0000   0.0000
     0.0000   0.0000   0.0000   0.0000   0.0000   0.0000

     the Fermi energy is     8.1134 ev

!    total energy              =   -4712.81754536 Ry
     total all-electron energy =    -60166.068233 Ry
     estimated scf accuracy    <          6.0E-10 Ry
     smearing contrib. (-TS)   =      -0.00736856 Ry
     internal energy E=F+TS    =   -4712.81017680 Ry

     The total energy is F=E-TS. E is the sum of the following terms:
     one-electron contribution =   -1540.02103865 Ry
     hartree contribution      =    1050.65645509 Ry
     xc contribution           =    -688.23356460 Ry
     ewald contribution        =   -1662.60552144 Ry
     one-center paw contrib.   =   -1872.60650719 Ry
      -> PAW hartree energy AE =     289.77241474 Ry
      -> PAW hartree energy PS =    -286.99424453 Ry
      -> PAW xc energy AE      =    -313.93303889 Ry
      -> PAW xc energy PS      =      79.51595068 Ry
      -> total E_H with PAW    =    1053.43462530 Ry
      -> total E_XC with PAW   =    -922.65065282 Ry

     convergence has been achieved in   1 iterations


     -----------------------------------------------
     Non-local corr. energy    =       8.27281886 Ry
     -----------------------------------------------


     Forces acting on atoms (cartesian axes, Ry/au):

     atom    1 type  1   force =     0.00000000    0.00000000    0.00017699
     atom    2 type  1   force =    -0.00014181   -0.00008187   -0.00012859
     atom    3 type  1   force =    -0.00010612   -0.00006127   -0.00010388
     atom    4 type  1   force =     0.00000000    0.00016375   -0.00012859
     atom    5 type  1   force =     0.00000000    0.00012254   -0.00010388
     atom    6 type  1   force =     0.00014181   -0.00008187   -0.00012859
     atom    7 type  1   force =     0.00010612   -0.00006127   -0.00010388
     atom    8 type  1   force =    -0.00011766    0.00006793    0.00017416
     atom    9 type  1   force =     0.00006812   -0.00003933   -0.00038921
     atom   10 type  1   force =     0.00000000   -0.00013586    0.00017416
     atom   11 type  1   force =     0.00000000    0.00007865   -0.00038921
     atom   12 type  1   force =     0.00011766    0.00006793    0.00017416
     atom   13 type  1   force =    -0.00006812   -0.00003933   -0.00038921
     atom   14 type  1   force =     0.00000000    0.00000000   -0.00028879
     atom   15 type  1   force =     0.00000000    0.00000000    0.00030384
     atom   16 type  2   force =     0.00000000    0.00000000    0.00015015
     atom   17 type  2   force =     0.00000000    0.00000000   -0.00000607
     atom   18 type  2   force =    -0.00013940   -0.00008048   -0.00016226
     atom   19 type  2   force =     0.00003284    0.00001896    0.00040990
     atom   20 type  2   force =     0.00000000    0.00016097   -0.00016226
     atom   21 type  2   force =     0.00000000   -0.00003792    0.00040990
     atom   22 type  2   force =     0.00013940   -0.00008048   -0.00016226
     atom   23 type  2   force =    -0.00003284    0.00001896    0.00040990
     atom   24 type  2   force =    -0.00010074    0.00005816   -0.00002498
     atom   25 type  2   force =     0.00027565   -0.00015915    0.00003962
     atom   26 type  2   force =     0.00000000   -0.00011632   -0.00002498
     atom   27 type  2   force =     0.00000000    0.00031829    0.00003962
     atom   28 type  2   force =     0.00010074    0.00005816   -0.00002498
     atom   29 type  2   force =    -0.00027565   -0.00015915    0.00003962
     atom   30 type  2   force =     0.00000000    0.00000000    0.00077486
     atom   31 type  2   force =     0.00000000    0.00000000   -0.00055523
     The non-local contrib.  to forces
     atom    1 type  1   force =     0.00000000    0.00000000    0.03998201
     atom    2 type  1   force =     0.08306116    0.04795538    0.04451014
     atom    3 type  1   force =     0.00826602    0.00477239   -0.02074880
     atom    4 type  1   force =    -0.00000000   -0.09591077    0.04451014
     atom    5 type  1   force =     0.00000000   -0.00954478   -0.02074880
     atom    6 type  1   force =    -0.08306116    0.04795538    0.04451014
     atom    7 type  1   force =    -0.00826602    0.00477239   -0.02074880
     atom    8 type  1   force =    -0.11797598    0.06811346    0.02862904
     atom    9 type  1   force =     0.04803878   -0.02773520   -0.07514603
     atom   10 type  1   force =     0.00000000   -0.13622692    0.02862904
     atom   11 type  1   force =     0.00000000    0.05547040   -0.07514603
     atom   12 type  1   force =     0.11797598    0.06811346    0.02862904
     atom   13 type  1   force =    -0.04803878   -0.02773520   -0.07514603
     atom   14 type  1   force =     0.00000000    0.00000000   -0.01582189
     atom   15 type  1   force =     0.00000000    0.00000000    0.05232699
     atom   16 type  2   force =    -0.00000000   -0.00000000    0.41626948
     atom   17 type  2   force =     0.00000000    0.00000000    0.03313024
     atom   18 type  2   force =    -0.00269704   -0.00155714   -0.02845365
     atom   19 type  2   force =     0.02703290    0.01560745   -0.00031669
     atom   20 type  2   force =     0.00000000    0.00311428   -0.02845365
     atom   21 type  2   force =     0.00000000   -0.03121490   -0.00031669
     atom   22 type  2   force =     0.00269704   -0.00155714   -0.02845365
     atom   23 type  2   force =    -0.02703290    0.01560745   -0.00031669
     atom   24 type  2   force =    -0.29245427    0.16884855   -0.17096722
     atom   25 type  2   force =    -0.01027093    0.00592992    0.05775087
     atom   26 type  2   force =     0.00000000   -0.33769711   -0.17096722
     atom   27 type  2   force =     0.00000000   -0.01185985    0.05775087
     atom   28 type  2   force =     0.29245427    0.16884855   -0.17096722
     atom   29 type  2   force =     0.01027093    0.00592992    0.05775087
     atom   30 type  2   force =     0.00000000    0.00000000    0.07584525
     atom   31 type  2   force =     0.00000000    0.00000000   -0.01229288
     The ionic contribution  to forces
     atom    1 type  1   force =    -0.00003421    0.00002086    1.20614999
     atom    2 type  1   force =     0.63155627    0.36465761   -0.39462470
     atom    3 type  1   force =    -0.16653985   -0.09611179    0.52544635
     atom    4 type  1   force =    -0.00002307   -0.72926944   -0.39462530
     atom    5 type  1   force =    -0.00003222    0.19228623    0.52544617
     atom    6 type  1   force =    -0.63162711    0.36467218   -0.39461747
     atom    7 type  1   force =     0.16647282   -0.09611025    0.52544553
     atom    8 type  1   force =     2.00708912   -1.15879669   -8.96499366
     atom    9 type  1   force =     3.45979351   -1.99751589    8.90027670
     atom   10 type  1   force =     0.00003830    2.31752630   -8.96501774
     atom   11 type  1   force =     0.00003734    3.99497589    8.90029442
     atom   12 type  1   force =    -2.00701838   -1.15880006   -8.96501644
     atom   13 type  1   force =    -3.45973240   -1.99752372    8.90029385
     atom   14 type  1   force =     0.00002953   -0.00001789   -5.94922008
     atom   15 type  1   force =     0.00002930   -0.00001775    6.86446687
     atom   16 type  2   force =    -0.00003610    0.00002250   -9.57441029
     atom   17 type  2   force =    -0.00003030    0.00001884    3.40756548
     atom   18 type  2   force =    -0.07529952   -0.04343725   -2.66955410
     atom   19 type  2   force =    -0.02301616   -0.01325438    2.05710072
     atom   20 type  2   force =    -0.00003015    0.08693243   -2.66955398
     atom   21 type  2   force =    -0.00002770    0.02656230    2.05710100
     atom   22 type  2   force =     0.07523940   -0.04343724   -2.66955207
     atom   23 type  2   force =     0.02295691   -0.01325207    2.05709976
     atom   24 type  2   force =     6.01944414   -3.47533100    2.89676672
     atom   25 type  2   force =     0.05418394   -0.03128540   -0.91879852
     atom   26 type  2   force =     0.00004766    6.95067087    2.89679319
     atom   27 type  2   force =     0.00003041    0.06251286   -0.91879797
     atom   28 type  2   force =    -6.01943168   -3.47537887    2.89679175
     atom   29 type  2   force =    -0.05412373   -0.03128568   -0.91879821
     atom   30 type  2   force =     0.00002397   -0.00001484    0.27047684
     atom   31 type  2   force =     0.00002998   -0.00001864   -0.51993481
     The local contribution  to forces
     atom    1 type  1   force =    -0.00007745    0.00024600   -1.24595232
     atom    2 type  1   force =    -0.71353038   -0.41178730    0.34994116
     atom    3 type  1   force =     0.15821476    0.09164317   -0.50519153
     atom    4 type  1   force =    -0.00011032    0.82411811    0.34994257
     atom    5 type  1   force =    -0.00007208   -0.18253708   -0.50519163
     atom    6 type  1   force =     0.71341499   -0.41163905    0.34994090
     atom    7 type  1   force =    -0.15836960    0.09164313   -0.50519154
     atom    8 type  1   force =    -1.88984682    1.09123417    8.93679733
     atom    9 type  1   force =    -3.50621681    2.02444659   -8.82707523
     atom   10 type  1   force =     0.00108513   -2.18396199    8.93681763
     atom   11 type  1   force =     0.00108701   -4.05039544   -8.82709894
     atom   12 type  1   force =     1.89203382    1.09123711    8.93682128
     atom   13 type  1   force =     3.50841505    2.02445345   -8.82710224
     atom   14 type  1   force =     0.00110094   -0.00049751    5.96363318
     atom   15 type  1   force =     0.00110008   -0.00049664   -6.91558116
     atom   16 type  2   force =    -0.00001301    0.00002007    9.16488395
     atom   17 type  2   force =    -0.00001044    0.00002179   -3.44030261
     atom   18 type  2   force =     0.07777376    0.04493067    2.69721836
     atom   19 type  2   force =    -0.00359230   -0.00204424   -2.05652560
     atom   20 type  2   force =    -0.00001069   -0.08979509    2.69721817
     atom   21 type  2   force =    -0.00000958    0.00415753   -2.05652556
     atom   22 type  2   force =    -0.07779522    0.04493395    2.69721855
     atom   23 type  2   force =     0.00357210   -0.00204452   -2.05652549
     atom   24 type  2   force =    -5.73187502    3.30930766   -2.72873802
     atom   25 type  2   force =    -0.04369948    0.02524037    0.86185713
     atom   26 type  2   force =     0.00006715   -6.61880063   -2.72876179
     atom   27 type  2   force =     0.00008309   -0.05059504    0.86185613
     atom   28 type  2   force =     5.73209950    3.30935739   -2.72877091
     atom   29 type  2   force =     0.04386801    0.02524171    0.86185612
     atom   30 type  2   force =     0.00009424   -0.00004066   -0.34449455
     atom   31 type  2   force =     0.00008586   -0.00003830    0.53130909
     The core correction contribution to forces
     atom    1 type  1   force =    -0.00000627    0.00001823   -0.00017683
     atom    2 type  1   force =    -0.00129487   -0.00073640   -0.00014001
     atom    3 type  1   force =    -0.00017382   -0.00007805    0.00021528
     atom    4 type  1   force =    -0.00000898    0.00151090   -0.00013998
     atom    5 type  1   force =    -0.00000587    0.00021150    0.00021528
     atom    6 type  1   force =     0.00128602   -0.00072485   -0.00014006
     atom    7 type  1   force =     0.00016130   -0.00007804    0.00021528
     atom    8 type  1   force =     0.00182011   -0.00104139   -0.00043601
     atom    9 type  1   force =    -0.00034184    0.00020680    0.00142279
     atom   10 type  1   force =     0.00008021    0.00197212   -0.00043600
     atom   11 type  1   force =     0.00008021   -0.00052425    0.00142276
     atom   12 type  1   force =    -0.00165886   -0.00104149   -0.00043601
     atom   13 type  1   force =     0.00050308    0.00020680    0.00142276
     atom   14 type  1   force =     0.00008064   -0.00003670    0.00093252
     atom   15 type  1   force =     0.00008061   -0.00003667   -0.00103587
     atom   16 type  2   force =     0.00000022   -0.00000028   -0.00676723
     atom   17 type  2   force =     0.00000024   -0.00000032   -0.00055669
     atom   18 type  2   force =     0.00004357    0.00002467    0.00044798
     atom   19 type  2   force =    -0.00043063   -0.00024910   -0.00000589
     atom   20 type  2   force =     0.00000024   -0.00005035    0.00044797
     atom   21 type  2   force =     0.00000023    0.00049721   -0.00000589
     atom   22 type  2   force =    -0.00004311    0.00002470    0.00044798
     atom   23 type  2   force =     0.00043113   -0.00024911   -0.00000589
     atom   24 type  2   force =     0.00489523   -0.00282635    0.00275280
     atom   25 type  2   force =     0.00017155   -0.00009908   -0.00094012
     atom   26 type  2   force =    -0.00000254    0.00565566    0.00275261
     atom   27 type  2   force =    -0.00000234    0.00020211   -0.00094013
     atom   28 type  2   force =    -0.00489931   -0.00282561    0.00275262
     atom   29 type  2   force =    -0.00017626   -0.00009908   -0.00094012
     atom   30 type  2   force =    -0.00000241    0.00000136   -0.00121413
     atom   31 type  2   force =    -0.00000233    0.00000130    0.00019258
     The Hubbard contrib.    to forces
     atom    1 type  1   force =     0.00000000    0.00000000    0.00000000
     atom    2 type  1   force =     0.00000000    0.00000000    0.00000000
     atom    3 type  1   force =     0.00000000    0.00000000    0.00000000
     atom    4 type  1   force =     0.00000000    0.00000000    0.00000000
     atom    5 type  1   force =     0.00000000    0.00000000    0.00000000
     atom    6 type  1   force =     0.00000000    0.00000000    0.00000000
     atom    7 type  1   force =     0.00000000    0.00000000    0.00000000
     atom    8 type  1   force =     0.00000000    0.00000000    0.00000000
     atom    9 type  1   force =     0.00000000    0.00000000    0.00000000
     atom   10 type  1   force =     0.00000000    0.00000000    0.00000000
     atom   11 type  1   force =     0.00000000    0.00000000    0.00000000
     atom   12 type  1   force =     0.00000000    0.00000000    0.00000000
     atom   13 type  1   force =     0.00000000    0.00000000    0.00000000
     atom   14 type  1   force =     0.00000000    0.00000000    0.00000000
     atom   15 type  1   force =     0.00000000    0.00000000    0.00000000
     atom   16 type  2   force =     0.00000000    0.00000000    0.00000000
     atom   17 type  2   force =     0.00000000    0.00000000    0.00000000
     atom   18 type  2   force =     0.00000000    0.00000000    0.00000000
     atom   19 type  2   force =     0.00000000    0.00000000    0.00000000
     atom   20 type  2   force =     0.00000000    0.00000000    0.00000000
     atom   21 type  2   force =     0.00000000    0.00000000    0.00000000
     atom   22 type  2   force =     0.00000000    0.00000000    0.00000000
     atom   23 type  2   force =     0.00000000    0.00000000    0.00000000
     atom   24 type  2   force =     0.00000000    0.00000000    0.00000000
     atom   25 type  2   force =     0.00000000    0.00000000    0.00000000
     atom   26 type  2   force =     0.00000000    0.00000000    0.00000000
     atom   27 type  2   force =     0.00000000    0.00000000    0.00000000
     atom   28 type  2   force =     0.00000000    0.00000000    0.00000000
     atom   29 type  2   force =     0.00000000    0.00000000    0.00000000
     atom   30 type  2   force =     0.00000000    0.00000000    0.00000000
     atom   31 type  2   force =     0.00000000    0.00000000    0.00000000
     The SCF correction term to forces
     atom    1 type  1   force =    -0.00000000    0.00000000    0.00000692
     atom    2 type  1   force =    -0.00000806   -0.00000465    0.00001502
     atom    3 type  1   force =     0.00000640    0.00000370    0.00000797
     atom    4 type  1   force =     0.00000000    0.00000930    0.00001502
     atom    5 type  1   force =     0.00000000   -0.00000739    0.00000797
     atom    6 type  1   force =     0.00000806   -0.00000465    0.00001502
     atom    7 type  1   force =    -0.00000640    0.00000370    0.00000797
     atom    8 type  1   force =     0.00000154   -0.00000089    0.00001111
     atom    9 type  1   force =     0.00000042   -0.00000024   -0.00002936
     atom   10 type  1   force =    -0.00000000    0.00000178    0.00001111
     atom   11 type  1   force =     0.00000000    0.00000049   -0.00002936
     atom   12 type  1   force =    -0.00000154   -0.00000089    0.00001111
     atom   13 type  1   force =    -0.00000042   -0.00000024   -0.00002936
     atom   14 type  1   force =    -0.00000000    0.00000000    0.00002026
     atom   15 type  1   force =     0.00000000   -0.00000000   -0.00004021
     atom   16 type  2   force =    -0.00000000    0.00000000    0.00000702
     atom   17 type  2   force =    -0.00000000    0.00000000   -0.00000971
     atom   18 type  2   force =    -0.00000117   -0.00000068    0.00001121
     atom   19 type  2   force =    -0.00000072   -0.00000041   -0.00000968
     atom   20 type  2   force =    -0.00000000    0.00000135    0.00001121
     atom   21 type  2   force =    -0.00000000    0.00000083   -0.00000968
     atom   22 type  2   force =     0.00000117   -0.00000068    0.00001121
     atom   23 type  2   force =     0.00000072   -0.00000041   -0.00000968
     atom   24 type  2   force =     0.00000191   -0.00000110   -0.00000464
     atom   25 type  2   force =     0.00000236   -0.00000136    0.00000343
     atom   26 type  2   force =    -0.00000000    0.00000221   -0.00000464
     atom   27 type  2   force =    -0.00000000    0.00000273    0.00000343
     atom   28 type  2   force =    -0.00000191   -0.00000110   -0.00000464
     atom   29 type  2   force =    -0.00000236   -0.00000136    0.00000343
     atom   30 type  2   force =    -0.00000000    0.00000000   -0.00000577
     atom   31 type  2   force =     0.00000000   -0.00000000    0.00000357

     Total force =     0.001727     Total SCF correction =     0.000086


     Computing stress (Cartesian axis) and pressure



     -----------------------------------------------
     Non-local corr. energy    =       8.27281886 Ry
     -----------------------------------------------

          total   stress  (Ry/bohr**3)                   (kbar)     P=        7.50
   0.00003195  -0.00000000   0.00000000            4.70       -0.00        0.00
   0.00000000   0.00003195   0.00000000            0.00        4.70        0.00
   0.00000000   0.00000000   0.00008909            0.00        0.00       13.11

     kinetic stress (kbar)  17740.68      0.00      0.00
                                0.00  17740.68     -0.00
                                0.00     -0.00  17784.66

     local   stress (kbar)   1507.96     -0.07     -0.00
                               -0.07   1507.88      0.00
                               -0.00      0.00   3014.03

     nonloc. stress (kbar)     48.82     -0.00      0.00
                                0.00     48.82      0.00
                                0.00      0.00     50.54

     hartree stress (kbar)  20054.55     -0.00      0.00
                               -0.00  20054.55     -0.00
                                0.00     -0.00  19272.66

     exc-cor stress (kbar)   4835.63      0.00     -0.00
                                0.00   4835.63      0.00
                               -0.00      0.00   4836.37

     corecor stress (kbar) -13267.12     -0.00     -0.00
                               -0.00 -13267.12     -0.00
                               -0.00     -0.00 -13267.62

     ewald   stress (kbar) -31069.14      0.09      0.00
                                0.09 -31069.03     -0.00
                                0.00     -0.00 -31830.15

     hubbard stress (kbar)      0.00      0.00      0.00
                                0.00      0.00      0.00
                                0.00      0.00      0.00

     DFT-D   stress (kbar)      0.00      0.00      0.00
                                0.00      0.00      0.00
                                0.00      0.00      0.00

     XDM     stress (kbar)      0.00      0.00      0.00
                                0.00      0.00      0.00
                                0.00      0.00      0.00

     dft-nl  stress (kbar)    153.31     -0.00      0.00
                               -0.00    153.31     -0.00
                                0.00     -0.00    152.61

     TS-vdW  stress (kbar)      0.00      0.00      0.00
                                0.00      0.00      0.00
                                0.00      0.00      0.00

     MDB     stress (kbar)      0.00      0.00      0.00
                                0.00      0.00      0.00
                                0.00      0.00      0.00

     3D-RISM stress (kbar)      0.00      0.00      0.00
                                0.00      0.00      0.00
                                0.00      0.00      0.00



     -----------------------------------------------
     Non-local corr. energy    =       8.27281886 Ry
     -----------------------------------------------



     -----------------------------------------------
     Non-local corr. energy    =       8.27281886 Ry
     -----------------------------------------------



     -----------------------------------------------
     Non-local corr. energy    =       8.27281886 Ry
     -----------------------------------------------



     -----------------------------------------------
     Non-local corr. energy    =       8.27281886 Ry
     -----------------------------------------------



     -----------------------------------------------
     Non-local corr. energy    =       8.27281886 Ry
     -----------------------------------------------



     -----------------------------------------------
     Non-local corr. energy    =       8.27281886 Ry
     -----------------------------------------------



     -----------------------------------------------
     Non-local corr. energy    =       8.27281886 Ry
     -----------------------------------------------



     -----------------------------------------------
     Non-local corr. energy    =       8.27281886 Ry
     -----------------------------------------------



     -----------------------------------------------
     Non-local corr. energy    =       8.27281886 Ry
     -----------------------------------------------



     -----------------------------------------------
     Non-local corr. energy    =       8.27281886 Ry
     -----------------------------------------------



     -----------------------------------------------
     Non-local corr. energy    =       8.27281886 Ry
     -----------------------------------------------



     -----------------------------------------------
     Non-local corr. energy    =       8.27281886 Ry
     -----------------------------------------------



     -----------------------------------------------
     Non-local corr. energy    =       8.27281886 Ry
     -----------------------------------------------



     -----------------------------------------------
     Non-local corr. energy    =       8.27281886 Ry
     -----------------------------------------------



     -----------------------------------------------
     Non-local corr. energy    =       8.27281886 Ry
     -----------------------------------------------



     -----------------------------------------------
     Non-local corr. energy    =       8.27281886 Ry
     -----------------------------------------------



     -----------------------------------------------
     Non-local corr. energy    =       8.27281886 Ry
     -----------------------------------------------



     -----------------------------------------------
     Non-local corr. energy    =       8.27281886 Ry
     -----------------------------------------------



     -----------------------------------------------
     Non-local corr. energy    =       8.27281886 Ry
     -----------------------------------------------



     -----------------------------------------------
     Non-local corr. energy    =       8.27281886 Ry
     -----------------------------------------------



     -----------------------------------------------
     Non-local corr. energy    =       8.27281886 Ry
     -----------------------------------------------



     -----------------------------------------------
     Non-local corr. energy    =       8.27281886 Ry
     -----------------------------------------------



     -----------------------------------------------
     Non-local corr. energy    =       8.27281886 Ry
     -----------------------------------------------



     -----------------------------------------------
     Non-local corr. energy    =       8.27281886 Ry
     -----------------------------------------------



     -----------------------------------------------
     Non-local corr. energy    =       8.27281886 Ry
     -----------------------------------------------



     -----------------------------------------------
     Non-local corr. energy    =       8.27281886 Ry
     -----------------------------------------------



     -----------------------------------------------
     Non-local corr. energy    =       8.27281886 Ry
     -----------------------------------------------



     -----------------------------------------------
     Non-local corr. energy    =       8.27281886 Ry
     -----------------------------------------------



     -----------------------------------------------
     Non-local corr. energy    =       8.27281886 Ry
     -----------------------------------------------



     -----------------------------------------------
     Non-local corr. energy    =       8.27281886 Ry
     -----------------------------------------------



     -----------------------------------------------
     Non-local corr. energy    =       8.27281886 Ry
     -----------------------------------------------



     -----------------------------------------------
     Non-local corr. energy    =       8.27281886 Ry
     -----------------------------------------------



     -----------------------------------------------
     Non-local corr. energy    =       8.27281886 Ry
     -----------------------------------------------



     -----------------------------------------------
     Non-local corr. energy    =       8.27281886 Ry
     -----------------------------------------------

 BEEFens 2000 ensemble energies
             -0.670855998067384E+01
             -0.600597640403107E+02
             -0.257969531371524E+02
              0.211751436438884E+02
             -0.431209266743188E+02
             -0.555370832202977E+02
              0.286078139161696E+02
             -0.308611313278993E+01
              0.475250444046623E+02
             -0.204181121226708E+01
              0.233014311040949E+02
              0.936077437507663E+00
              0.100440533381038E+01
             -0.209746782415289E+01
              0.311117027096190E+02
             -0.226994598840736E+02
             -0.467970826756390E+02
             -0.152852107815234E+02
              0.113873111147798E+02
             -0.101500801820521E+01
              0.681574329997594E+02
              0.580521010912436E+02
             -0.331285733118689E+02
              0.120823967211131E+02
             -0.728416265828262E+02
              0.584057413240614E+02
              0.191093540355403E+02
              0.568544029445304E+02
              0.373113406097474E+02
             -0.182252217335048E+02
              0.137710757457448E+02
             -0.269024097897721E+02
              0.741660446076460E+01
              0.364531332543291E+02
              0.387516600669340E+02
             -0.139414317152239E+02
              0.859896058096454E+02
             -0.326074704037961E+02
             -0.234854956234138E+02
              0.344595485166254E+02
              0.153557888963650E+02
              0.258277178263027E+02
             -0.491649648424511E+02
             -0.137871470072866E+01
              0.483219477764758E+02
              0.627332229805320E+02
             -0.623811912987631E+02
              0.444353763592488E+01
              0.235320371497458E+02
              0.113680290219744E+02
              0.261244709269577E+02
              0.552865376895854E+02
             -0.334437377465458E+02
             -0.366590756592747E+02
             -0.476409478155556E+02
             -0.743664352376157E+01
             -0.434402185767150E+02
              0.420721224037044E+01
             -0.809552835502086E+01
             -0.339038410167491E+02
              0.549888395390546E+02
              0.536059507017222E+02
             -0.140644427692873E+02
             -0.383743296223419E+02
             -0.250280914145678E+02
              0.125333299570108E+01
              0.408600350735653E+02
             -0.694620050592781E+01
             -0.401818510164932E+02
              0.341724998111501E+02
             -0.683942458885544E+02
              0.574299787934237E+02
             -0.667854772658592E+02
             -0.302434001344777E+02
             -0.892444060781520E+01
             -0.623144870923882E+01
              0.118918677371693E+01
              0.489699083849309E+02
              0.269906427377965E+02
             -0.510789303281589E+02
             -0.634083904199775E+02
             -0.324418598317326E+02
             -0.245157244477796E+02
              0.454613569048331E+01
             -0.842651492807073E+01
             -0.222176597568578E+02
              0.336594561258432E+02
             -0.218801615601814E+02
              0.963886021011490E+02
             -0.433655999775709E+02
              0.878291757558876E+01
              0.133214746393168E+02
              0.154042648952408E+02
              0.365463964479483E+02
              0.246783474590920E+02
              0.236050098214864E+02
             -0.378649158410784E+02
              0.232122781120628E+02
              0.512140340430346E+01
              0.205819913514773E+00
              0.441195977205876E+02
             -0.544257152512719E+02
              0.879581505343943E+02
             -0.230050722764744E+02
             -0.976363356415277E+02
              0.415232048564937E+01
              0.799482358572192E+01
             -0.259698362574601E+02
             -0.495429056506924E+02
             -0.260347242032307E+02
             -0.204604854248982E+02
              0.146736489795950E+01
             -0.390372790891892E+02
              0.157735639960765E+01
              0.410103653874017E+01
              0.736918710778477E+01
              0.860955523700250E+02
              0.966637521787834E+01
             -0.486247131599362E+02
             -0.356793637231856E+02
             -0.981611194561553E+01
             -0.339094766753924E+02
              0.540220218603069E+02
             -0.401743217098895E+02
             -0.279907368397849E+01
             -0.786087350415843E+01
              0.746244157852459E+01
              0.318922208285224E+02
             -0.369629241892942E+02
             -0.741416746348653E+02
             -0.157357094851718E+02
             -0.145847147654743E+02
             -0.583875480983522E+01
              0.357328557352851E+02
             -0.641386677490726E+02
             -0.710091854215476E+02
             -0.985204969863656E+01
             -0.152681919745662E+02
             -0.134711395231312E+01
              0.193522231674395E+02
              0.434017634512525E+02
              0.200303401990313E+02
             -0.201418468941411E+02
             -0.238033938325638E+02
             -0.651130036027760E+02
             -0.552710566791802E+01
             -0.312403184348510E+02
             -0.206402064771412E+02
              0.546192433036275E+02
             -0.424868854503608E+02
             -0.160899810933101E+02
              0.531282130198706E+02
             -0.760894753711830E+01
             -0.150512469342405E+02
              0.867963789801968E+01
              0.210148856381759E+02
             -0.319264177132634E+02
              0.178921905596364E+02
              0.924351789832771E+01
              0.326544562424129E+02
             -0.318339413743070E+02
             -0.216203940159852E+02
              0.361004641570331E+02
             -0.961027355416604E+00
             -0.157877632081390E+02
             -0.107957564078158E+02
             -0.190451453835860E+02
             -0.241789693794386E+02
             -0.579038516026084E+02
             -0.681067285028311E+02
             -0.228131714184375E+02
             -0.255935401507474E+02
             -0.275253576993112E+02
             -0.445536416115494E+02
             -0.203698900331142E+02
              0.374674583734856E+02
              0.132863001293154E+02
              0.530405444743283E+02
             -0.215350798016086E+02
              0.183747144776162E+02
              0.118375547790749E+02
             -0.571032413410251E+02
             -0.125005053488346E+02
              0.339848655794140E+02
             -0.940346660280607E+02
              0.186346193289488E+02
              0.174884356183723E+02
              0.561836584897993E+02
[...]
              0.259584293477817E+02
              0.841255851649450E+00
              0.808860599346568E+02
              0.111951282757699E+02
             -0.117919484517768E+02
              0.471739932864563E+01
             -0.109035868500532E+02
              0.634885294050197E+02
             -0.345932403138377E+00
              0.121311294698036E+02
              0.440949538199215E+02
              0.118693914611632E+02
             -0.334199310945483E+02
             -0.543111242108862E+02
              0.305379891579764E+01
             -0.618134011153599E+02
              0.207246108913340E+02
             -0.106656631647657E+02
             -0.237396800358349E+02
              0.240479015616010E+02
              0.831620317302753E+01
              0.231947522018456E+02
              0.978141865868025E+00
              0.344053697726678E+02
             -0.584720424449786E+02
             -0.415228543711299E+01
             -0.513746481892832E+02
              0.115160738527084E+02
              0.281467658849101E+02
             -0.287919157180920E+01
             -0.187303349851929E+02
              0.421575784631890E+02
             -0.194775102199630E+02
              0.144135992370993E+02
             -0.123440083750783E+02
              0.333914433900722E+02
              0.350358912273978E+02
             -0.151553611319425E+02
              0.300624523668906E+02
              0.112911703250202E+02
             -0.303601498063871E+02
             -0.197881850914202E+02
              0.487497395052844E+02
              0.239107438833690E+02
             -0.204921177727394E+01
             -0.516039254177088E+01
              0.751201304867822E+02
              0.442865803684333E+02
              0.157248553299909E+02
             -0.473946414548871E+02
              0.758109956299069E+02
             -0.354289674936855E+02
             -0.437605092713212E+02
             -0.658784556365216E+02
              0.293790973614163E+02
             -0.591870514342350E+02
              0.267372962109437E+02
              0.433288569555769E+02
              0.307923351264621E+02
              0.791862120914884E+01
              0.204097409244060E+02
             -0.488194038309221E+02
             -0.174737106111182E+02
             -0.132956028444626E+02
              0.250547898834705E+02
              0.496004946416862E+02
              0.513002038842834E+02
              0.396046124379039E+02
             -0.911932897391011E+01
              0.125688655065745E+02
              0.654575596379033E+00
             -0.162924722118378E+02
              0.208723779930995E+02
              0.227567908697517E+02
             -0.287922662771852E+02
             -0.343081986176089E+02
             -0.135383302678568E+02
              0.357054687240717E+02
              0.171041017906903E+02
             -0.244815596830329E+02
             -0.374099178506306E+02
             -0.544487326659481E+02
              0.107277362115211E+01
              0.145967624292206E+02
             -0.205731656709570E+02
              0.762173819543768E+02
              0.376723743550957E+01
             -0.864040965378439E+02
              0.190976569826310E+02
              0.379191661006948E+02
             -0.174031691524700E+02
              0.209255158350906E+01
             -0.241007796761179E+02
              0.353519572674628E+02
              0.163033348628777E+02
             -0.451958812438985E+02
              0.538480323307446E+02
              0.145035025864335E+01
             -0.231674253444777E+02
             -0.274384833138426E+02
              0.107163325351254E+03
              0.477904595644516E+02
             -0.132809242341932E+02
              0.263160565828013E+02
             -0.467309844606043E+02
             -0.836565893919851E+01
             -0.475517826135390E+02
              0.190585636612960E+02
              0.323011542611475E+02
              0.384276495809943E+02
             -0.152980508013488E+02
              0.457129831629959E+01
              0.438587803748582E+02
              0.162911353159992E+02
              0.275307392473910E+02
              0.117372761096875E+02
             -0.792140398051637E+01
              0.117785994618478E+01
             -0.722473428790981E+01
              0.111862096531485E+02
              0.248491057647499E+01
             -0.398828157854241E+02
              0.608948998956300E+02
              0.243693237618021E+02
             -0.437002655602033E+02
             -0.324190341467977E+02
             -0.470219969031348E+02
             -0.222753041543439E+02
             -0.163489690528666E+02
             -0.363563019036328E+02
             -0.356166295126346E+02
              0.449900903395565E+02
              0.354305736402723E+02
             -0.446378850630975E+01
              0.515683391605886E+02
              0.984795283844392E+01
             -0.833347851249936E+02
              0.469982827655289E+02
              0.108928854944689E+02
              0.362775508036211E+02
              0.812068639592175E+01
              0.612222820783775E+01
              0.720144904718728E+01
              0.189118355931155E+02
             -0.345079776998078E+02
             -0.172605527263037E+02
             -0.316856287013015E+02
             -0.262540088703656E+02
              0.120164112969818E+02
             -0.301551491141822E+02
              0.140662947141937E+02
              0.186193492383497E+02
             -0.199067309996341E+02
             -0.104516012105032E+02
             -0.922009055371717E+00
              0.516005016547464E+02
              0.817036264891965E+01
              0.512302722550263E+02
              0.181603387520568E+02
             -0.660273724718296E+02
             -0.225196097744570E+02
              0.225763333222272E+02
              0.507393075201190E+02
              0.983478721097039E+01
              0.198182917368893E+02
              0.478962610483544E+02
             -0.279166175642503E+02
             -0.453058419449865E+02
              0.587534459015811E+02
              0.885498695912304E+00
             -0.623740985329151E+02
              0.208906917108675E+02
              0.412664882787260E+02
             -0.946475824575066E+01
             -0.389636349149106E+02
              0.685146506907765E+01
              0.258790706196555E+01
             -0.213620030661166E+02
              0.776791695803581E+01
             -0.666220197748593E+01
              0.918097294518819E+02
              0.252728193953161E+02
             -0.422056771913112E+02
              0.127837605746445E+02
              0.589889497816601E+02
             -0.377560032338102E+02
             -0.101517289433143E+02
             -0.334031819512084E+02
              0.266362522083673E+02
              0.114011153221762E+02
              0.176869042065014E+02
              0.134672081631305E+01
              0.661822566167555E+02
             -0.370680709176293E+02
             -0.281208857300824E+02
             -0.310202813205284E+02
              0.267429901217793E+02
              0.636578692715237E+02
             -0.798204724097417E+01
              0.263080529683753E+02
             -0.355865900446651E+02
              0.347048223041347E+01
             -0.105196474209010E+02
             -0.365809973870358E+01
             -0.151834235147659E+02
             -0.139901889032433E+02
             -0.102914931262648E+02
              0.110701250096555E+02
              0.185524513480986E+02
             -0.427676118800667E+02
              0.310965962305513E+02
             -0.501946463512916E+02
              0.374880281941793E+02
             -0.435851939316003E+02
              0.659845815643553E+02
              0.351571300675544E+02
              0.391501371658429E+02
              0.896199712776905E+01
              0.100147599348936E+02
             -0.884355862915749E+02
              0.151874990870761E+02
              0.402791547687139E+01
              0.691366760242931E+01
             -0.131736004505601E+02
              0.687547104173986E+02
             -0.210144822360938E+02
             -0.271269007251356E+02
             -0.682536236701497E+02
             -0.227121139486870E+02
             -0.309335677883720E+02
             -0.275069130770171E+02
             -0.754713436407599E+01
             -0.143458160560610E+02
             -0.190692285045762E+02
             -0.286328684887490E+02
              0.213207681781336E+02
              0.705751734864129E+02
              0.602317621136077E+02
             -0.120783505256203E+02
             -0.739032049968264E+02
             -0.310668523190620E+02
              0.142740797235275E+02
              0.157682961863036E+02
              0.227977533970149E+02
              0.177928626250941E+02
              0.581016069697569E+01
              0.682803882048946E+02
             -0.169421982968765E+02
              0.346986915678602E+02
              0.158912084917512E+02
             -0.223686419345995E+02
             -0.141095193254173E+02
              0.316062327389160E+02
             -0.182871620444233E+02
             -0.130391277940003E+02
             -0.843517336907240E+01
              0.394832041867613E+02
             -0.528783133277799E+02
             -0.587217245973557E+01
             -0.433509400562804E+02
             -0.937467719945956E+02
              0.407382306056888E+00
             -0.115870224584955E+02
              0.321602283231023E+02
              0.382338949142302E+02
              0.524685468154189E+02
             -0.344833346121555E+02
              0.561540168057149E+02
              0.146924675838646E+02
             -0.166671490767419E+02
              0.101642326408667E+02
             -0.178522363785128E+02
             -0.125219123117248E+02
              0.285566254231010E+02
             -0.278996872213908E+02
              0.678290871803465E+02
             -0.173354697320578E+02
             -0.362981807497666E+02
              0.690270375897955E+02
             -0.388054067963818E+02
             -0.582370158634137E+01
              0.707099816696675E+01
              0.213796653989838E+02
             -0.316277516284151E+02
             -0.237089256524825E+02
              0.359406106990711E+02
             -0.584662148754944E+02
              0.428382699642789E+02
              0.561825015611940E+01
              0.334617651772983E+02
              0.464277642750133E+02
              0.116532478245719E+02
             -0.610178575713447E+02
             -0.269872500167505E+02
             -0.451380852474630E+02
             -0.282789331024436E+02
             -0.939787132454103E+01
              0.110714095740729E+02
             -0.210979054154218E+02
              0.152982445155840E+01
             -0.687846683119037E+02
              0.164222605864595E+01
             -0.434583971941607E+02
              0.426355558208247E+02
             -0.228504197419009E+02
             -0.450945420085623E+01
              0.307038100739495E+02
              0.325550686812171E+01
              0.305927324983301E+02
             -0.547733426293728E+02
              0.120407463621460E+02
              0.380143911912725E+01
              0.219802057819194E+02
              0.395784179593005E+02
             -0.685886305001566E+01
             -0.434250387281098E+02
             -0.248183275907344E+02
             -0.171060011018901E+02
             -0.834720235210125E+01
              0.409170262449978E+02
              0.252345621484338E+02
             -0.262594804023493E+02
             -0.239934081567409E+02
              0.198632242866314E+02
              0.194073122148502E+02
             -0.537723589221160E+02
              0.150851820298454E+02
              0.394449068707109E+02
             -0.196596652914040E+01
              0.462288970669171E+02
              0.234635179025910E+02
              0.369146733626231E+02
              0.560112002245084E+02
              0.914309006283975E+01
             -0.784850430554977E+02
              0.802845838899576E+01
              0.870119250566252E+02
              0.625754435984891E+02
             -0.419816597399225E+02
              0.417295556813832E+01
              0.544125855009299E+02
              0.494915018250536E+02
              0.235321385173463E+02
             -0.125011189011316E+02
              0.225518458232753E+02
              0.475030205858030E+02
             -0.211549469177268E+02
             -0.152368893661285E+02
              0.295935240351271E+02
             -0.212114585549361E+01
              0.277765899546899E+02
             -0.685342492017248E+01
              0.572734010831484E+02
             -0.218193653459260E+02
              0.130359358216232E+02
             -0.267591314281809E+02
              0.270602637987795E+02
             -0.357822652008102E+01
              0.428002246699199E+02
              0.298667814712647E+01
              0.168471529905115E+02
             -0.283965965680751E+02
             -0.174442462789375E+02
             -0.825846649101564E+01
             -0.705800258519653E+01
              0.449035124586026E+02
              0.185309483099265E+02
              0.576809513066114E+02
              0.478262140147316E+02
              0.106395647038760E+02
              0.387646356834686E+00
              0.563178861648348E+02
              0.296305468743686E+02
              0.855627059092939E+00
              0.500241272404826E+02
             -0.449189273749057E+02
              0.147836298102328E+02
             -0.282215907748104E+02
             -0.113944527285618E+02
              0.719967304213072E+02
             -0.110267616761267E+02
             -0.514310337227585E+00
             -0.950714222233881E+01
              0.598473810846279E+02
             -0.139843186998401E+02
             -0.165350264375283E+01
              0.120823687847853E+03
             -0.391031885369391E+02
             -0.415925712641135E+02
             -0.437693220802145E+02
             -0.255545583547473E+02
              0.255253161691700E+02
             -0.109232284303955E+02
              0.711210556655266E+01
             -0.218542020502309E+01
              0.153053139462409E+02
              0.249257219825311E+02
              0.286795754246231E+02
              0.423645603585538E+02
              0.232980354584965E+02
              0.297008077594637E+02
             -0.479311989034354E+02
             -0.457565735882980E+02
             -0.116539243219902E+02
             -0.449350430432305E+02
              0.720441958578576E+02
              0.617554797860411E+02
              0.295056007684070E+02
              0.798213834229208E+02
             -0.415649936319534E+02
             -0.169712566897628E+02
             -0.235246504311743E+02
              0.660014738749177E+02
 
 BEEF-vdW xc energy contributions
            1 :    -605.0988080300224     
            2 :     544.6580382973270     
            3 :    -443.5003421353842     
            4 :     331.3568602998143     
            5 :    -234.2802521695164     
            6 :     164.7330002057977     
            7 :    -120.2940836453238     
            8 :     90.20599381496129     
            9 :    -64.47532908456924     
           10 :     39.62461025020184     
           11 :    -18.39489342349191     
           12 :     5.112519888937413     
           13 :   -0.9620199052474163     
           14 :     2.631138328504903     
           15 :    -4.745641885602026     
           16 :     3.661702804870288     
           17 :    0.4651327510680403     
           18 :    -4.694039111340658     
           19 :     6.238762002344629     
           20 :    -4.840239228446535     
           21 :     2.800161404361688     
           22 :    -2.911150446392639     
           23 :     6.137985703340973     
           24 :    -10.91905611456093     
           25 :     14.50826989696725     
           26 :    -15.13260198054718     
           27 :     13.20685215623485     
           28 :    -10.74474710706113     
           29 :     9.600623723042190     
           30 :    -10.03769310690689     
           31 :    -52.05248712664138     
           32 :    -35.60718598526478     

     Writing all to output data dir ./GaN.save/
 
     init_run     :      2.92s CPU      5.73s WALL (       1 calls)
     electrons    :     20.75s CPU     21.29s WALL (       1 calls)
     forces       :      1.36s CPU      1.38s WALL (       1 calls)
     stress       :      6.52s CPU      6.58s WALL (       1 calls)

     Called by init_run:
     wfcinit      :      0.99s CPU      3.70s WALL (       1 calls)
     potinit      :      1.49s CPU      1.54s WALL (       1 calls)
     hinit0       :      0.27s CPU      0.29s WALL (       1 calls)

     Called by electrons:
     c_bands      :     18.61s CPU     19.03s WALL (       2 calls)
     sum_band     :      1.42s CPU      1.45s WALL (       2 calls)
     v_of_rho     :      1.27s CPU      1.31s WALL (       2 calls)
     v_h          :      0.00s CPU      0.00s WALL (       2 calls)
     v_xc         :      8.41s CPU      8.54s WALL (      38 calls)
     newd         :      0.12s CPU      0.14s WALL (       2 calls)
     PAW_pot      :      0.81s CPU      0.81s WALL (       2 calls)
     mix_rho      :      0.00s CPU      0.00s WALL (       2 calls)
     vdW_kernel   :      0.85s CPU      0.86s WALL (       1 calls)

     Called by c_bands:
     init_us_2    :      0.21s CPU      0.22s WALL (      48 calls)
     init_us_2:cp :      0.21s CPU      0.22s WALL (      48 calls)
     cegterg      :     18.26s CPU     18.42s WALL (      16 calls)

     Called by sum_band:
     sum_band:wei :      0.00s CPU      0.00s WALL (       2 calls)
     sum_band:loo :      1.22s CPU      1.24s WALL (       2 calls)
     sum_band:buf :      0.05s CPU      0.06s WALL (      16 calls)
     sum_band:ini :      0.08s CPU      0.08s WALL (      16 calls)
     sum_band:cal :      0.26s CPU      0.26s WALL (      16 calls)
     sum_band:bec :      0.01s CPU      0.01s WALL (      16 calls)
     addusdens    :      0.17s CPU      0.18s WALL (       2 calls)
     addusd:skk   :      0.01s CPU      0.01s WALL (       4 calls)
     addusd:dgemm :      0.11s CPU      0.13s WALL (       4 calls)
     addusd:qvan2 :      0.05s CPU      0.05s WALL (       4 calls)

     Called by *egterg:
     cdiaghg      :      8.67s CPU      8.71s WALL (      93 calls)
     cegterg:over :      1.29s CPU      1.31s WALL (      93 calls)
     cegterg:upda :      0.92s CPU      0.93s WALL (      93 calls)
     cegterg:last :      0.25s CPU      0.26s WALL (      16 calls)
     h_psi        :      5.88s CPU      5.95s WALL (     109 calls)
     s_psi        :      0.72s CPU      0.72s WALL (     109 calls)
     g_psi        :      0.01s CPU      0.01s WALL (      93 calls)

     Called by h_psi:
     h_psi:calbec :      0.91s CPU      0.91s WALL (     109 calls)
     vloc_psi     :      4.13s CPU      4.19s WALL (     109 calls)
     add_vuspsi   :      0.75s CPU      0.76s WALL (     109 calls)

     General routines
     calbec       :      2.04s CPU      2.05s WALL (     165 calls)
     fft          :      3.46s CPU      3.51s WALL (    2232 calls)
     ffts         :      0.01s CPU      0.01s WALL (       4 calls)
     fftw         :      4.64s CPU      4.70s WALL (   16140 calls)
     interpolate  :      0.01s CPU      0.01s WALL (       2 calls)
 
     Parallel routines

     PAW routines
     PAW_pot      :      0.81s CPU      0.81s WALL (       2 calls)
     PAW_symme    :      0.00s CPU      0.00s WALL (       3 calls)
 
     PWSCF        :     39.43s CPU     44.48s WALL

 
   This run was terminated on:  22:27: 3  27Mar2024            

=------------------------------------------------------------------------------=
   JOB DONE.
=------------------------------------------------------------------------------=
