
     Program PWSCF v.7.2 starts on 29Sep2023 at 11:20:37 

     This program is part of the open-source Quantum ESPRESSO suite
     for quantum simulation of materials; please cite
         "P. Giannozzi et al., J. Phys.:Condens. Matter 21 395502 (2009);
         "P. Giannozzi et al., J. Phys.:Condens. Matter 29 465901 (2017);
         "P. Giannozzi et al., J. Chem. Phys. 152 154105 (2020);
          URL http://www.quantum-espresso.org", 
     in publications or presentations arising from this work. More details at
     http://www.quantum-espresso.org/quote

     Parallel version (MPI & OpenMP), running on     256 processor cores
     Number of MPI processes:               256
     Threads/MPI process:                     1

     MPI processes distributed on     2 nodes
     1841400 MiB available memory on the printing compute node when the environment starts
 
     Reading input from espresso.pwi
Warning: card &CELL ignored
Warning: card    CELL_DYNAMICS    = 'BFGS' ignored
Warning: card / ignored

     Current dimensions of program PWSCF are:
     Max number of different atomic species (ntypx) = 10
     Max number of k-points (npk) =  40000
     Max angular momentum in pseudopotentials (lmaxx) =  4
     file Ga.pbe-dn-kjpaw_psl.1.0.0.UPF: wavefunction(s)  4S renormalized
     file N.pbe-n-kjpaw_psl.1.0.0.UPF: wavefunction(s)  2S renormalized

     **************************************************************************
     Initializing libbeef V0.1.2 with the BEEF-vdW functional.
     Citation: Wellendorff et al., PRB 85, 235149 (2012).
     **************************************************************************


     IMPORTANT: XC functional enforced from input :
     Exchange-correlation= BEEF-VDW
                           (   1   4  43  14   2   0   0)
     Any further DFT definition will be discarded
     Please, verify this is what you really want

     Found identity + (  0.0000  0.0000  0.3333) symmetry
     This is a supercell, fractional translations are disabled
 
     K-points division:     npool     =       4
     R & G space division:  proc/nbgrp/npool/nimage =      64
     Subspace diagonalization in iterative solution of the eigenvalue problem:
     one sub-group per band group will be used
     scalapack distributed-memory algorithm (size of sub-group:  2*  2 procs)

 
     Parallelization info
     --------------------
     sticks:   dense  smooth     PW     G-vecs:    dense   smooth      PW
     Min         354     283     73                42160    30167    3987
     Max         356     285     74                42163    30170    3996
     Sum       22693   18145   4705              2698283  1930731  255309
 
     Using Slab Decomposition
 


     bravais-lattice index     =            4
     lattice parameter (alat)  =      30.6565  a.u.
     unit-cell volume          =   24400.9461 (a.u.)^3
     number of atoms/cell      =          300
     number of atomic types    =            2
     number of electrons       =      2700.00
     number of Kohn-Sham states=         1620
     kinetic-energy cutoff     =      70.0000  Ry
     charge density cutoff     =     350.0000  Ry
     scf convergence threshold =      1.0E-09
     mixing beta               =       0.7000
     number of iterations used =            8  plain     mixing
     energy convergence thresh.=      1.0E-04
     force convergence thresh. =      1.0E-03
     Exchange-correlation= BEEF-VDW
                           (   1   4  43  14   2   0   0)
     nstep                     =           50


     celldm(1)=  30.656540  celldm(2)=   0.000000  celldm(3)=   0.977927
     celldm(4)=   0.000000  celldm(5)=   0.000000  celldm(6)=   0.000000

     crystal axes: (cart. coord. in units of alat)
               a(1) = (   1.000000   0.000000   0.000000 )  
               a(2) = (  -0.500000   0.866025   0.000000 )  
               a(3) = (   0.000000   0.000000   0.977927 )  

     reciprocal axes: (cart. coord. in units 2 pi/alat)
               b(1) = (  1.000000  0.577350 -0.000000 )  
               b(2) = (  0.000000  1.154701  0.000000 )  
               b(3) = (  0.000000 -0.000000  1.022571 )  


     PseudoPot. # 1 for Ga read from file:
     //group///packages/espresso/pseudo/psl_1.0.0/pslibrary.1.0.0/pbe/PSEUDOPOTENTIALS/Ga.pbe-dn-kjpaw_psl.1.0.0.UPF
     MD5 check sum: cd2a01e492f15b435d17032472d8505c
     Pseudo is Projector augmented-wave + core cor, Zval = 13.0
     Generated using 'atomic' code by A. Dal Corso  v.7.1
     Shape of augmentation charge: PSQ
     Using radial grid of 1205 points,  6 beta functions with: 
                l(1) =   0
                l(2) =   0
                l(3) =   1
                l(4) =   1
                l(5) =   2
                l(6) =   2
     Q(r) pseudized with 0 coefficients 


     PseudoPot. # 2 for N  read from file:
     //group///packages/espresso/pseudo/psl_1.0.0/pslibrary.1.0.0/pbe/PSEUDOPOTENTIALS/N.pbe-n-kjpaw_psl.1.0.0.UPF
     MD5 check sum: f77f775694dac7e2c3fe1c82443d1a16
     Pseudo is Projector augmented-wave + core cor, Zval =  5.0
     Generated using 'atomic' code by A. Dal Corso  v.7.1
     Shape of augmentation charge: PSQ
     Using radial grid of 1085 points,  4 beta functions with: 
                l(1) =   0
                l(2) =   0
                l(3) =   1
                l(4) =   1
     Q(r) pseudized with 0 coefficients 


     atomic species   valence    mass     pseudopotential
        Ga            13.00    69.72300     Ga( 1.00)
        N              5.00    14.00700     N ( 1.00)

      6 Sym. Ops. (no inversion) found


                                    s                        frac. trans.

      isym =  1     identity                                     

 cryst.   s( 1) = (     1          0          0      )
                  (     0          1          0      )
                  (     0          0          1      )

 cart.    s( 1) = (  1.0000000  0.0000000  0.0000000 )
                  (  0.0000000  1.0000000  0.0000000 )
                  (  0.0000000  0.0000000  1.0000000 )


      isym =  2     120 deg rotation - cryst. axis [0,0,1]       

 cryst.   s( 2) = (     0          1          0      )
                  (    -1         -1          0      )
                  (     0          0          1      )

 cart.    s( 2) = ( -0.5000000 -0.8660254  0.0000000 )
                  (  0.8660254 -0.5000000  0.0000000 )
                  (  0.0000000  0.0000000  1.0000000 )


      isym =  3     120 deg rotation - cryst. axis [0,0,-1]      

 cryst.   s( 3) = (    -1         -1          0      )
                  (     1          0          0      )
                  (     0          0          1      )

 cart.    s( 3) = ( -0.5000000  0.8660254  0.0000000 )
                  ( -0.8660254 -0.5000000  0.0000000 )
                  (  0.0000000  0.0000000  1.0000000 )


      isym =  4     inv. 180 deg rotation - cart. axis [1,0,0]   

 cryst.   s( 4) = (    -1          0          0      )
                  (     1          1          0      )
                  (     0          0          1      )

 cart.    s( 4) = ( -1.0000000  0.0000000  0.0000000 )
                  (  0.0000000  1.0000000  0.0000000 )
                  (  0.0000000  0.0000000  1.0000000 )


      isym =  5     inv. 180 deg rotation - cryst. axis [0,1,0]  

 cryst.   s( 5) = (     1          1          0      )
                  (     0         -1          0      )
                  (     0          0          1      )

 cart.    s( 5) = (  0.5000000  0.8660254  0.0000000 )
                  (  0.8660254 -0.5000000  0.0000000 )
                  (  0.0000000  0.0000000  1.0000000 )


      isym =  6     inv. 180 deg rotation - cryst. axis [1,1,0]  

 cryst.   s( 6) = (     0         -1          0      )
                  (    -1          0          0      )
                  (     0          0          1      )

 cart.    s( 6) = (  0.5000000 -0.8660254  0.0000000 )
                  ( -0.8660254 -0.5000000  0.0000000 )
                  (  0.0000000  0.0000000  1.0000000 )


     point group C_3v (3m)  
     there are  3 classes
     the character table:

       E     2C3   3s_v 
A_1    1.00  1.00  1.00
A_2    1.00  1.00 -1.00
E      2.00 -1.00  0.00

     the symmetry operations in each class and the name of the first element:

     E        1
          identity                                               
     2C3      2    3
          120 deg rotation - cryst. axis [0,0,1]                 
     3s_v     4    5    6
          inv. 180 deg rotation - cart. axis [1,0,0]             

   Cartesian axes

     site n.     atom                  positions (alat units)
         1           Ga  tau(   1) = (   0.1000001   0.0577350   0.1627148  )
         2           Ga  tau(   2) = (   0.1000001   0.0577350   0.4886906  )
         3           Ga  tau(   3) = (   0.1000001   0.0577350   0.8146665  )
         4           Ga  tau(   4) = (   0.0000001   0.2309401   0.1627148  )
         5           Ga  tau(   5) = (   0.0000001   0.2309401   0.4886906  )
         6           Ga  tau(   6) = (   0.0000001   0.2309401   0.8146665  )
         7           Ga  tau(   7) = (  -0.0999999   0.4041451   0.1627148  )
         8           Ga  tau(   8) = (  -0.0999999   0.4041451   0.4886906  )
         9           Ga  tau(   9) = (  -0.0999999   0.4041451   0.8146665  )
        10           Ga  tau(  10) = (  -0.1999999   0.5773502   0.1627148  )
        11           Ga  tau(  11) = (  -0.1999999   0.5773502   0.4886906  )
        12           Ga  tau(  12) = (  -0.1999999   0.5773502   0.8146665  )
        13           Ga  tau(  13) = (  -0.2999999   0.7505553   0.1627148  )
        14           Ga  tau(  14) = (  -0.2999999   0.7505553   0.4886906  )
        15           Ga  tau(  15) = (  -0.2999999   0.7505553   0.8146665  )
        16           Ga  tau(  16) = (   0.3000001   0.0577350   0.1627148  )
        17           Ga  tau(  17) = (   0.3000001   0.0577350   0.4886906  )
        18           Ga  tau(  18) = (   0.3000001   0.0577350   0.8146665  )
        19           Ga  tau(  19) = (   0.2000001   0.2309401   0.1627148  )
        20           Ga  tau(  20) = (   0.2000001   0.2309401   0.4886906  )
        21           Ga  tau(  21) = (   0.2000001   0.2309401   0.8146665  )
        22           Ga  tau(  22) = (   0.1000001   0.4041451   0.1627148  )
        23           Ga  tau(  23) = (   0.1000001   0.4041451   0.4886906  )
        24           Ga  tau(  24) = (   0.1000001   0.4041451   0.8146665  )
        25           Ga  tau(  25) = (   0.0000001   0.5773502   0.1627148  )
        26           Ga  tau(  26) = (   0.0000001   0.5773502   0.4886906  )
        27           Ga  tau(  27) = (   0.0000001   0.5773502   0.8146665  )
        28           Ga  tau(  28) = (  -0.0999999   0.7505553   0.1627148  )
        29           Ga  tau(  29) = (  -0.0999999   0.7505553   0.4886906  )
        30           Ga  tau(  30) = (  -0.0999999   0.7505553   0.8146665  )
        31           Ga  tau(  31) = (   0.5000001   0.0577350   0.1627148  )
        32           Ga  tau(  32) = (   0.5000001   0.0577350   0.4886906  )
        33           Ga  tau(  33) = (   0.5000001   0.0577350   0.8146665  )
        34           Ga  tau(  34) = (   0.4000001   0.2309401   0.1627148  )
        35           Ga  tau(  35) = (   0.4000001   0.2309401   0.4886906  )
        36           Ga  tau(  36) = (   0.4000001   0.2309401   0.8146665  )
        37           Ga  tau(  37) = (   0.3000001   0.4041451   0.1627148  )
        38           Ga  tau(  38) = (   0.3000001   0.4041451   0.4886906  )
        39           Ga  tau(  39) = (   0.3000001   0.4041451   0.8146665  )
        40           Ga  tau(  40) = (   0.2000001   0.5773502   0.1627148  )
        41           Ga  tau(  41) = (   0.2000001   0.5773502   0.4886906  )
        42           Ga  tau(  42) = (   0.2000001   0.5773502   0.8146665  )
        43           Ga  tau(  43) = (   0.1000001   0.7505553   0.1627148  )
        44           Ga  tau(  44) = (   0.1000001   0.7505553   0.4886906  )
        45           Ga  tau(  45) = (   0.1000001   0.7505553   0.8146665  )
        46           Ga  tau(  46) = (   0.7000001   0.0577350   0.1627148  )
        47           Ga  tau(  47) = (   0.7000001   0.0577350   0.4886906  )
        48           Ga  tau(  48) = (   0.7000001   0.0577350   0.8146665  )
        49           Ga  tau(  49) = (   0.6000001   0.2309401   0.1627148  )
        50           Ga  tau(  50) = (   0.6000001   0.2309401   0.4886906  )
        51           Ga  tau(  51) = (   0.6000001   0.2309401   0.8146665  )
        52           Ga  tau(  52) = (   0.5000001   0.4041451   0.1627148  )
        53           Ga  tau(  53) = (   0.5000001   0.4041451   0.4886906  )
        54           Ga  tau(  54) = (   0.5000001   0.4041451   0.8146665  )
        55           Ga  tau(  55) = (   0.4000001   0.5773502   0.1627148  )
        56           Ga  tau(  56) = (   0.4000001   0.5773502   0.4886906  )
        57           Ga  tau(  57) = (   0.4000001   0.5773502   0.8146665  )
        58           Ga  tau(  58) = (   0.3000001   0.7505553   0.1627148  )
        59           Ga  tau(  59) = (   0.3000001   0.7505553   0.4886906  )
        60           Ga  tau(  60) = (   0.3000001   0.7505553   0.8146665  )
        61           Ga  tau(  61) = (   0.9000001   0.0577350   0.1627148  )
        62           Ga  tau(  62) = (   0.9000001   0.0577350   0.4886906  )
        63           Ga  tau(  63) = (   0.9000001   0.0577350   0.8146665  )
        64           Ga  tau(  64) = (   0.8000001   0.2309401   0.1627148  )
        65           Ga  tau(  65) = (   0.8000001   0.2309401   0.4886906  )
        66           Ga  tau(  66) = (   0.8000001   0.2309401   0.8146665  )
        67           Ga  tau(  67) = (   0.7000001   0.4041451   0.1627148  )
        68           Ga  tau(  68) = (   0.7000001   0.4041451   0.4886906  )
        69           Ga  tau(  69) = (   0.7000001   0.4041451   0.8146665  )
        70           Ga  tau(  70) = (   0.6000001   0.5773502   0.1627148  )
        71           Ga  tau(  71) = (   0.6000001   0.5773502   0.4886906  )
        72           Ga  tau(  72) = (   0.6000001   0.5773502   0.8146665  )
        73           Ga  tau(  73) = (   0.5000001   0.7505553   0.1627148  )
        74           Ga  tau(  74) = (   0.5000001   0.7505553   0.4886906  )
        75           Ga  tau(  75) = (   0.5000001   0.7505553   0.8146665  )
        76           Ga  tau(  76) = (  -0.0000001   0.1154701   0.3257027  )
        77           Ga  tau(  77) = (  -0.0000001   0.1154701   0.6516786  )
        78           Ga  tau(  78) = (  -0.0000001   0.1154701   0.9776544  )
        79           Ga  tau(  79) = (  -0.1000001   0.2886752   0.3257027  )
        80           Ga  tau(  80) = (  -0.1000001   0.2886752   0.6516786  )
        81           Ga  tau(  81) = (  -0.1000001   0.2886752   0.9776544  )
        82           Ga  tau(  82) = (  -0.2000001   0.4618803   0.3257027  )
        83           Ga  tau(  83) = (  -0.2000001   0.4618803   0.6516786  )
        84           Ga  tau(  84) = (  -0.2000001   0.4618803   0.9776544  )
        85           Ga  tau(  85) = (  -0.3000001   0.6350854   0.3257027  )
        86           Ga  tau(  86) = (  -0.3000001   0.6350854   0.6516786  )
        87           Ga  tau(  87) = (  -0.3000001   0.6350854   0.9776544  )
        88           Ga  tau(  88) = (  -0.4000001   0.8082905   0.3257027  )
        89           Ga  tau(  89) = (  -0.4000001   0.8082905   0.6516786  )
        90           Ga  tau(  90) = (  -0.4000001   0.8082905   0.9776544  )
        91           Ga  tau(  91) = (   0.1999999   0.1154701   0.3257027  )
        92           Ga  tau(  92) = (   0.1999999   0.1154701   0.6516786  )
        93           Ga  tau(  93) = (   0.1999999   0.1154701   0.9776544  )
        94           Ga  tau(  94) = (   0.0999999   0.2886752   0.3257027  )
        95           Ga  tau(  95) = (   0.0999999   0.2886752   0.6516786  )
        96           Ga  tau(  96) = (   0.0999999   0.2886752   0.9776544  )
        97           Ga  tau(  97) = (  -0.0000001   0.4618803   0.3257027  )
        98           Ga  tau(  98) = (  -0.0000001   0.4618803   0.6516786  )
        99           Ga  tau(  99) = (  -0.0000001   0.4618803   0.9776544  )
       100           Ga  tau( 100) = (  -0.1000001   0.6350854   0.3257027  )
       101           Ga  tau( 101) = (  -0.1000001   0.6350854   0.6516786  )
       102           Ga  tau( 102) = (  -0.1000001   0.6350854   0.9776544  )
       103           Ga  tau( 103) = (  -0.2000001   0.8082905   0.3257027  )
       104           Ga  tau( 104) = (  -0.2000001   0.8082905   0.6516786  )
       105           Ga  tau( 105) = (  -0.2000001   0.8082905   0.9776544  )
       106           Ga  tau( 106) = (   0.3999999   0.1154701   0.3257027  )
       107           Ga  tau( 107) = (   0.3999999   0.1154701   0.6516786  )
       108           Ga  tau( 108) = (   0.3999999   0.1154701   0.9776544  )
       109           Ga  tau( 109) = (   0.2999999   0.2886752   0.3257027  )
       110           Ga  tau( 110) = (   0.2999999   0.2886752   0.6516786  )
       111           Ga  tau( 111) = (   0.2999999   0.2886752   0.9776544  )
       112           Ga  tau( 112) = (   0.1999999   0.4618803   0.3257027  )
       113           Ga  tau( 113) = (   0.1999999   0.4618803   0.6516786  )
       114           Ga  tau( 114) = (   0.1999999   0.4618803   0.9776544  )
       115           Ga  tau( 115) = (   0.0999999   0.6350854   0.3257027  )
       116           Ga  tau( 116) = (   0.0999999   0.6350854   0.6516786  )
       117           Ga  tau( 117) = (   0.0999999   0.6350854   0.9776544  )
       118           Ga  tau( 118) = (  -0.0000001   0.8082905   0.3257027  )
       119           Ga  tau( 119) = (  -0.0000001   0.8082905   0.6516786  )
       120           Ga  tau( 120) = (  -0.0000001   0.8082905   0.9776544  )
       121           Ga  tau( 121) = (   0.5999999   0.1154701   0.3257027  )
       122           Ga  tau( 122) = (   0.5999999   0.1154701   0.6516786  )
       123           Ga  tau( 123) = (   0.5999999   0.1154701   0.9776544  )
       124           Ga  tau( 124) = (   0.4999999   0.2886752   0.3257027  )
       125           Ga  tau( 125) = (   0.4999999   0.2886752   0.6516786  )
       126           Ga  tau( 126) = (   0.4999999   0.2886752   0.9776544  )
       127           Ga  tau( 127) = (   0.3999999   0.4618803   0.3257027  )
       128           Ga  tau( 128) = (   0.3999999   0.4618803   0.6516786  )
       129           Ga  tau( 129) = (   0.3999999   0.4618803   0.9776544  )
       130           Ga  tau( 130) = (   0.2999999   0.6350854   0.3257027  )
       131           Ga  tau( 131) = (   0.2999999   0.6350854   0.6516786  )
       132           Ga  tau( 132) = (   0.2999999   0.6350854   0.9776544  )
       133           Ga  tau( 133) = (   0.1999999   0.8082905   0.3257027  )
       134           Ga  tau( 134) = (   0.1999999   0.8082905   0.6516786  )
       135           Ga  tau( 135) = (   0.1999999   0.8082905   0.9776544  )
       136           Ga  tau( 136) = (   0.7999999   0.1154701   0.3257027  )
       137           Ga  tau( 137) = (   0.7999999   0.1154701   0.6516786  )
       138           Ga  tau( 138) = (   0.7999999   0.1154701   0.9776544  )
       139           Ga  tau( 139) = (   0.6999999   0.2886752   0.3257027  )
       140           Ga  tau( 140) = (   0.6999999   0.2886752   0.6516786  )
       141           Ga  tau( 141) = (   0.6999999   0.2886752   0.9776544  )
       142           Ga  tau( 142) = (   0.5999999   0.4618803   0.3257027  )
       143           Ga  tau( 143) = (   0.5999999   0.4618803   0.6516786  )
       144           Ga  tau( 144) = (   0.5999999   0.4618803   0.9776544  )
       145           Ga  tau( 145) = (   0.4999999   0.6350854   0.3257027  )
       146           Ga  tau( 146) = (   0.4999999   0.6350854   0.6516786  )
       147           Ga  tau( 147) = (   0.4999999   0.6350854   0.9776544  )
       148           Ga  tau( 148) = (   0.3999999   0.8082905   0.3257027  )
       149           Ga  tau( 149) = (   0.3999999   0.8082905   0.6516786  )
       150           Ga  tau( 150) = (   0.3999999   0.8082905   0.9776544  )
       151           N   tau( 151) = (   0.1000001   0.0577350   0.2855019  )
       152           N   tau( 152) = (   0.1000001   0.0577350   0.6114777  )
       153           N   tau( 153) = (   0.1000001   0.0577350   0.9374535  )
       154           N   tau( 154) = (   0.0000001   0.2309401   0.2855019  )
       155           N   tau( 155) = (   0.0000001   0.2309401   0.6114777  )
       156           N   tau( 156) = (   0.0000001   0.2309401   0.9374535  )
       157           N   tau( 157) = (  -0.0999999   0.4041451   0.2855019  )
       158           N   tau( 158) = (  -0.0999999   0.4041451   0.6114777  )
       159           N   tau( 159) = (  -0.0999999   0.4041451   0.9374535  )
       160           N   tau( 160) = (  -0.1999999   0.5773502   0.2855019  )
       161           N   tau( 161) = (  -0.1999999   0.5773502   0.6114777  )
       162           N   tau( 162) = (  -0.1999999   0.5773502   0.9374535  )
       163           N   tau( 163) = (  -0.2999999   0.7505553   0.2855019  )
       164           N   tau( 164) = (  -0.2999999   0.7505553   0.6114777  )
       165           N   tau( 165) = (  -0.2999999   0.7505553   0.9374535  )
       166           N   tau( 166) = (   0.3000001   0.0577350   0.2855019  )
       167           N   tau( 167) = (   0.3000001   0.0577350   0.6114777  )
       168           N   tau( 168) = (   0.3000001   0.0577350   0.9374535  )
       169           N   tau( 169) = (   0.2000001   0.2309401   0.2855019  )
       170           N   tau( 170) = (   0.2000001   0.2309401   0.6114777  )
       171           N   tau( 171) = (   0.2000001   0.2309401   0.9374535  )
       172           N   tau( 172) = (   0.1000001   0.4041451   0.2855019  )
       173           N   tau( 173) = (   0.1000001   0.4041451   0.6114777  )
       174           N   tau( 174) = (   0.1000001   0.4041451   0.9374535  )
       175           N   tau( 175) = (   0.0000001   0.5773502   0.2855019  )
       176           N   tau( 176) = (   0.0000001   0.5773502   0.6114777  )
       177           N   tau( 177) = (   0.0000001   0.5773502   0.9374535  )
       178           N   tau( 178) = (  -0.0999999   0.7505553   0.2855019  )
       179           N   tau( 179) = (  -0.0999999   0.7505553   0.6114777  )
       180           N   tau( 180) = (  -0.0999999   0.7505553   0.9374535  )
       181           N   tau( 181) = (   0.5000001   0.0577350   0.2855019  )
       182           N   tau( 182) = (   0.5000001   0.0577350   0.6114777  )
       183           N   tau( 183) = (   0.5000001   0.0577350   0.9374535  )
       184           N   tau( 184) = (   0.4000001   0.2309401   0.2855019  )
       185           N   tau( 185) = (   0.4000001   0.2309401   0.6114777  )
       186           N   tau( 186) = (   0.4000001   0.2309401   0.9374535  )
       187           N   tau( 187) = (   0.3000001   0.4041451   0.2855019  )
       188           N   tau( 188) = (   0.3000001   0.4041451   0.6114777  )
       189           N   tau( 189) = (   0.3000001   0.4041451   0.9374535  )
       190           N   tau( 190) = (   0.2000001   0.5773502   0.2855019  )
       191           N   tau( 191) = (   0.2000001   0.5773502   0.6114777  )
       192           N   tau( 192) = (   0.2000001   0.5773502   0.9374535  )
       193           N   tau( 193) = (   0.1000001   0.7505553   0.2855019  )
       194           N   tau( 194) = (   0.1000001   0.7505553   0.6114777  )
       195           N   tau( 195) = (   0.1000001   0.7505553   0.9374535  )
       196           N   tau( 196) = (   0.7000001   0.0577350   0.2855019  )
       197           N   tau( 197) = (   0.7000001   0.0577350   0.6114777  )
       198           N   tau( 198) = (   0.7000001   0.0577350   0.9374535  )
       199           N   tau( 199) = (   0.6000001   0.2309401   0.2855019  )
       200           N   tau( 200) = (   0.6000001   0.2309401   0.6114777  )
       201           N   tau( 201) = (   0.6000001   0.2309401   0.9374535  )
       202           N   tau( 202) = (   0.5000001   0.4041451   0.2855019  )
       203           N   tau( 203) = (   0.5000001   0.4041451   0.6114777  )
       204           N   tau( 204) = (   0.5000001   0.4041451   0.9374535  )
       205           N   tau( 205) = (   0.4000001   0.5773502   0.2855019  )
       206           N   tau( 206) = (   0.4000001   0.5773502   0.6114777  )
       207           N   tau( 207) = (   0.4000001   0.5773502   0.9374535  )
       208           N   tau( 208) = (   0.3000001   0.7505553   0.2855019  )
       209           N   tau( 209) = (   0.3000001   0.7505553   0.6114777  )
       210           N   tau( 210) = (   0.3000001   0.7505553   0.9374535  )
       211           N   tau( 211) = (   0.9000001   0.0577350   0.2855019  )
       212           N   tau( 212) = (   0.9000001   0.0577350   0.6114777  )
       213           N   tau( 213) = (   0.9000001   0.0577350   0.9374535  )
       214           N   tau( 214) = (   0.8000001   0.2309401   0.2855019  )
       215           N   tau( 215) = (   0.8000001   0.2309401   0.6114777  )
       216           N   tau( 216) = (   0.8000001   0.2309401   0.9374535  )
       217           N   tau( 217) = (   0.7000001   0.4041451   0.2855019  )
       218           N   tau( 218) = (   0.7000001   0.4041451   0.6114777  )
       219           N   tau( 219) = (   0.7000001   0.4041451   0.9374535  )
       220           N   tau( 220) = (   0.6000001   0.5773502   0.2855019  )
       221           N   tau( 221) = (   0.6000001   0.5773502   0.6114777  )
       222           N   tau( 222) = (   0.6000001   0.5773502   0.9374535  )
       223           N   tau( 223) = (   0.5000001   0.7505553   0.2855019  )
       224           N   tau( 224) = (   0.5000001   0.7505553   0.6114777  )
       225           N   tau( 225) = (   0.5000001   0.7505553   0.9374535  )
       226           N   tau( 226) = (  -0.0000001   0.1154701   0.1225140  )
       227           N   tau( 227) = (  -0.0000001   0.1154701   0.4484898  )
       228           N   tau( 228) = (  -0.0000001   0.1154701   0.7744656  )
       229           N   tau( 229) = (  -0.1000001   0.2886752   0.1225140  )
       230           N   tau( 230) = (  -0.1000001   0.2886752   0.4484898  )
       231           N   tau( 231) = (  -0.1000001   0.2886752   0.7744656  )
       232           N   tau( 232) = (  -0.2000001   0.4618803   0.1225140  )
       233           N   tau( 233) = (  -0.2000001   0.4618803   0.4484898  )
       234           N   tau( 234) = (  -0.2000001   0.4618803   0.7744656  )
       235           N   tau( 235) = (  -0.3000001   0.6350854   0.1225140  )
       236           N   tau( 236) = (  -0.3000001   0.6350854   0.4484898  )
       237           N   tau( 237) = (  -0.3000001   0.6350854   0.7744656  )
       238           N   tau( 238) = (  -0.4000001   0.8082905   0.1225140  )
       239           N   tau( 239) = (  -0.4000001   0.8082905   0.4484898  )
       240           N   tau( 240) = (  -0.4000001   0.8082905   0.7744656  )
       241           N   tau( 241) = (   0.1999999   0.1154701   0.1225140  )
       242           N   tau( 242) = (   0.1999999   0.1154701   0.4484898  )
       243           N   tau( 243) = (   0.1999999   0.1154701   0.7744656  )
       244           N   tau( 244) = (   0.0999999   0.2886752   0.1225140  )
       245           N   tau( 245) = (   0.0999999   0.2886752   0.4484898  )
       246           N   tau( 246) = (   0.0999999   0.2886752   0.7744656  )
       247           N   tau( 247) = (  -0.0000001   0.4618803   0.1225140  )
       248           N   tau( 248) = (  -0.0000001   0.4618803   0.4484898  )
       249           N   tau( 249) = (  -0.0000001   0.4618803   0.7744656  )
       250           N   tau( 250) = (  -0.1000001   0.6350854   0.1225140  )
       251           N   tau( 251) = (  -0.1000001   0.6350854   0.4484898  )
       252           N   tau( 252) = (  -0.1000001   0.6350854   0.7744656  )
       253           N   tau( 253) = (  -0.2000001   0.8082905   0.1225140  )
       254           N   tau( 254) = (  -0.2000001   0.8082905   0.4484898  )
       255           N   tau( 255) = (  -0.2000001   0.8082905   0.7744656  )
       256           N   tau( 256) = (   0.3999999   0.1154701   0.1225140  )
       257           N   tau( 257) = (   0.3999999   0.1154701   0.4484898  )
       258           N   tau( 258) = (   0.3999999   0.1154701   0.7744656  )
       259           N   tau( 259) = (   0.2999999   0.2886752   0.1225140  )
       260           N   tau( 260) = (   0.2999999   0.2886752   0.4484898  )
       261           N   tau( 261) = (   0.2999999   0.2886752   0.7744656  )
       262           N   tau( 262) = (   0.1999999   0.4618803   0.1225140  )
       263           N   tau( 263) = (   0.1999999   0.4618803   0.4484898  )
       264           N   tau( 264) = (   0.1999999   0.4618803   0.7744656  )
       265           N   tau( 265) = (   0.0999999   0.6350854   0.1225140  )
       266           N   tau( 266) = (   0.0999999   0.6350854   0.4484898  )
       267           N   tau( 267) = (   0.0999999   0.6350854   0.7744656  )
       268           N   tau( 268) = (  -0.0000001   0.8082905   0.1225140  )
       269           N   tau( 269) = (  -0.0000001   0.8082905   0.4484898  )
       270           N   tau( 270) = (  -0.0000001   0.8082905   0.7744656  )
       271           N   tau( 271) = (   0.5999999   0.1154701   0.1225140  )
       272           N   tau( 272) = (   0.5999999   0.1154701   0.4484898  )
       273           N   tau( 273) = (   0.5999999   0.1154701   0.7744656  )
       274           N   tau( 274) = (   0.4999999   0.2886752   0.1225140  )
       275           N   tau( 275) = (   0.4999999   0.2886752   0.4484898  )
       276           N   tau( 276) = (   0.4999999   0.2886752   0.7744656  )
       277           N   tau( 277) = (   0.3999999   0.4618803   0.1225140  )
       278           N   tau( 278) = (   0.3999999   0.4618803   0.4484898  )
       279           N   tau( 279) = (   0.3999999   0.4618803   0.7744656  )
       280           N   tau( 280) = (   0.2999999   0.6350854   0.1225140  )
       281           N   tau( 281) = (   0.2999999   0.6350854   0.4484898  )
       282           N   tau( 282) = (   0.2999999   0.6350854   0.7744656  )
       283           N   tau( 283) = (   0.1999999   0.8082905   0.1225140  )
       284           N   tau( 284) = (   0.1999999   0.8082905   0.4484898  )
       285           N   tau( 285) = (   0.1999999   0.8082905   0.7744656  )
       286           N   tau( 286) = (   0.7999999   0.1154701   0.1225140  )
       287           N   tau( 287) = (   0.7999999   0.1154701   0.4484898  )
       288           N   tau( 288) = (   0.7999999   0.1154701   0.7744656  )
       289           N   tau( 289) = (   0.6999999   0.2886752   0.1225140  )
       290           N   tau( 290) = (   0.6999999   0.2886752   0.4484898  )
       291           N   tau( 291) = (   0.6999999   0.2886752   0.7744656  )
       292           N   tau( 292) = (   0.5999999   0.4618803   0.1225140  )
       293           N   tau( 293) = (   0.5999999   0.4618803   0.4484898  )
       294           N   tau( 294) = (   0.5999999   0.4618803   0.7744656  )
       295           N   tau( 295) = (   0.4999999   0.6350854   0.1225140  )
       296           N   tau( 296) = (   0.4999999   0.6350854   0.4484898  )
       297           N   tau( 297) = (   0.4999999   0.6350854   0.7744656  )
       298           N   tau( 298) = (   0.3999999   0.8082905   0.1225140  )
       299           N   tau( 299) = (   0.3999999   0.8082905   0.4484898  )
       300           N   tau( 300) = (   0.3999999   0.8082905   0.7744656  )

   Crystallographic axes

     site n.     atom                  positions (cryst. coord.)
         1           Ga  tau(   1) = (  0.1333334  0.0666666  0.1663874  )
         2           Ga  tau(   2) = (  0.1333334  0.0666666  0.4997208  )
         3           Ga  tau(   3) = (  0.1333334  0.0666666  0.8330541  )
         4           Ga  tau(   4) = (  0.1333334  0.2666666  0.1663874  )
         5           Ga  tau(   5) = (  0.1333334  0.2666666  0.4997208  )
         6           Ga  tau(   6) = (  0.1333334  0.2666666  0.8330541  )
         7           Ga  tau(   7) = (  0.1333334  0.4666666  0.1663874  )
         8           Ga  tau(   8) = (  0.1333334  0.4666666  0.4997208  )
         9           Ga  tau(   9) = (  0.1333334  0.4666666  0.8330541  )
        10           Ga  tau(  10) = (  0.1333334  0.6666666  0.1663874  )
        11           Ga  tau(  11) = (  0.1333334  0.6666666  0.4997208  )
        12           Ga  tau(  12) = (  0.1333334  0.6666666  0.8330541  )
        13           Ga  tau(  13) = (  0.1333334  0.8666666  0.1663874  )
        14           Ga  tau(  14) = (  0.1333334  0.8666666  0.4997208  )
        15           Ga  tau(  15) = (  0.1333334  0.8666666  0.8330541  )
        16           Ga  tau(  16) = (  0.3333334  0.0666666  0.1663874  )
        17           Ga  tau(  17) = (  0.3333334  0.0666666  0.4997208  )
        18           Ga  tau(  18) = (  0.3333334  0.0666666  0.8330541  )
        19           Ga  tau(  19) = (  0.3333334  0.2666666  0.1663874  )
        20           Ga  tau(  20) = (  0.3333334  0.2666666  0.4997208  )
        21           Ga  tau(  21) = (  0.3333334  0.2666666  0.8330541  )
        22           Ga  tau(  22) = (  0.3333334  0.4666666  0.1663874  )
        23           Ga  tau(  23) = (  0.3333334  0.4666666  0.4997208  )
        24           Ga  tau(  24) = (  0.3333334  0.4666666  0.8330541  )
        25           Ga  tau(  25) = (  0.3333334  0.6666666  0.1663874  )
        26           Ga  tau(  26) = (  0.3333334  0.6666666  0.4997208  )
        27           Ga  tau(  27) = (  0.3333334  0.6666666  0.8330541  )
        28           Ga  tau(  28) = (  0.3333334  0.8666666  0.1663874  )
        29           Ga  tau(  29) = (  0.3333334  0.8666666  0.4997208  )
        30           Ga  tau(  30) = (  0.3333334  0.8666666  0.8330541  )
        31           Ga  tau(  31) = (  0.5333334  0.0666666  0.1663874  )
        32           Ga  tau(  32) = (  0.5333334  0.0666666  0.4997208  )
        33           Ga  tau(  33) = (  0.5333334  0.0666666  0.8330541  )
        34           Ga  tau(  34) = (  0.5333334  0.2666666  0.1663874  )
        35           Ga  tau(  35) = (  0.5333334  0.2666666  0.4997208  )
        36           Ga  tau(  36) = (  0.5333334  0.2666666  0.8330541  )
        37           Ga  tau(  37) = (  0.5333334  0.4666666  0.1663874  )
        38           Ga  tau(  38) = (  0.5333334  0.4666666  0.4997208  )
        39           Ga  tau(  39) = (  0.5333334  0.4666666  0.8330541  )
        40           Ga  tau(  40) = (  0.5333334  0.6666666  0.1663874  )
        41           Ga  tau(  41) = (  0.5333334  0.6666666  0.4997208  )
        42           Ga  tau(  42) = (  0.5333334  0.6666666  0.8330541  )
        43           Ga  tau(  43) = (  0.5333334  0.8666666  0.1663874  )
        44           Ga  tau(  44) = (  0.5333334  0.8666666  0.4997208  )
        45           Ga  tau(  45) = (  0.5333334  0.8666666  0.8330541  )
        46           Ga  tau(  46) = (  0.7333334  0.0666666  0.1663874  )
        47           Ga  tau(  47) = (  0.7333334  0.0666666  0.4997208  )
        48           Ga  tau(  48) = (  0.7333334  0.0666666  0.8330541  )
        49           Ga  tau(  49) = (  0.7333334  0.2666666  0.1663874  )
        50           Ga  tau(  50) = (  0.7333334  0.2666666  0.4997208  )
        51           Ga  tau(  51) = (  0.7333334  0.2666666  0.8330541  )
        52           Ga  tau(  52) = (  0.7333334  0.4666666  0.1663874  )
        53           Ga  tau(  53) = (  0.7333334  0.4666666  0.4997208  )
        54           Ga  tau(  54) = (  0.7333334  0.4666666  0.8330541  )
        55           Ga  tau(  55) = (  0.7333334  0.6666666  0.1663874  )
        56           Ga  tau(  56) = (  0.7333334  0.6666666  0.4997208  )
        57           Ga  tau(  57) = (  0.7333334  0.6666666  0.8330541  )
        58           Ga  tau(  58) = (  0.7333334  0.8666666  0.1663874  )
        59           Ga  tau(  59) = (  0.7333334  0.8666666  0.4997208  )
        60           Ga  tau(  60) = (  0.7333334  0.8666666  0.8330541  )
        61           Ga  tau(  61) = (  0.9333334  0.0666666  0.1663874  )
        62           Ga  tau(  62) = (  0.9333334  0.0666666  0.4997208  )
        63           Ga  tau(  63) = (  0.9333334  0.0666666  0.8330541  )
        64           Ga  tau(  64) = (  0.9333334  0.2666666  0.1663874  )
        65           Ga  tau(  65) = (  0.9333334  0.2666666  0.4997208  )
        66           Ga  tau(  66) = (  0.9333334  0.2666666  0.8330541  )
        67           Ga  tau(  67) = (  0.9333334  0.4666666  0.1663874  )
        68           Ga  tau(  68) = (  0.9333334  0.4666666  0.4997208  )
        69           Ga  tau(  69) = (  0.9333334  0.4666666  0.8330541  )
        70           Ga  tau(  70) = (  0.9333334  0.6666666  0.1663874  )
        71           Ga  tau(  71) = (  0.9333334  0.6666666  0.4997208  )
        72           Ga  tau(  72) = (  0.9333334  0.6666666  0.8330541  )
        73           Ga  tau(  73) = (  0.9333334  0.8666666  0.1663874  )
        74           Ga  tau(  74) = (  0.9333334  0.8666666  0.4997208  )
        75           Ga  tau(  75) = (  0.9333334  0.8666666  0.8330541  )
        76           Ga  tau(  76) = (  0.0666666  0.1333334  0.3330541  )
        77           Ga  tau(  77) = (  0.0666666  0.1333334  0.6663874  )
        78           Ga  tau(  78) = (  0.0666666  0.1333334  0.9997208  )
        79           Ga  tau(  79) = (  0.0666666  0.3333334  0.3330541  )
        80           Ga  tau(  80) = (  0.0666666  0.3333334  0.6663874  )
        81           Ga  tau(  81) = (  0.0666666  0.3333334  0.9997208  )
        82           Ga  tau(  82) = (  0.0666666  0.5333334  0.3330541  )
        83           Ga  tau(  83) = (  0.0666666  0.5333334  0.6663874  )
        84           Ga  tau(  84) = (  0.0666666  0.5333334  0.9997208  )
        85           Ga  tau(  85) = (  0.0666666  0.7333334  0.3330541  )
        86           Ga  tau(  86) = (  0.0666666  0.7333334  0.6663874  )
        87           Ga  tau(  87) = (  0.0666666  0.7333334  0.9997208  )
        88           Ga  tau(  88) = (  0.0666666  0.9333334  0.3330541  )
        89           Ga  tau(  89) = (  0.0666666  0.9333334  0.6663874  )
        90           Ga  tau(  90) = (  0.0666666  0.9333334  0.9997208  )
        91           Ga  tau(  91) = (  0.2666666  0.1333334  0.3330541  )
        92           Ga  tau(  92) = (  0.2666666  0.1333334  0.6663874  )
        93           Ga  tau(  93) = (  0.2666666  0.1333334  0.9997208  )
        94           Ga  tau(  94) = (  0.2666666  0.3333334  0.3330541  )
        95           Ga  tau(  95) = (  0.2666666  0.3333334  0.6663874  )
        96           Ga  tau(  96) = (  0.2666666  0.3333334  0.9997208  )
        97           Ga  tau(  97) = (  0.2666666  0.5333334  0.3330541  )
        98           Ga  tau(  98) = (  0.2666666  0.5333334  0.6663874  )
        99           Ga  tau(  99) = (  0.2666666  0.5333334  0.9997208  )
       100           Ga  tau( 100) = (  0.2666666  0.7333334  0.3330541  )
       101           Ga  tau( 101) = (  0.2666666  0.7333334  0.6663874  )
       102           Ga  tau( 102) = (  0.2666666  0.7333334  0.9997208  )
       103           Ga  tau( 103) = (  0.2666666  0.9333334  0.3330541  )
       104           Ga  tau( 104) = (  0.2666666  0.9333334  0.6663874  )
       105           Ga  tau( 105) = (  0.2666666  0.9333334  0.9997208  )
       106           Ga  tau( 106) = (  0.4666666  0.1333334  0.3330541  )
       107           Ga  tau( 107) = (  0.4666666  0.1333334  0.6663874  )
       108           Ga  tau( 108) = (  0.4666666  0.1333334  0.9997208  )
       109           Ga  tau( 109) = (  0.4666666  0.3333334  0.3330541  )
       110           Ga  tau( 110) = (  0.4666666  0.3333334  0.6663874  )
       111           Ga  tau( 111) = (  0.4666666  0.3333334  0.9997208  )
       112           Ga  tau( 112) = (  0.4666666  0.5333334  0.3330541  )
       113           Ga  tau( 113) = (  0.4666666  0.5333334  0.6663874  )
       114           Ga  tau( 114) = (  0.4666666  0.5333334  0.9997208  )
       115           Ga  tau( 115) = (  0.4666666  0.7333334  0.3330541  )
       116           Ga  tau( 116) = (  0.4666666  0.7333334  0.6663874  )
       117           Ga  tau( 117) = (  0.4666666  0.7333334  0.9997208  )
       118           Ga  tau( 118) = (  0.4666666  0.9333334  0.3330541  )
       119           Ga  tau( 119) = (  0.4666666  0.9333334  0.6663874  )
       120           Ga  tau( 120) = (  0.4666666  0.9333334  0.9997208  )
       121           Ga  tau( 121) = (  0.6666666  0.1333334  0.3330541  )
       122           Ga  tau( 122) = (  0.6666666  0.1333334  0.6663874  )
       123           Ga  tau( 123) = (  0.6666666  0.1333334  0.9997208  )
       124           Ga  tau( 124) = (  0.6666666  0.3333334  0.3330541  )
       125           Ga  tau( 125) = (  0.6666666  0.3333334  0.6663874  )
       126           Ga  tau( 126) = (  0.6666666  0.3333334  0.9997208  )
       127           Ga  tau( 127) = (  0.6666666  0.5333334  0.3330541  )
       128           Ga  tau( 128) = (  0.6666666  0.5333334  0.6663874  )
       129           Ga  tau( 129) = (  0.6666666  0.5333334  0.9997208  )
       130           Ga  tau( 130) = (  0.6666666  0.7333334  0.3330541  )
       131           Ga  tau( 131) = (  0.6666666  0.7333334  0.6663874  )
       132           Ga  tau( 132) = (  0.6666666  0.7333334  0.9997208  )
       133           Ga  tau( 133) = (  0.6666666  0.9333334  0.3330541  )
       134           Ga  tau( 134) = (  0.6666666  0.9333334  0.6663874  )
       135           Ga  tau( 135) = (  0.6666666  0.9333334  0.9997208  )
       136           Ga  tau( 136) = (  0.8666666  0.1333334  0.3330541  )
       137           Ga  tau( 137) = (  0.8666666  0.1333334  0.6663874  )
       138           Ga  tau( 138) = (  0.8666666  0.1333334  0.9997208  )
       139           Ga  tau( 139) = (  0.8666666  0.3333334  0.3330541  )
       140           Ga  tau( 140) = (  0.8666666  0.3333334  0.6663874  )
       141           Ga  tau( 141) = (  0.8666666  0.3333334  0.9997208  )
       142           Ga  tau( 142) = (  0.8666666  0.5333334  0.3330541  )
       143           Ga  tau( 143) = (  0.8666666  0.5333334  0.6663874  )
       144           Ga  tau( 144) = (  0.8666666  0.5333334  0.9997208  )
       145           Ga  tau( 145) = (  0.8666666  0.7333334  0.3330541  )
       146           Ga  tau( 146) = (  0.8666666  0.7333334  0.6663874  )
       147           Ga  tau( 147) = (  0.8666666  0.7333334  0.9997208  )
       148           Ga  tau( 148) = (  0.8666666  0.9333334  0.3330541  )
       149           Ga  tau( 149) = (  0.8666666  0.9333334  0.6663874  )
       150           Ga  tau( 150) = (  0.8666666  0.9333334  0.9997208  )
       151           N   tau( 151) = (  0.1333334  0.0666666  0.2919459  )
       152           N   tau( 152) = (  0.1333334  0.0666666  0.6252792  )
       153           N   tau( 153) = (  0.1333334  0.0666666  0.9586126  )
       154           N   tau( 154) = (  0.1333334  0.2666666  0.2919459  )
       155           N   tau( 155) = (  0.1333334  0.2666666  0.6252792  )
       156           N   tau( 156) = (  0.1333334  0.2666666  0.9586126  )
       157           N   tau( 157) = (  0.1333334  0.4666666  0.2919459  )
       158           N   tau( 158) = (  0.1333334  0.4666666  0.6252792  )
       159           N   tau( 159) = (  0.1333334  0.4666666  0.9586126  )
       160           N   tau( 160) = (  0.1333334  0.6666666  0.2919459  )
       161           N   tau( 161) = (  0.1333334  0.6666666  0.6252792  )
       162           N   tau( 162) = (  0.1333334  0.6666666  0.9586126  )
       163           N   tau( 163) = (  0.1333334  0.8666666  0.2919459  )
       164           N   tau( 164) = (  0.1333334  0.8666666  0.6252792  )
       165           N   tau( 165) = (  0.1333334  0.8666666  0.9586126  )
       166           N   tau( 166) = (  0.3333334  0.0666666  0.2919459  )
       167           N   tau( 167) = (  0.3333334  0.0666666  0.6252792  )
       168           N   tau( 168) = (  0.3333334  0.0666666  0.9586126  )
       169           N   tau( 169) = (  0.3333334  0.2666666  0.2919459  )
       170           N   tau( 170) = (  0.3333334  0.2666666  0.6252792  )
       171           N   tau( 171) = (  0.3333334  0.2666666  0.9586126  )
       172           N   tau( 172) = (  0.3333334  0.4666666  0.2919459  )
       173           N   tau( 173) = (  0.3333334  0.4666666  0.6252792  )
       174           N   tau( 174) = (  0.3333334  0.4666666  0.9586126  )
       175           N   tau( 175) = (  0.3333334  0.6666666  0.2919459  )
       176           N   tau( 176) = (  0.3333334  0.6666666  0.6252792  )
       177           N   tau( 177) = (  0.3333334  0.6666666  0.9586126  )
       178           N   tau( 178) = (  0.3333334  0.8666666  0.2919459  )
       179           N   tau( 179) = (  0.3333334  0.8666666  0.6252792  )
       180           N   tau( 180) = (  0.3333334  0.8666666  0.9586126  )
       181           N   tau( 181) = (  0.5333334  0.0666666  0.2919459  )
       182           N   tau( 182) = (  0.5333334  0.0666666  0.6252792  )
       183           N   tau( 183) = (  0.5333334  0.0666666  0.9586126  )
       184           N   tau( 184) = (  0.5333334  0.2666666  0.2919459  )
       185           N   tau( 185) = (  0.5333334  0.2666666  0.6252792  )
       186           N   tau( 186) = (  0.5333334  0.2666666  0.9586126  )
       187           N   tau( 187) = (  0.5333334  0.4666666  0.2919459  )
       188           N   tau( 188) = (  0.5333334  0.4666666  0.6252792  )
       189           N   tau( 189) = (  0.5333334  0.4666666  0.9586126  )
       190           N   tau( 190) = (  0.5333334  0.6666666  0.2919459  )
       191           N   tau( 191) = (  0.5333334  0.6666666  0.6252792  )
       192           N   tau( 192) = (  0.5333334  0.6666666  0.9586126  )
       193           N   tau( 193) = (  0.5333334  0.8666666  0.2919459  )
       194           N   tau( 194) = (  0.5333334  0.8666666  0.6252792  )
       195           N   tau( 195) = (  0.5333334  0.8666666  0.9586126  )
       196           N   tau( 196) = (  0.7333334  0.0666666  0.2919459  )
       197           N   tau( 197) = (  0.7333334  0.0666666  0.6252792  )
       198           N   tau( 198) = (  0.7333334  0.0666666  0.9586126  )
       199           N   tau( 199) = (  0.7333334  0.2666666  0.2919459  )
       200           N   tau( 200) = (  0.7333334  0.2666666  0.6252792  )
       201           N   tau( 201) = (  0.7333334  0.2666666  0.9586126  )
       202           N   tau( 202) = (  0.7333334  0.4666666  0.2919459  )
       203           N   tau( 203) = (  0.7333334  0.4666666  0.6252792  )
       204           N   tau( 204) = (  0.7333334  0.4666666  0.9586126  )
       205           N   tau( 205) = (  0.7333334  0.6666666  0.2919459  )
       206           N   tau( 206) = (  0.7333334  0.6666666  0.6252792  )
       207           N   tau( 207) = (  0.7333334  0.6666666  0.9586126  )
       208           N   tau( 208) = (  0.7333334  0.8666666  0.2919459  )
       209           N   tau( 209) = (  0.7333334  0.8666666  0.6252792  )
       210           N   tau( 210) = (  0.7333334  0.8666666  0.9586126  )
       211           N   tau( 211) = (  0.9333334  0.0666666  0.2919459  )
       212           N   tau( 212) = (  0.9333334  0.0666666  0.6252792  )
       213           N   tau( 213) = (  0.9333334  0.0666666  0.9586126  )
       214           N   tau( 214) = (  0.9333334  0.2666666  0.2919459  )
       215           N   tau( 215) = (  0.9333334  0.2666666  0.6252792  )
       216           N   tau( 216) = (  0.9333334  0.2666666  0.9586126  )
       217           N   tau( 217) = (  0.9333334  0.4666666  0.2919459  )
       218           N   tau( 218) = (  0.9333334  0.4666666  0.6252792  )
       219           N   tau( 219) = (  0.9333334  0.4666666  0.9586126  )
       220           N   tau( 220) = (  0.9333334  0.6666666  0.2919459  )
       221           N   tau( 221) = (  0.9333334  0.6666666  0.6252792  )
       222           N   tau( 222) = (  0.9333334  0.6666666  0.9586126  )
       223           N   tau( 223) = (  0.9333334  0.8666666  0.2919459  )
       224           N   tau( 224) = (  0.9333334  0.8666666  0.6252792  )
       225           N   tau( 225) = (  0.9333334  0.8666666  0.9586126  )
       226           N   tau( 226) = (  0.0666666  0.1333334  0.1252792  )
       227           N   tau( 227) = (  0.0666666  0.1333334  0.4586126  )
       228           N   tau( 228) = (  0.0666666  0.1333334  0.7919459  )
       229           N   tau( 229) = (  0.0666666  0.3333334  0.1252792  )
       230           N   tau( 230) = (  0.0666666  0.3333334  0.4586126  )
       231           N   tau( 231) = (  0.0666666  0.3333334  0.7919459  )
       232           N   tau( 232) = (  0.0666666  0.5333334  0.1252792  )
       233           N   tau( 233) = (  0.0666666  0.5333334  0.4586126  )
       234           N   tau( 234) = (  0.0666666  0.5333334  0.7919459  )
       235           N   tau( 235) = (  0.0666666  0.7333334  0.1252792  )
       236           N   tau( 236) = (  0.0666666  0.7333334  0.4586126  )
       237           N   tau( 237) = (  0.0666666  0.7333334  0.7919459  )
       238           N   tau( 238) = (  0.0666666  0.9333334  0.1252792  )
       239           N   tau( 239) = (  0.0666666  0.9333334  0.4586126  )
       240           N   tau( 240) = (  0.0666666  0.9333334  0.7919459  )
       241           N   tau( 241) = (  0.2666666  0.1333334  0.1252792  )
       242           N   tau( 242) = (  0.2666666  0.1333334  0.4586126  )
       243           N   tau( 243) = (  0.2666666  0.1333334  0.7919459  )
       244           N   tau( 244) = (  0.2666666  0.3333334  0.1252792  )
       245           N   tau( 245) = (  0.2666666  0.3333334  0.4586126  )
       246           N   tau( 246) = (  0.2666666  0.3333334  0.7919459  )
       247           N   tau( 247) = (  0.2666666  0.5333334  0.1252792  )
       248           N   tau( 248) = (  0.2666666  0.5333334  0.4586126  )
       249           N   tau( 249) = (  0.2666666  0.5333334  0.7919459  )
       250           N   tau( 250) = (  0.2666666  0.7333334  0.1252792  )
       251           N   tau( 251) = (  0.2666666  0.7333334  0.4586126  )
       252           N   tau( 252) = (  0.2666666  0.7333334  0.7919459  )
       253           N   tau( 253) = (  0.2666666  0.9333334  0.1252792  )
       254           N   tau( 254) = (  0.2666666  0.9333334  0.4586126  )
       255           N   tau( 255) = (  0.2666666  0.9333334  0.7919459  )
       256           N   tau( 256) = (  0.4666666  0.1333334  0.1252792  )
       257           N   tau( 257) = (  0.4666666  0.1333334  0.4586126  )
       258           N   tau( 258) = (  0.4666666  0.1333334  0.7919459  )
       259           N   tau( 259) = (  0.4666666  0.3333334  0.1252792  )
       260           N   tau( 260) = (  0.4666666  0.3333334  0.4586126  )
       261           N   tau( 261) = (  0.4666666  0.3333334  0.7919459  )
       262           N   tau( 262) = (  0.4666666  0.5333334  0.1252792  )
       263           N   tau( 263) = (  0.4666666  0.5333334  0.4586126  )
       264           N   tau( 264) = (  0.4666666  0.5333334  0.7919459  )
       265           N   tau( 265) = (  0.4666666  0.7333334  0.1252792  )
       266           N   tau( 266) = (  0.4666666  0.7333334  0.4586126  )
       267           N   tau( 267) = (  0.4666666  0.7333334  0.7919459  )
       268           N   tau( 268) = (  0.4666666  0.9333334  0.1252792  )
       269           N   tau( 269) = (  0.4666666  0.9333334  0.4586126  )
       270           N   tau( 270) = (  0.4666666  0.9333334  0.7919459  )
       271           N   tau( 271) = (  0.6666666  0.1333334  0.1252792  )
       272           N   tau( 272) = (  0.6666666  0.1333334  0.4586126  )
       273           N   tau( 273) = (  0.6666666  0.1333334  0.7919459  )
       274           N   tau( 274) = (  0.6666666  0.3333334  0.1252792  )
       275           N   tau( 275) = (  0.6666666  0.3333334  0.4586126  )
       276           N   tau( 276) = (  0.6666666  0.3333334  0.7919459  )
       277           N   tau( 277) = (  0.6666666  0.5333334  0.1252792  )
       278           N   tau( 278) = (  0.6666666  0.5333334  0.4586126  )
       279           N   tau( 279) = (  0.6666666  0.5333334  0.7919459  )
       280           N   tau( 280) = (  0.6666666  0.7333334  0.1252792  )
       281           N   tau( 281) = (  0.6666666  0.7333334  0.4586126  )
       282           N   tau( 282) = (  0.6666666  0.7333334  0.7919459  )
       283           N   tau( 283) = (  0.6666666  0.9333334  0.1252792  )
       284           N   tau( 284) = (  0.6666666  0.9333334  0.4586126  )
       285           N   tau( 285) = (  0.6666666  0.9333334  0.7919459  )
       286           N   tau( 286) = (  0.8666666  0.1333334  0.1252792  )
       287           N   tau( 287) = (  0.8666666  0.1333334  0.4586126  )
       288           N   tau( 288) = (  0.8666666  0.1333334  0.7919459  )
       289           N   tau( 289) = (  0.8666666  0.3333334  0.1252792  )
       290           N   tau( 290) = (  0.8666666  0.3333334  0.4586126  )
       291           N   tau( 291) = (  0.8666666  0.3333334  0.7919459  )
       292           N   tau( 292) = (  0.8666666  0.5333334  0.1252792  )
       293           N   tau( 293) = (  0.8666666  0.5333334  0.4586126  )
       294           N   tau( 294) = (  0.8666666  0.5333334  0.7919459  )
       295           N   tau( 295) = (  0.8666666  0.7333334  0.1252792  )
       296           N   tau( 296) = (  0.8666666  0.7333334  0.4586126  )
       297           N   tau( 297) = (  0.8666666  0.7333334  0.7919459  )
       298           N   tau( 298) = (  0.8666666  0.9333334  0.1252792  )
       299           N   tau( 299) = (  0.8666666  0.9333334  0.4586126  )
       300           N   tau( 300) = (  0.8666666  0.9333334  0.7919459  )

     number of k points=     4  Gaussian smearing, width (Ry)=  0.0100
                       cart. coord. in units 2pi/alat
        k(    1) = (   0.0000000   0.0000000   0.0000000), wk =   0.2500000
        k(    2) = (   0.0000000   0.0000000  -0.5112854), wk =   0.2500000
        k(    3) = (   0.0000000  -0.5773503   0.0000000), wk =   0.7500000
        k(    4) = (   0.0000000  -0.5773503  -0.5112854), wk =   0.7500000

                       cryst. coord.
        k(    1) = (   0.0000000   0.0000000   0.0000000), wk =   0.2500000
        k(    2) = (   0.0000000   0.0000000  -0.5000000), wk =   0.2500000
        k(    3) = (   0.0000000  -0.5000000   0.0000000), wk =   0.7500000
        k(    4) = (   0.0000000  -0.5000000  -0.5000000), wk =   0.7500000

     Dense  grid:  2698283 G-vectors     FFT dimensions: ( 192, 192, 180)

     Smooth grid:  1930731 G-vectors     FFT dimensions: ( 180, 180, 160)

     Dynamical RAM for                 wfc:      93.19 MB

     Dynamical RAM for     wfc (w. buffer):      93.19 MB

     Dynamical RAM for           str. fact:       1.29 MB

     Dynamical RAM for           local pot:       0.00 MB

     Dynamical RAM for          nlocal pot:     224.35 MB

     Dynamical RAM for                qrad:       3.00 MB

     Dynamical RAM for          rho,v,vnew:       4.46 MB

     Dynamical RAM for               rhoin:       1.49 MB

     Dynamical RAM for            rho*nmix:      10.29 MB

     Dynamical RAM for           G-vectors:       2.64 MB

     Dynamical RAM for          h,s,v(r/c):     480.54 MB

     Dynamical RAM for          <psi|beta>:      96.41 MB

     Dynamical RAM for                 psi:     372.77 MB

     Dynamical RAM for                hpsi:     372.77 MB

     Dynamical RAM for                spsi:     372.77 MB

     Dynamical RAM for      wfcinit/wfcrot:     246.46 MB

     Dynamical RAM for           addusdens:      54.52 MB

     Dynamical RAM for          addusforce:     102.87 MB

     Dynamical RAM for         addusstress:      32.57 MB

     Estimated static dynamical RAM per process >     336.57 MB

     Estimated max dynamical RAM per process >       1.99 GB

     Estimated total dynamical RAM >     508.60 GB

     Atomic positions and unit cell read from directory:
     ./GaN.save/
     Message from routine qexsd_readschema :
     xml data file ./GaN.save/data-file-schema.xml not found
     Nothing found: using input atomic positions and unit cell


     Check: negative core charge=   -0.000003
     Cannot read rho : file not found

     Initial potential from superposition of free atoms

     starting charge    2699.5558, renormalised to    2700.0000


     %%%%%%%%%%%%%%%%%%%%%%%%%%%%%%%%%%%%%%%%%%%%%%%%%%%%%%%%%%%%%%%%%%%%%%%%
     %                                                                      %
     % You are using vdW-DF, which was implemented by the Thonhauser group. %
     % Please cite the following two papers that made this development      %
     % possible and the two reviews that describe the various versions:     %
     %                                                                      %
     %   T. Thonhauser et al., PRL 115, 136402 (2015).                      %
     %   T. Thonhauser et al., PRB 76, 125112 (2007).                       %
     %   K. Berland et al., Rep. Prog. Phys. 78, 066501 (2015).             %
     %   D.C. Langreth et al., J. Phys.: Condens. Matter 21, 084203 (2009). %
     %                                                                      %
     % If you are calculating stress with vdW-DF, please also cite:         %
     %                                                                      %
     %   R. Sabatini et al., J. Phys.: Condens. Matter 24, 424209 (2012).   %
     %                                                                      %
     %%%%%%%%%%%%%%%%%%%%%%%%%%%%%%%%%%%%%%%%%%%%%%%%%%%%%%%%%%%%%%%%%%%%%%%%

     %%%%%%%%%%%%%%%%%%%%%%%%%%%%%%%%%%%%%%%%%%%%%%%%%%%%%%%%%%%%%%%%%%%%%%%%
     %                                                                      %
     %  vdW-DF NEWS:                                                        %
     %                                                                      %
     %  * vdW-DF3 is now available. DOI: 10.1021/acs.jctc.0c00471           %
     %    use with input_dft = 'vdW-DF3-opt1' or 'vdW-DF3-opt2'             %
     %                                                                      %
     %  * Unscreened and range-separated hybrid vdW-DF-cx functionals       %
     %    DOI: 10.1063/1.4986522 and 10.1088/1361-648X/ac2ad2               %
     %    use with input_dft = 'vdW-DF-cx0'    and 'vdW-DF-ahcx'            %
     %  * Unscreened and range-separated hybrid vdW-DF2-b86r functionals    %
     %    DOI: 10.1063/1.4986522 and DOI: 10.1103/PhysRevX.12.041003        %
     %    use with input_dft = 'vdW-DF2-br0' and 'vdW-DF2-ahbr'             %
     %                                                                      %
     %%%%%%%%%%%%%%%%%%%%%%%%%%%%%%%%%%%%%%%%%%%%%%%%%%%%%%%%%%%%%%%%%%%%%%%%


     Carrying out vdW-DF run using the following parameters:
     Nqs    =  20  Npoints =  1024  r_max =  100.000
     q_mesh =  0.00001000  0.04494208  0.09755937  0.15916263
               0.23128650  0.31572767  0.41458969  0.53033537
               0.66584808  0.82450364  1.01025438  1.22772762
               1.48234092  1.78043706  2.12944203  2.53805004
               3.01644009  3.57652955  4.23227104  5.00000000


     -----------------------------------------------
     Non-local corr. energy    =      77.58832406 Ry
     -----------------------------------------------

     Message from routine qexsd_readschema :
     xml data file ./GaN.save/data-file-schema.xml not found
     Cannot read wfcs: file not found
     Starting wfcs are 1950 randomized atomic wfcs
     Checking if some PAW data can be deallocated... 
       PAW data deallocated on  150 nodes for type:  1
       PAW data deallocated on  106 nodes for type:  2

     total cpu time spent up to now is       59.4 secs

     Self-consistent Calculation

     iteration #  1     ecut=    70.00 Ry     beta= 0.70
     Davidson diagonalization with overlap

---- Real-time Memory Report at c_bands before calling an iterative solver
          1045 MiB given to the printing process from OS
             0 MiB allocation reported by mallinfo(arena+hblkhd)
       1789884 MiB available memory on the node where the printing process lives
------------------
     ethr =  1.00E-05,  avg # of iterations = 24.5


     -----------------------------------------------
     Non-local corr. energy    =      81.57354078 Ry
     -----------------------------------------------


     total cpu time spent up to now is     2729.3 secs

     total energy              =  -46800.75582274 Ry
     estimated scf accuracy    <      91.25249391 Ry

     iteration #  2     ecut=    70.00 Ry     beta= 0.70
     Davidson diagonalization with overlap

---- Real-time Memory Report at c_bands before calling an iterative solver
          3720 MiB given to the printing process from OS
             0 MiB allocation reported by mallinfo(arena+hblkhd)
       1781007 MiB available memory on the node where the printing process lives
------------------
     ethr =  3.38E-03,  avg # of iterations =  8.3


     -----------------------------------------------
     Non-local corr. energy    =      80.49576645 Ry
     -----------------------------------------------


     total cpu time spent up to now is     3874.5 secs

     total energy              =  -46823.81636488 Ry
     estimated scf accuracy    <     103.59954131 Ry

     iteration #  3     ecut=    70.00 Ry     beta= 0.70
     Davidson diagonalization with overlap

---- Real-time Memory Report at c_bands before calling an iterative solver
          3720 MiB given to the printing process from OS
             0 MiB allocation reported by mallinfo(arena+hblkhd)
       1779791 MiB available memory on the node where the printing process lives
------------------
     ethr =  3.38E-03,  avg # of iterations =  3.5


     -----------------------------------------------
     Non-local corr. energy    =      81.92401097 Ry
     -----------------------------------------------


     total cpu time spent up to now is     4239.8 secs

     total energy              =  -46843.16478930 Ry
     estimated scf accuracy    <       0.55822581 Ry

     iteration #  4     ecut=    70.00 Ry     beta= 0.70
     Davidson diagonalization with overlap

---- Real-time Memory Report at c_bands before calling an iterative solver
          3720 MiB given to the printing process from OS
             0 MiB allocation reported by mallinfo(arena+hblkhd)
       1779701 MiB available memory on the node where the printing process lives
------------------
     ethr =  2.07E-05,  avg # of iterations = 14.0


     -----------------------------------------------
     Non-local corr. energy    =      81.60577795 Ry
     -----------------------------------------------


     total cpu time spent up to now is     9048.4 secs

     total energy              =  -46843.53372553 Ry
     estimated scf accuracy    <       0.05860232 Ry

     iteration #  5     ecut=    70.00 Ry     beta= 0.70
     Davidson diagonalization with overlap

---- Real-time Memory Report at c_bands before calling an iterative solver
          3759 MiB given to the printing process from OS
             0 MiB allocation reported by mallinfo(arena+hblkhd)
       1778542 MiB available memory on the node where the printing process lives
------------------
     ethr =  2.17E-06,  avg # of iterations =  8.0


     -----------------------------------------------
     Non-local corr. energy    =      81.83724558 Ry
     -----------------------------------------------


     total cpu time spent up to now is    10894.2 secs

     total energy              =  -46843.54438957 Ry
     estimated scf accuracy    <       0.01616137 Ry

     iteration #  6     ecut=    70.00 Ry     beta= 0.70
     Davidson diagonalization with overlap

---- Real-time Memory Report at c_bands before calling an iterative solver
          3759 MiB given to the printing process from OS
             0 MiB allocation reported by mallinfo(arena+hblkhd)
       1778910 MiB available memory on the node where the printing process lives
------------------
     ethr =  5.99E-07,  avg # of iterations = 10.3


     -----------------------------------------------
     Non-local corr. energy    =      81.78693348 Ry
     -----------------------------------------------


     total cpu time spent up to now is    13039.8 secs

     total energy              =  -46843.54525547 Ry
     estimated scf accuracy    <       0.01540156 Ry

     iteration #  7     ecut=    70.00 Ry     beta= 0.70
     Davidson diagonalization with overlap

---- Real-time Memory Report at c_bands before calling an iterative solver
          3759 MiB given to the printing process from OS
             0 MiB allocation reported by mallinfo(arena+hblkhd)
       1778569 MiB available memory on the node where the printing process lives
------------------
     ethr =  5.70E-07,  avg # of iterations =  1.0


     -----------------------------------------------
     Non-local corr. energy    =      81.76024703 Ry
     -----------------------------------------------


     total cpu time spent up to now is    13180.8 secs

     total energy              =  -46843.54438100 Ry
     estimated scf accuracy    <       0.00555071 Ry

     iteration #  8     ecut=    70.00 Ry     beta= 0.70
     Davidson diagonalization with overlap

---- Real-time Memory Report at c_bands before calling an iterative solver
          3759 MiB given to the printing process from OS
             0 MiB allocation reported by mallinfo(arena+hblkhd)
       1778787 MiB available memory on the node where the printing process lives
------------------
     ethr =  2.06E-07,  avg # of iterations =  3.5


     -----------------------------------------------
     Non-local corr. energy    =      81.74188970 Ry
     -----------------------------------------------


     total cpu time spent up to now is    13605.6 secs

     total energy              =  -46843.54474032 Ry
     estimated scf accuracy    <       0.00060264 Ry

     iteration #  9     ecut=    70.00 Ry     beta= 0.70
     Davidson diagonalization with overlap

---- Real-time Memory Report at c_bands before calling an iterative solver
          3759 MiB given to the printing process from OS
             0 MiB allocation reported by mallinfo(arena+hblkhd)
       1778537 MiB available memory on the node where the printing process lives
------------------
     ethr =  2.23E-08,  avg # of iterations =  7.5


     -----------------------------------------------
     Non-local corr. energy    =      81.74839477 Ry
     -----------------------------------------------


     total cpu time spent up to now is    16789.9 secs

     total energy              =  -46843.54513111 Ry
     estimated scf accuracy    <       0.00048393 Ry

     iteration # 10     ecut=    70.00 Ry     beta= 0.70
     Davidson diagonalization with overlap

---- Real-time Memory Report at c_bands before calling an iterative solver
          3951 MiB given to the printing process from OS
             0 MiB allocation reported by mallinfo(arena+hblkhd)
       1776673 MiB available memory on the node where the printing process lives
------------------
     ethr =  1.79E-08,  avg # of iterations =  2.0


     -----------------------------------------------
     Non-local corr. energy    =      81.75410990 Ry
     -----------------------------------------------


     total cpu time spent up to now is    17026.2 secs

     total energy              =  -46843.54508456 Ry
     estimated scf accuracy    <       0.00024333 Ry

     iteration # 11     ecut=    70.00 Ry     beta= 0.70
     Davidson diagonalization with overlap

---- Real-time Memory Report at c_bands before calling an iterative solver
          3951 MiB given to the printing process from OS
             0 MiB allocation reported by mallinfo(arena+hblkhd)
       1777849 MiB available memory on the node where the printing process lives
------------------
     ethr =  9.01E-09,  avg # of iterations = 12.5


     -----------------------------------------------
     Non-local corr. energy    =      81.75785183 Ry
     -----------------------------------------------


     total cpu time spent up to now is    18556.0 secs

     total energy              =  -46843.54508358 Ry
     estimated scf accuracy    <       0.00006530 Ry

     iteration # 12     ecut=    70.00 Ry     beta= 0.70
     Davidson diagonalization with overlap

---- Real-time Memory Report at c_bands before calling an iterative solver
          3951 MiB given to the printing process from OS
             0 MiB allocation reported by mallinfo(arena+hblkhd)
       1777711 MiB available memory on the node where the printing process lives
------------------
     ethr =  2.42E-09,  avg # of iterations = 12.3


     -----------------------------------------------
     Non-local corr. energy    =      81.75838272 Ry
     -----------------------------------------------


     total cpu time spent up to now is    21317.3 secs

     total energy              =  -46843.54511249 Ry
     estimated scf accuracy    <       0.00000289 Ry

     iteration # 13     ecut=    70.00 Ry     beta= 0.70
     Davidson diagonalization with overlap

---- Real-time Memory Report at c_bands before calling an iterative solver
          3951 MiB given to the printing process from OS
             0 MiB allocation reported by mallinfo(arena+hblkhd)
       1776709 MiB available memory on the node where the printing process lives
------------------
     ethr =  1.07E-10,  avg # of iterations = 20.0


     -----------------------------------------------
     Non-local corr. energy    =      81.75751130 Ry
     -----------------------------------------------


     total cpu time spent up to now is    24738.2 secs

     total energy              =  -46843.54511305 Ry
     estimated scf accuracy    <       0.00000637 Ry

     iteration # 14     ecut=    70.00 Ry     beta= 0.70
     Davidson diagonalization with overlap

---- Real-time Memory Report at c_bands before calling an iterative solver
          3951 MiB given to the printing process from OS
             0 MiB allocation reported by mallinfo(arena+hblkhd)
       1776936 MiB available memory on the node where the printing process lives
------------------
     ethr =  1.07E-10,  avg # of iterations =  8.8


     -----------------------------------------------
     Non-local corr. energy    =      81.75706363 Ry
     -----------------------------------------------


     total cpu time spent up to now is    25528.1 secs

     total energy              =  -46843.54511264 Ry
     estimated scf accuracy    <       0.00000318 Ry

     iteration # 15     ecut=    70.00 Ry     beta= 0.70
     Davidson diagonalization with overlap

---- Real-time Memory Report at c_bands before calling an iterative solver
          3951 MiB given to the printing process from OS
             0 MiB allocation reported by mallinfo(arena+hblkhd)
       1777119 MiB available memory on the node where the printing process lives
------------------
     ethr =  1.07E-10,  avg # of iterations =  3.5


     -----------------------------------------------
     Non-local corr. energy    =      81.75649769 Ry
     -----------------------------------------------


     total cpu time spent up to now is    25987.0 secs

     total energy              =  -46843.54511231 Ry
     estimated scf accuracy    <       0.00000163 Ry

     iteration # 16     ecut=    70.00 Ry     beta= 0.70
     Davidson diagonalization with overlap

---- Real-time Memory Report at c_bands before calling an iterative solver
          3951 MiB given to the printing process from OS
             0 MiB allocation reported by mallinfo(arena+hblkhd)
       1777202 MiB available memory on the node where the printing process lives
------------------
     ethr =  6.03E-11,  avg # of iterations =  4.3


     -----------------------------------------------
     Non-local corr. energy    =      81.75611044 Ry
     -----------------------------------------------


     total cpu time spent up to now is    26564.3 secs

     total energy              =  -46843.54511237 Ry
     estimated scf accuracy    <       0.00000019 Ry

     iteration # 17     ecut=    70.00 Ry     beta= 0.70
     Davidson diagonalization with overlap

---- Real-time Memory Report at c_bands before calling an iterative solver
          3951 MiB given to the printing process from OS
             0 MiB allocation reported by mallinfo(arena+hblkhd)
       1776837 MiB available memory on the node where the printing process lives
------------------
     c_bands:  5 eigenvalues not converged
     ethr =  7.10E-12,  avg # of iterations = 23.5


     -----------------------------------------------
     Non-local corr. energy    =      81.75620332 Ry
     -----------------------------------------------


     total cpu time spent up to now is    31529.7 secs

     total energy              =  -46843.54511254 Ry
     estimated scf accuracy    <       0.00000011 Ry

     iteration # 18     ecut=    70.00 Ry     beta= 0.70
     Davidson diagonalization with overlap

---- Real-time Memory Report at c_bands before calling an iterative solver
          3951 MiB given to the printing process from OS
             0 MiB allocation reported by mallinfo(arena+hblkhd)
       1776149 MiB available memory on the node where the printing process lives
------------------
     ethr =  4.07E-12,  avg # of iterations =  9.5


     -----------------------------------------------
     Non-local corr. energy    =      81.75627137 Ry
     -----------------------------------------------


     total cpu time spent up to now is    32290.6 secs

     total energy              =  -46843.54511254 Ry
     estimated scf accuracy    <       0.00000006 Ry

     iteration # 19     ecut=    70.00 Ry     beta= 0.70
     Davidson diagonalization with overlap

---- Real-time Memory Report at c_bands before calling an iterative solver
          3951 MiB given to the printing process from OS
             0 MiB allocation reported by mallinfo(arena+hblkhd)
       1776439 MiB available memory on the node where the printing process lives
------------------
     ethr =  2.37E-12,  avg # of iterations =  5.8


     -----------------------------------------------
     Non-local corr. energy    =      81.75634351 Ry
     -----------------------------------------------


     total cpu time spent up to now is    33047.3 secs

     total energy              =  -46843.54511254 Ry
     estimated scf accuracy    <       0.00000003 Ry

     iteration # 20     ecut=    70.00 Ry     beta= 0.70
     Davidson diagonalization with overlap

---- Real-time Memory Report at c_bands before calling an iterative solver
          3951 MiB given to the printing process from OS
             0 MiB allocation reported by mallinfo(arena+hblkhd)
       1776373 MiB available memory on the node where the printing process lives
------------------
     ethr =  1.16E-12,  avg # of iterations =  7.5


     -----------------------------------------------
     Non-local corr. energy    =      81.75639226 Ry
     -----------------------------------------------


     total cpu time spent up to now is    33858.5 secs

     total energy              =  -46843.54511255 Ry
     estimated scf accuracy    <       0.00000001 Ry

     iteration # 21     ecut=    70.00 Ry     beta= 0.70
     Davidson diagonalization with overlap

---- Real-time Memory Report at c_bands before calling an iterative solver
          3951 MiB given to the printing process from OS
             0 MiB allocation reported by mallinfo(arena+hblkhd)
       1776434 MiB available memory on the node where the printing process lives
------------------
     ethr =  4.04E-13,  avg # of iterations =  9.3


     -----------------------------------------------
     Non-local corr. energy    =      81.75638708 Ry
     -----------------------------------------------


     total cpu time spent up to now is    35965.8 secs

     End of self-consistent calculation

          k = 0.0000 0.0000 0.0000 (241213 PWs)   bands (ev):

    -6.8460  -6.6387  -6.6387  -6.6097  -6.6097  -6.6097  -6.6097  -6.6097
    -6.6097  -6.4746  -6.4746  -6.4746  -6.4746  -6.4745  -6.4745  -6.4745
    -6.4745  -6.4745  -6.4745  -6.4745  -6.4745  -6.4141  -6.4141  -6.4113
    -6.4113  -6.4113  -6.4113  -6.4112  -6.4112  -6.3956  -6.3956  -6.3956
    -6.3956  -6.3956  -6.3956  -6.3825  -6.3519  -6.3519  -6.3519  -6.3519
    -6.3519  -6.3519  -6.3519  -6.3519  -6.3518  -6.3518  -6.3518  -6.3518
    -6.3497  -6.3497  -6.3497  -6.3497  -6.3497  -6.3497  -6.3497  -6.3497
    -6.3497  -6.3497  -6.3497  -6.3497  -6.3468  -6.3468  -6.3468  -6.3468
    -6.3468  -6.3468  -6.3448  -6.3448  -6.3448  -6.3448  -6.3448  -6.3448
    -6.3433  -6.3433  -6.3433  -6.3433  -6.3433  -6.3433  -6.3432  -6.3432
    -6.3432  -6.3432  -6.3432  -6.3432  -6.3193  -6.3193  -6.3192  -6.3192
    -6.3192  -6.3192  -6.3161  -6.3160  -6.3160  -6.3160  -6.3160  -6.3160
    -6.3125  -6.3125  -6.3125  -6.3125  -6.3125  -6.3125  -6.3118  -6.3118
    -6.3118  -6.3118  -6.3117  -6.3117  -6.3117  -6.3117  -6.3117  -6.3117
    -6.3117  -6.3117  -6.3082  -6.3082  -6.3082  -6.3082  -6.3082  -6.3082
    -6.3082  -6.3082  -6.3082  -6.3082  -6.3082  -6.3082  -6.3059  -6.3059
    -6.3059  -6.3059  -6.3059  -6.3059  -6.3059  -6.3059  -6.3059  -6.3059
    -6.3059  -6.3059  -6.2955  -6.2955  -6.2955  -6.2955  -6.2955  -6.2955
    -6.2955  -6.2955  -6.2954  -6.2954  -6.2954  -6.2954  -5.2600  -5.2468
    -5.2468  -5.2409  -5.2409  -5.2409  -5.2409  -5.2337  -5.2337  -5.2336
    -5.2336  -5.2336  -5.2336  -5.2260  -5.2260  -5.2260  -5.2260  -5.2260
    -5.2260  -5.2169  -5.2169  -5.2169  -5.2169  -5.2155  -5.2155  -5.2155
    -5.2155  -5.2155  -5.2155  -5.2149  -5.2149  -5.2149  -5.2149  -5.2149
    -5.2149  -5.2149  -5.2149  -5.2149  -5.2149  -5.2149  -5.2149  -5.2108
    -5.2108  -5.2108  -5.2108  -5.2108  -5.2108  -5.2106  -5.2106  -5.2106
    -5.2106  -5.2106  -5.2106  -5.2106  -5.2106  -5.2105  -5.2105  -5.2105
    -5.2105  -5.2025  -5.2025  -5.2025  -5.2025  -5.2025  -5.2025  -5.1994
    -5.1994  -5.1968  -5.1968  -5.1968  -5.1968  -5.1968  -5.1968  -5.1968
    -5.1968  -5.1968  -5.1968  -5.1968  -5.1968  -5.1897  -5.1897  -5.1897
    -5.1897  -5.1897  -5.1897  -5.1877  -5.1877  -5.1877  -5.1877  -5.1877
    -5.1877  -5.1877  -5.1877  -5.1877  -5.1877  -5.1877  -5.1877  -5.1841
    -5.1841  -5.1841  -5.1841  -5.1841  -5.1841  -5.1841  -5.1841  -5.1841
    -5.1841  -5.1841  -5.1841  -5.1806  -5.1806  -5.1806  -5.1806  -5.1806
    -5.1806  -5.1806  -5.1806  -5.1806  -5.1806  -5.1806  -5.1806  -5.1798
    -5.1798  -5.1798  -5.1798  -5.1798  -5.1798  -5.1798  -5.1798  -5.1798
    -5.1798  -5.1798  -5.1798  -5.1692  -5.1692  -5.1691  -5.1691  -5.1691
    -5.1691  -5.1648  -5.1648  -5.1648  -5.1648  -5.1648  -5.1648  -5.1648
    -5.1648  -5.1648  -5.1648  -5.1648  -5.1648  -5.1633  -5.1633  -5.1633
[...]
Ga           12.9781951203        3.7464811715        2.6396807677
Ga           12.9781951203        3.7464811715        7.9279023555
Ga           12.9781951203        3.7464811715       13.2161239432
Ga           11.3559209118        6.5563425246        2.6396807677
Ga           11.3559209118        6.5563425246        7.9279023555
Ga           11.3559209118        6.5563425246       13.2161239432
Ga            9.7336467033        9.3662038776        2.6396807677
Ga            9.7336467033        9.3662038776        7.9279023555
Ga            9.7336467033        9.3662038776       13.2161239432
Ga            8.1113724947       12.1760652307        2.6396807677
Ga            8.1113724947       12.1760652307        7.9279023555
Ga            8.1113724947       12.1760652307       13.2161239432
Ga           -0.0000019648        1.8732424465        5.2837915627
Ga           -0.0000019648        1.8732424465       10.5720131505
Ga           -0.0000019648        1.8732424465       15.8602347382
Ga           -1.6222761733        4.6831037996        5.2837915627
Ga           -1.6222761733        4.6831037996       10.5720131505
Ga           -1.6222761733        4.6831037996       15.8602347382
Ga           -3.2445503819        7.4929651527        5.2837915627
Ga           -3.2445503819        7.4929651527       10.5720131505
Ga           -3.2445503819        7.4929651527       15.8602347382
Ga           -4.8668245904       10.3028265057        5.2837915627
Ga           -4.8668245904       10.3028265057       10.5720131505
Ga           -4.8668245904       10.3028265057       15.8602347382
Ga           -6.4890987989       13.1126878588        5.2837915627
Ga           -6.4890987989       13.1126878588       10.5720131505
Ga           -6.4890987989       13.1126878588       15.8602347382
Ga            3.2445464523        1.8732424465        5.2837915627
Ga            3.2445464523        1.8732424465       10.5720131505
Ga            3.2445464523        1.8732424465       15.8602347382
Ga            1.6222722437        4.6831037996        5.2837915627
Ga            1.6222722437        4.6831037996       10.5720131505
Ga            1.6222722437        4.6831037996       15.8602347382
Ga           -0.0000019648        7.4929651527        5.2837915627
Ga           -0.0000019648        7.4929651527       10.5720131505
Ga           -0.0000019648        7.4929651527       15.8602347382
Ga           -1.6222761733       10.3028265057        5.2837915627
Ga           -1.6222761733       10.3028265057       10.5720131505
Ga           -1.6222761733       10.3028265057       15.8602347382
Ga           -3.2445503819       13.1126878588        5.2837915627
Ga           -3.2445503819       13.1126878588       10.5720131505
Ga           -3.2445503819       13.1126878588       15.8602347382
Ga            6.4890948693        1.8732424465        5.2837915627
Ga            6.4890948693        1.8732424465       10.5720131505
Ga            6.4890948693        1.8732424465       15.8602347382
Ga            4.8668206608        4.6831037996        5.2837915627
Ga            4.8668206608        4.6831037996       10.5720131505
Ga            4.8668206608        4.6831037996       15.8602347382
Ga            3.2445464523        7.4929651527        5.2837915627
Ga            3.2445464523        7.4929651527       10.5720131505
Ga            3.2445464523        7.4929651527       15.8602347382
Ga            1.6222722437       10.3028265057        5.2837915627
Ga            1.6222722437       10.3028265057       10.5720131505
Ga            1.6222722437       10.3028265057       15.8602347382
Ga           -0.0000019648       13.1126878588        5.2837915627
Ga           -0.0000019648       13.1126878588       10.5720131505
Ga           -0.0000019648       13.1126878588       15.8602347382
Ga            9.7336432864        1.8732424465        5.2837915627
Ga            9.7336432864        1.8732424465       10.5720131505
Ga            9.7336432864        1.8732424465       15.8602347382
Ga            8.1113690779        4.6831037996        5.2837915627
Ga            8.1113690779        4.6831037996       10.5720131505
Ga            8.1113690779        4.6831037996       15.8602347382
Ga            6.4890948693        7.4929651527        5.2837915627
Ga            6.4890948693        7.4929651527       10.5720131505
Ga            6.4890948693        7.4929651527       15.8602347382
Ga            4.8668206608       10.3028265057        5.2837915627
Ga            4.8668206608       10.3028265057       10.5720131505
Ga            4.8668206608       10.3028265057       15.8602347382
Ga            3.2445464523       13.1126878588        5.2837915627
Ga            3.2445464523       13.1126878588       10.5720131505
Ga            3.2445464523       13.1126878588       15.8602347382
Ga           12.9781917035        1.8732424465        5.2837915627
Ga           12.9781917035        1.8732424465       10.5720131505
Ga           12.9781917035        1.8732424465       15.8602347382
Ga           11.3559174949        4.6831037996        5.2837915627
Ga           11.3559174949        4.6831037996       10.5720131505
Ga           11.3559174949        4.6831037996       15.8602347382
Ga            9.7336432864        7.4929651527        5.2837915627
Ga            9.7336432864        7.4929651527       10.5720131505
Ga            9.7336432864        7.4929651527       15.8602347382
Ga            8.1113690779       10.3028265057        5.2837915627
Ga            8.1113690779       10.3028265057       10.5720131505
Ga            8.1113690779       10.3028265057       15.8602347382
Ga            6.4890948693       13.1126878588        5.2837915627
Ga            6.4890948693       13.1126878588       10.5720131505
Ga            6.4890948693       13.1126878588       15.8602347382
N             1.6222756606        0.9366198184        4.6316239188
N             1.6222756606        0.9366198184        9.9198455066
N             1.6222756606        0.9366198184       15.2080670943
N             0.0000014521        3.7464811715        4.6316239188
N             0.0000014521        3.7464811715        9.9198455066
N             0.0000014521        3.7464811715       15.2080670943
N            -1.6222727565        6.5563425246        4.6316239188
N            -1.6222727565        6.5563425246        9.9198455066
N            -1.6222727565        6.5563425246       15.2080670943
N            -3.2445469650        9.3662038776        4.6316239188
N            -3.2445469650        9.3662038776        9.9198455066
N            -3.2445469650        9.3662038776       15.2080670943
N            -4.8668211735       12.1760652307        4.6316239188
N            -4.8668211735       12.1760652307        9.9198455066
N            -4.8668211735       12.1760652307       15.2080670943
N             4.8668240777        0.9366198184        4.6316239188
N             4.8668240777        0.9366198184        9.9198455066
N             4.8668240777        0.9366198184       15.2080670943
N             3.2445498691        3.7464811715        4.6316239188
N             3.2445498691        3.7464811715        9.9198455066
N             3.2445498691        3.7464811715       15.2080670943
N             1.6222756606        6.5563425246        4.6316239188
N             1.6222756606        6.5563425246        9.9198455066
N             1.6222756606        6.5563425246       15.2080670943
N             0.0000014521        9.3662038776        4.6316239188
N             0.0000014521        9.3662038776        9.9198455066
N             0.0000014521        9.3662038776       15.2080670943
N            -1.6222727565       12.1760652307        4.6316239188
N            -1.6222727565       12.1760652307        9.9198455066
N            -1.6222727565       12.1760652307       15.2080670943
N             8.1113724947        0.9366198184        4.6316239188
N             8.1113724947        0.9366198184        9.9198455066
N             8.1113724947        0.9366198184       15.2080670943
N             6.4890982862        3.7464811715        4.6316239188
N             6.4890982862        3.7464811715        9.9198455066
N             6.4890982862        3.7464811715       15.2080670943
N             4.8668240777        6.5563425246        4.6316239188
N             4.8668240777        6.5563425246        9.9198455066
N             4.8668240777        6.5563425246       15.2080670943
N             3.2445498691        9.3662038776        4.6316239188
N             3.2445498691        9.3662038776        9.9198455066
N             3.2445498691        9.3662038776       15.2080670943
N             1.6222756606       12.1760652307        4.6316239188
N             1.6222756606       12.1760652307        9.9198455066
N             1.6222756606       12.1760652307       15.2080670943
N            11.3559209118        0.9366198184        4.6316239188
N            11.3559209118        0.9366198184        9.9198455066
N            11.3559209118        0.9366198184       15.2080670943
N             9.7336467033        3.7464811715        4.6316239188
N             9.7336467033        3.7464811715        9.9198455066
N             9.7336467033        3.7464811715       15.2080670943
N             8.1113724947        6.5563425246        4.6316239188
N             8.1113724947        6.5563425246        9.9198455066
N             8.1113724947        6.5563425246       15.2080670943
N             6.4890982862        9.3662038776        4.6316239188
N             6.4890982862        9.3662038776        9.9198455066
N             6.4890982862        9.3662038776       15.2080670943
N             4.8668240777       12.1760652307        4.6316239188
N             4.8668240777       12.1760652307        9.9198455066
N             4.8668240777       12.1760652307       15.2080670943
N            14.6004693289        0.9366198184        4.6316239188
N            14.6004693289        0.9366198184        9.9198455066
N            14.6004693289        0.9366198184       15.2080670943
N            12.9781951203        3.7464811715        4.6316239188
N            12.9781951203        3.7464811715        9.9198455066
N            12.9781951203        3.7464811715       15.2080670943
N            11.3559209118        6.5563425246        4.6316239188
N            11.3559209118        6.5563425246        9.9198455066
N            11.3559209118        6.5563425246       15.2080670943
N             9.7336467033        9.3662038776        4.6316239188
N             9.7336467033        9.3662038776        9.9198455066
N             9.7336467033        9.3662038776       15.2080670943
N             8.1113724947       12.1760652307        4.6316239188
N             8.1113724947       12.1760652307        9.9198455066
N             8.1113724947       12.1760652307       15.2080670943
N            -0.0000019648        1.8732424465        1.9875131237
N            -0.0000019648        1.8732424465        7.2757347115
N            -0.0000019648        1.8732424465       12.5639562992
N            -1.6222761733        4.6831037996        1.9875131237
N            -1.6222761733        4.6831037996        7.2757347115
N            -1.6222761733        4.6831037996       12.5639562992
N            -3.2445503819        7.4929651527        1.9875131237
N            -3.2445503819        7.4929651527        7.2757347115
N            -3.2445503819        7.4929651527       12.5639562992
N            -4.8668245904       10.3028265057        1.9875131237
N            -4.8668245904       10.3028265057        7.2757347115
N            -4.8668245904       10.3028265057       12.5639562992
N            -6.4890987989       13.1126878588        1.9875131237
N            -6.4890987989       13.1126878588        7.2757347115
N            -6.4890987989       13.1126878588       12.5639562992
N             3.2445464523        1.8732424465        1.9875131237
N             3.2445464523        1.8732424465        7.2757347115
N             3.2445464523        1.8732424465       12.5639562992
N             1.6222722437        4.6831037996        1.9875131237
N             1.6222722437        4.6831037996        7.2757347115
N             1.6222722437        4.6831037996       12.5639562992
N            -0.0000019648        7.4929651527        1.9875131237
N            -0.0000019648        7.4929651527        7.2757347115
N            -0.0000019648        7.4929651527       12.5639562992
N            -1.6222761733       10.3028265057        1.9875131237
N            -1.6222761733       10.3028265057        7.2757347115
N            -1.6222761733       10.3028265057       12.5639562992
N            -3.2445503819       13.1126878588        1.9875131237
N            -3.2445503819       13.1126878588        7.2757347115
N            -3.2445503819       13.1126878588       12.5639562992
N             6.4890948693        1.8732424465        1.9875131237
N             6.4890948693        1.8732424465        7.2757347115
N             6.4890948693        1.8732424465       12.5639562992
N             4.8668206608        4.6831037996        1.9875131237
N             4.8668206608        4.6831037996        7.2757347115
N             4.8668206608        4.6831037996       12.5639562992
N             3.2445464523        7.4929651527        1.9875131237
N             3.2445464523        7.4929651527        7.2757347115
N             3.2445464523        7.4929651527       12.5639562992
N             1.6222722437       10.3028265057        1.9875131237
N             1.6222722437       10.3028265057        7.2757347115
N             1.6222722437       10.3028265057       12.5639562992
N            -0.0000019648       13.1126878588        1.9875131237
N            -0.0000019648       13.1126878588        7.2757347115
N            -0.0000019648       13.1126878588       12.5639562992
N             9.7336432864        1.8732424465        1.9875131237
N             9.7336432864        1.8732424465        7.2757347115
N             9.7336432864        1.8732424465       12.5639562992
N             8.1113690779        4.6831037996        1.9875131237
N             8.1113690779        4.6831037996        7.2757347115
N             8.1113690779        4.6831037996       12.5639562992
N             6.4890948693        7.4929651527        1.9875131237
N             6.4890948693        7.4929651527        7.2757347115
N             6.4890948693        7.4929651527       12.5639562992
N             4.8668206608       10.3028265057        1.9875131237
N             4.8668206608       10.3028265057        7.2757347115
N             4.8668206608       10.3028265057       12.5639562992
N             3.2445464523       13.1126878588        1.9875131237
N             3.2445464523       13.1126878588        7.2757347115
N             3.2445464523       13.1126878588       12.5639562992
N            12.9781917035        1.8732424465        1.9875131237
N            12.9781917035        1.8732424465        7.2757347115
N            12.9781917035        1.8732424465       12.5639562992
N            11.3559174949        4.6831037996        1.9875131237
N            11.3559174949        4.6831037996        7.2757347115
N            11.3559174949        4.6831037996       12.5639562992
N             9.7336432864        7.4929651527        1.9875131237
N             9.7336432864        7.4929651527        7.2757347115
N             9.7336432864        7.4929651527       12.5639562992
N             8.1113690779       10.3028265057        1.9875131237
N             8.1113690779       10.3028265057        7.2757347115
N             8.1113690779       10.3028265057       12.5639562992
N             6.4890948693       13.1126878588        1.9875131237
N             6.4890948693       13.1126878588        7.2757347115
N             6.4890948693       13.1126878588       12.5639562992
End final coordinates



     Writing all to output data dir ./GaN.save/
 
     init_run     :     56.00s CPU     57.73s WALL (       1 calls)
     electrons    :  35569.92s CPU  35906.71s WALL (       1 calls)
     forces       :     37.24s CPU     38.21s WALL (       1 calls)
     stress       :    775.06s CPU    782.63s WALL (       1 calls)

     Called by init_run:
     wfcinit      :     51.23s CPU     52.59s WALL (       1 calls)
     wfcinit:atom :      0.13s CPU      0.22s WALL (       1 calls)
     wfcinit:wfcr :     50.55s CPU     51.49s WALL (       1 calls)
     potinit      :      1.99s CPU      2.12s WALL (       1 calls)
     hinit0       :      0.47s CPU      0.57s WALL (       1 calls)

     Called by electrons:
     c_bands      :  35278.30s CPU  35608.93s WALL (      21 calls)
     sum_band     :    251.87s CPU    256.35s WALL (      21 calls)
     v_of_rho     :     19.19s CPU     20.20s WALL (      22 calls)
     v_h          :      0.22s CPU      0.22s WALL (      22 calls)
     v_xc         :     20.66s CPU     21.74s WALL (      24 calls)
     newd         :      5.02s CPU      5.19s WALL (      22 calls)
     PAW_pot      :     13.11s CPU     13.23s WALL (      22 calls)
     mix_rho      :      1.20s CPU      1.30s WALL (      21 calls)
     vdW_kernel   :      0.17s CPU      0.17s WALL (       1 calls)

     Called by c_bands:
     init_us_2    :      7.66s CPU      7.99s WALL (      43 calls)
     init_us_2:cp :      7.66s CPU      7.99s WALL (      43 calls)
     cegterg      :  17499.44s CPU  17742.85s WALL (      22 calls)

     Called by sum_band:
     sum_band:wei :      0.05s CPU      0.05s WALL (      21 calls)
     sum_band:loo :    238.48s CPU    240.45s WALL (      21 calls)
     sum_band:buf :      0.00s CPU      0.00s WALL (      21 calls)
     sum_band:ini :      5.44s CPU      5.54s WALL (      21 calls)
     sum_band:cal :    167.80s CPU    169.00s WALL (      21 calls)
     sum_band:bec :      1.26s CPU      1.28s WALL (      21 calls)
     addusdens    :      4.48s CPU      5.10s WALL (      21 calls)
                                        0.00s GPU  (      21 calls)
     addusd:skk   :      0.84s CPU      1.01s WALL (      42 calls)
                                        0.00s GPU  (      42 calls)

     Called by *egterg:
     cdiaghg      :  14267.97s CPU  14445.67s WALL (     182 calls)
     cegterg:over :    687.98s CPU    716.43s WALL (     160 calls)
     cegterg:upda :    426.84s CPU    433.72s WALL (     160 calls)
     cegterg:last :    229.01s CPU    231.16s WALL (      24 calls)
     cdiaghg:chol :    603.81s CPU    606.82s WALL (     182 calls)
     cdiaghg:inve :    339.76s CPU    342.57s WALL (     182 calls)
     cdiaghg:para :   2926.89s CPU   3023.74s WALL (     364 calls)
     h_psi        :   1338.40s CPU   1358.71s WALL (     183 calls)
     s_psi        :    442.73s CPU    447.37s WALL (     183 calls)
     g_psi        :      0.76s CPU      0.77s WALL (     160 calls)

     Called by h_psi:
     h_psi:calbec :    506.03s CPU    509.85s WALL (     183 calls)
     vloc_psi     :    368.30s CPU    372.12s WALL (     183 calls)
     add_vuspsi   :    458.65s CPU    467.43s WALL (     183 calls)

     General routines
     calbec       :    711.11s CPU    716.42s WALL (     209 calls)
     fft          :      7.64s CPU      7.85s WALL (    1553 calls)
     ffts         :      0.45s CPU      0.46s WALL (      43 calls)
     fftw         :    392.82s CPU    396.76s WALL (  236364 calls)
     interpolate  :      0.25s CPU      0.25s WALL (      22 calls)
 
     Parallel routines

     PAW routines
     PAW_pot      :     13.11s CPU     13.23s WALL (      22 calls)
     PAW_symme    :      0.14s CPU      0.15s WALL (      43 calls)
 
     PWSCF        :     10h 7m CPU     10h13m WALL

 
   This run was terminated on:  21:34: 1  29Sep2023            

=------------------------------------------------------------------------------=
   JOB DONE.
=------------------------------------------------------------------------------=
