
     Program PWSCF v.7.1 starts on 12Feb2024 at 17:35:58 

     This program is part of the open-source Quantum ESPRESSO suite
     for quantum simulation of materials; please cite
         "P. Giannozzi et al., J. Phys.:Condens. Matter 21 395502 (2009);
         "P. Giannozzi et al., J. Phys.:Condens. Matter 29 465901 (2017);
         "P. Giannozzi et al., J. Chem. Phys. 152 154105 (2020);
          URL http://www.quantum-espresso.org", 
     in publications or presentations arising from this work. More details at
     http://www.quantum-espresso.org/quote

     Parallel version (MPI & OpenMP), running on     256 processor cores
     Number of MPI processes:               256
     Threads/MPI process:                     1

     MPI processes distributed on     2 nodes
     1884218 MiB available memory on the printing compute node when the environment starts
 
     Reading input from espresso.pwi
Warning: card &CELL ignored
Warning: card    CELL_DYNAMICS    = 'BFGS' ignored
Warning: card / ignored

     Current dimensions of program PWSCF are:
     Max number of different atomic species (ntypx) = 10
     Max number of k-points (npk) =  40000
     Max angular momentum in pseudopotentials (lmaxx) =  4
     file Ga.pbe-dn-kjpaw_psl.1.0.0.UPF: wavefunction(s)  4S renormalized
     file N.pbe-n-kjpaw_psl.1.0.0.UPF: wavefunction(s)  2S renormalized

     **************************************************************************
     Initializing libbeef V0.1.2 with the BEEF-vdW functional.
     Citation: Wellendorff et al., PRB 85, 235149 (2012).
     **************************************************************************


     IMPORTANT: XC functional enforced from input :
     Exchange-correlation= BEEF-VDW
                           (   1   4  43  14   2   0   0)
     Any further DFT definition will be discarded
     Please, verify this is what you really want

 
     K-points division:     npool     =       4
     R & G space division:  proc/nbgrp/npool/nimage =      64
     Subspace diagonalization in iterative solution of the eigenvalue problem:
     a serial algorithm will be used

 
     Parallelization info
     --------------------
     sticks:   dense  smooth     PW     G-vecs:    dense   smooth      PW
     Min         226     181     47                26979    19303    2571
     Max         228     182     48                26983    19308    2576
     Sum       14527   11629   3037              1726709  1235535  164709
 
     Using Slab Decomposition
 


     bravais-lattice index     =            4
     lattice parameter (alat)  =      24.5252  a.u.
     unit-cell volume          =   15616.6055 (a.u.)^3
     number of atoms/cell      =          191
     number of atomic types    =            2
     number of electrons       =      1717.00
     number of Kohn-Sham states=         1031
     kinetic-energy cutoff     =      70.0000  Ry
     charge density cutoff     =     350.0000  Ry
     scf convergence threshold =      1.0E-07
     mixing beta               =       0.7000
     number of iterations used =            8  plain     mixing
     energy convergence thresh.=      1.0E-04
     force convergence thresh. =      1.0E-03
     Exchange-correlation= BEEF-VDW
                           (   1   4  43  14   2   0   0)
     nstep                     =           50


     celldm(1)=  24.525232  celldm(2)=   0.000000  celldm(3)=   1.222409
     celldm(4)=   0.000000  celldm(5)=   0.000000  celldm(6)=   0.000000

     crystal axes: (cart. coord. in units of alat)
               a(1) = (   1.000000   0.000000   0.000000 )  
               a(2) = (  -0.500000   0.866025   0.000000 )  
               a(3) = (   0.000000   0.000000   1.222409 )  

     reciprocal axes: (cart. coord. in units 2 pi/alat)
               b(1) = (  1.000000  0.577350 -0.000000 )  
               b(2) = (  0.000000  1.154701  0.000000 )  
               b(3) = (  0.000000 -0.000000  0.818057 )  


     PseudoPot. # 1 for Ga read from file:
     /trace/group/acmegroup/atimmins/packages/espresso/pseudo/psl_1.0.0/pslibrary.1.0.0/pbe/PSEUDOPOTENTIALS/Ga.pbe-dn-kjpaw_psl.1.0.0.UPF
     MD5 check sum: cd2a01e492f15b435d17032472d8505c
     Pseudo is Projector augmented-wave + core cor, Zval = 13.0
     Generated using 'atomic' code by A. Dal Corso  v.7.1
     Shape of augmentation charge: PSQ
     Using radial grid of 1205 points,  6 beta functions with: 
                l(1) =   0
                l(2) =   0
                l(3) =   1
                l(4) =   1
                l(5) =   2
                l(6) =   2
     Q(r) pseudized with 0 coefficients 


     PseudoPot. # 2 for N  read from file:
     /trace/group/acmegroup/atimmins/packages/espresso/pseudo/psl_1.0.0/pslibrary.1.0.0/pbe/PSEUDOPOTENTIALS/N.pbe-n-kjpaw_psl.1.0.0.UPF
     MD5 check sum: f77f775694dac7e2c3fe1c82443d1a16
     Pseudo is Projector augmented-wave + core cor, Zval =  5.0
     Generated using 'atomic' code by A. Dal Corso  v.7.1
     Shape of augmentation charge: PSQ
     Using radial grid of 1085 points,  4 beta functions with: 
                l(1) =   0
                l(2) =   0
                l(3) =   1
                l(4) =   1
     Q(r) pseudized with 0 coefficients 


     atomic species   valence    mass     pseudopotential
        Ga            13.00    69.72300     Ga( 1.00)
        N              5.00    14.00700     N ( 1.00)

      6 Sym. Ops. (no inversion) found ( 4 have fractional translation)


                                    s                        frac. trans.

      isym =  1     identity                                     

 cryst.   s( 1) = (     1          0          0      )
                  (     0          1          0      )
                  (     0          0          1      )

 cart.    s( 1) = (  1.0000000  0.0000000  0.0000000 )
                  (  0.0000000  1.0000000  0.0000000 )
                  (  0.0000000  0.0000000  1.0000000 )


      isym =  2     120 deg rotation - cryst. axis [0,0,1]       

 cryst.   s( 2) = (     0          1          0      )    f =( -0.2500000 )
                  (    -1         -1          0      )       (  0.0000002 )
                  (     0          0          1      )       (  0.0000000 )

 cart.    s( 2) = ( -0.5000000 -0.8660254  0.0000000 )    f =( -0.2500001 )
                  (  0.8660254 -0.5000000  0.0000000 )       (  0.0000002 )
                  (  0.0000000  0.0000000  1.0000000 )       (  0.0000000 )


      isym =  3     120 deg rotation - cryst. axis [0,0,-1]      

 cryst.   s( 3) = (    -1         -1          0      )    f =( -0.2500002 )
                  (     1          0          0      )       ( -0.2500000 )
                  (     0          0          1      )       (  0.0000000 )

 cart.    s( 3) = ( -0.5000000  0.8660254  0.0000000 )    f =( -0.1250002 )
                  ( -0.8660254 -0.5000000  0.0000000 )       ( -0.2165064 )
                  (  0.0000000  0.0000000  1.0000000 )       (  0.0000000 )


      isym =  4     inv. 180 deg rotation - cart. axis [1,0,0]   

 cryst.   s( 4) = (    -1          0          0      )    f =( -0.2500002 )
                  (     1          1          0      )       (  0.0000000 )
                  (     0          0          1      )       (  0.0000000 )

 cart.    s( 4) = ( -1.0000000  0.0000000  0.0000000 )    f =( -0.2500002 )
                  (  0.0000000  1.0000000  0.0000000 )       (  0.0000000 )
                  (  0.0000000  0.0000000  1.0000000 )       (  0.0000000 )


      isym =  5     inv. 180 deg rotation - cryst. axis [0,1,0]  

 cryst.   s( 5) = (     1          1          0      )
                  (     0         -1          0      )
                  (     0          0          1      )

 cart.    s( 5) = (  0.5000000  0.8660254  0.0000000 )
                  (  0.8660254 -0.5000000  0.0000000 )
                  (  0.0000000  0.0000000  1.0000000 )


      isym =  6     inv. 180 deg rotation - cryst. axis [1,1,0]  

 cryst.   s( 6) = (     0         -1          0      )    f =( -0.2500000 )
                  (    -1          0          0      )       ( -0.2500000 )
                  (     0          0          1      )       (  0.0000000 )

 cart.    s( 6) = (  0.5000000 -0.8660254  0.0000000 )    f =( -0.1250000 )
                  ( -0.8660254 -0.5000000  0.0000000 )       ( -0.2165064 )
                  (  0.0000000  0.0000000  1.0000000 )       (  0.0000000 )


     point group C_3v (3m)  
     there are  3 classes
     the character table:

       E     2C3   3s_v 
A_1    1.00  1.00  1.00
A_2    1.00  1.00 -1.00
E      2.00 -1.00  0.00

     the symmetry operations in each class and the name of the first element:

     E        1
          identity                                               
     2C3      2    3
          120 deg rotation - cryst. axis [0,0,1]                 
     3s_v     4    5    6
          inv. 180 deg rotation - cart. axis [1,0,0]             

   Cartesian axes

     site n.     atom                  positions (alat units)
         1           Ga  tau(   1) = (   0.1250001   0.0721687   0.6108633  )
         2           Ga  tau(   2) = (   0.1250001   0.0721687   1.0183331  )
         3           Ga  tau(   3) = (   0.0000001   0.2886751   0.2033935  )
         4           Ga  tau(   4) = (   0.0000001   0.2886751   0.6108633  )
         5           Ga  tau(   5) = (   0.0000001   0.2886751   1.0183331  )
         6           Ga  tau(   6) = (  -0.1249999   0.5051814   0.2033935  )
         7           Ga  tau(   7) = (  -0.1249999   0.5051814   0.6108633  )
         8           Ga  tau(   8) = (  -0.1249999   0.5051814   1.0183331  )
         9           Ga  tau(   9) = (  -0.2499999   0.7216878   0.2033935  )
        10           Ga  tau(  10) = (  -0.2499999   0.7216878   0.6108633  )
        11           Ga  tau(  11) = (  -0.2499999   0.7216878   1.0183331  )
        12           Ga  tau(  12) = (   0.3750001   0.0721687   0.2033935  )
        13           Ga  tau(  13) = (   0.3750001   0.0721687   0.6108633  )
        14           Ga  tau(  14) = (   0.3750001   0.0721687   1.0183331  )
        15           Ga  tau(  15) = (   0.2500001   0.2886751   0.2033935  )
        16           Ga  tau(  16) = (   0.2500001   0.2886751   0.6108633  )
        17           Ga  tau(  17) = (   0.2500001   0.2886751   1.0183331  )
        18           Ga  tau(  18) = (   0.1250001   0.5051814   0.2033935  )
        19           Ga  tau(  19) = (   0.1250001   0.5051814   0.6108633  )
        20           Ga  tau(  20) = (   0.1250001   0.5051814   1.0183331  )
        21           Ga  tau(  21) = (   0.0000001   0.7216878   0.2033935  )
        22           Ga  tau(  22) = (   0.0000001   0.7216878   0.6108633  )
        23           Ga  tau(  23) = (   0.0000001   0.7216878   1.0183331  )
        24           Ga  tau(  24) = (   0.6250001   0.0721687   0.2033935  )
        25           Ga  tau(  25) = (   0.6250001   0.0721687   0.6108633  )
        26           Ga  tau(  26) = (   0.6250001   0.0721687   1.0183331  )
        27           Ga  tau(  27) = (   0.5000001   0.2886751   0.2033935  )
        28           Ga  tau(  28) = (   0.5000001   0.2886751   0.6108633  )
        29           Ga  tau(  29) = (   0.5000001   0.2886751   1.0183331  )
        30           Ga  tau(  30) = (   0.3750001   0.5051814   0.2033935  )
        31           Ga  tau(  31) = (   0.3750001   0.5051814   0.6108633  )
        32           Ga  tau(  32) = (   0.3750001   0.5051814   1.0183331  )
        33           Ga  tau(  33) = (   0.2500001   0.7216878   0.2033935  )
        34           Ga  tau(  34) = (   0.2500001   0.7216878   0.6108633  )
        35           Ga  tau(  35) = (   0.2500001   0.7216878   1.0183331  )
        36           Ga  tau(  36) = (   0.8750001   0.0721687   0.2033935  )
        37           Ga  tau(  37) = (   0.8750001   0.0721687   0.6108633  )
        38           Ga  tau(  38) = (   0.8750001   0.0721687   1.0183331  )
        39           Ga  tau(  39) = (   0.7500001   0.2886751   0.2033935  )
        40           Ga  tau(  40) = (   0.7500001   0.2886751   0.6108633  )
        41           Ga  tau(  41) = (   0.7500001   0.2886751   1.0183331  )
        42           Ga  tau(  42) = (   0.6250001   0.5051814   0.2033935  )
        43           Ga  tau(  43) = (   0.6250001   0.5051814   0.6108633  )
        44           Ga  tau(  44) = (   0.6250001   0.5051814   1.0183331  )
        45           Ga  tau(  45) = (   0.5000001   0.7216878   0.2033935  )
        46           Ga  tau(  46) = (   0.5000001   0.7216878   0.6108633  )
        47           Ga  tau(  47) = (   0.5000001   0.7216878   1.0183331  )
        48           Ga  tau(  48) = (  -0.0000002   0.1443377   0.4071284  )
        49           Ga  tau(  49) = (  -0.0000002   0.1443377   0.8145982  )
        50           Ga  tau(  50) = (  -0.0000002   0.1443377   1.2220680  )
        51           Ga  tau(  51) = (  -0.1250002   0.3608440   0.4071284  )
        52           Ga  tau(  52) = (  -0.1250002   0.3608440   0.8145982  )
        53           Ga  tau(  53) = (  -0.1250002   0.3608440   1.2220680  )
        54           Ga  tau(  54) = (  -0.2500002   0.5773504   0.4071284  )
        55           Ga  tau(  55) = (  -0.2500002   0.5773504   0.8145982  )
        56           Ga  tau(  56) = (  -0.2500002   0.5773504   1.2220680  )
        57           Ga  tau(  57) = (  -0.3750001   0.7938567   0.4071284  )
        58           Ga  tau(  58) = (  -0.3750001   0.7938567   0.8145982  )
        59           Ga  tau(  59) = (  -0.3750001   0.7938567   1.2220680  )
        60           Ga  tau(  60) = (   0.2499998   0.1443377   0.4071284  )
        61           Ga  tau(  61) = (   0.2499998   0.1443377   0.8145982  )
        62           Ga  tau(  62) = (   0.2499998   0.1443377   1.2220680  )
        63           Ga  tau(  63) = (   0.1249998   0.3608440   0.4071284  )
        64           Ga  tau(  64) = (   0.1249998   0.3608440   0.8145982  )
        65           Ga  tau(  65) = (   0.1249998   0.3608440   1.2220680  )
        66           Ga  tau(  66) = (  -0.0000002   0.5773504   0.4071284  )
        67           Ga  tau(  67) = (  -0.0000002   0.5773504   0.8145982  )
        68           Ga  tau(  68) = (  -0.0000002   0.5773504   1.2220680  )
        69           Ga  tau(  69) = (  -0.1250002   0.7938567   0.4071284  )
        70           Ga  tau(  70) = (  -0.1250002   0.7938567   0.8145982  )
        71           Ga  tau(  71) = (  -0.1250002   0.7938567   1.2220680  )
        72           Ga  tau(  72) = (   0.4999998   0.1443377   0.4071284  )
        73           Ga  tau(  73) = (   0.4999998   0.1443377   0.8145982  )
        74           Ga  tau(  74) = (   0.4999998   0.1443377   1.2220680  )
        75           Ga  tau(  75) = (   0.3749998   0.3608440   0.4071284  )
        76           Ga  tau(  76) = (   0.3749998   0.3608440   0.8145982  )
        77           Ga  tau(  77) = (   0.3749998   0.3608440   1.2220680  )
        78           Ga  tau(  78) = (   0.2499998   0.5773504   0.4071284  )
        79           Ga  tau(  79) = (   0.2499998   0.5773504   0.8145982  )
        80           Ga  tau(  80) = (   0.2499998   0.5773504   1.2220680  )
        81           Ga  tau(  81) = (   0.1249998   0.7938567   0.4071284  )
        82           Ga  tau(  82) = (   0.1249998   0.7938567   0.8145982  )
        83           Ga  tau(  83) = (   0.1249998   0.7938567   1.2220680  )
        84           Ga  tau(  84) = (   0.7499998   0.1443377   0.4071284  )
        85           Ga  tau(  85) = (   0.7499998   0.1443377   0.8145982  )
        86           Ga  tau(  86) = (   0.7499998   0.1443377   1.2220680  )
        87           Ga  tau(  87) = (   0.6249998   0.3608440   0.4071284  )
        88           Ga  tau(  88) = (   0.6249998   0.3608440   0.8145982  )
        89           Ga  tau(  89) = (   0.6249998   0.3608440   1.2220680  )
        90           Ga  tau(  90) = (   0.4999998   0.5773504   0.4071284  )
        91           Ga  tau(  91) = (   0.4999998   0.5773504   0.8145982  )
        92           Ga  tau(  92) = (   0.4999998   0.5773504   1.2220680  )
        93           Ga  tau(  93) = (   0.3749998   0.7938567   0.4071284  )
        94           Ga  tau(  94) = (   0.3749998   0.7938567   0.8145982  )
        95           Ga  tau(  95) = (   0.3749998   0.7938567   1.2220680  )
        96           N   tau(  96) = (   0.1250001   0.0721687   0.3568774  )
        97           N   tau(  97) = (   0.1250001   0.0721687   0.7643472  )
        98           N   tau(  98) = (   0.1250001   0.0721687   1.1718169  )
        99           N   tau(  99) = (   0.0000001   0.2886751   0.3568774  )
       100           N   tau( 100) = (   0.0000001   0.2886751   0.7643472  )
       101           N   tau( 101) = (   0.0000001   0.2886751   1.1718169  )
       102           N   tau( 102) = (  -0.1249999   0.5051814   0.3568774  )
       103           N   tau( 103) = (  -0.1249999   0.5051814   0.7643472  )
       104           N   tau( 104) = (  -0.1249999   0.5051814   1.1718169  )
       105           N   tau( 105) = (  -0.2499999   0.7216878   0.3568774  )
       106           N   tau( 106) = (  -0.2499999   0.7216878   0.7643472  )
       107           N   tau( 107) = (  -0.2499999   0.7216878   1.1718169  )
       108           N   tau( 108) = (   0.3750001   0.0721687   0.3568774  )
       109           N   tau( 109) = (   0.3750001   0.0721687   0.7643472  )
       110           N   tau( 110) = (   0.3750001   0.0721687   1.1718169  )
       111           N   tau( 111) = (   0.2500001   0.2886751   0.3568774  )
       112           N   tau( 112) = (   0.2500001   0.2886751   0.7643472  )
       113           N   tau( 113) = (   0.2500001   0.2886751   1.1718169  )
       114           N   tau( 114) = (   0.1250001   0.5051814   0.3568774  )
       115           N   tau( 115) = (   0.1250001   0.5051814   0.7643472  )
       116           N   tau( 116) = (   0.1250001   0.5051814   1.1718169  )
       117           N   tau( 117) = (   0.0000001   0.7216878   0.3568774  )
       118           N   tau( 118) = (   0.0000001   0.7216878   0.7643472  )
       119           N   tau( 119) = (   0.0000001   0.7216878   1.1718169  )
       120           N   tau( 120) = (   0.6250001   0.0721687   0.3568774  )
       121           N   tau( 121) = (   0.6250001   0.0721687   0.7643472  )
       122           N   tau( 122) = (   0.6250001   0.0721687   1.1718169  )
       123           N   tau( 123) = (   0.5000001   0.2886751   0.3568774  )
       124           N   tau( 124) = (   0.5000001   0.2886751   0.7643472  )
       125           N   tau( 125) = (   0.5000001   0.2886751   1.1718169  )
       126           N   tau( 126) = (   0.3750001   0.5051814   0.3568774  )
       127           N   tau( 127) = (   0.3750001   0.5051814   0.7643472  )
       128           N   tau( 128) = (   0.3750001   0.5051814   1.1718169  )
       129           N   tau( 129) = (   0.2500001   0.7216878   0.3568774  )
       130           N   tau( 130) = (   0.2500001   0.7216878   0.7643472  )
       131           N   tau( 131) = (   0.2500001   0.7216878   1.1718169  )
       132           N   tau( 132) = (   0.8750001   0.0721687   0.3568774  )
       133           N   tau( 133) = (   0.8750001   0.0721687   0.7643472  )
       134           N   tau( 134) = (   0.8750001   0.0721687   1.1718169  )
       135           N   tau( 135) = (   0.7500001   0.2886751   0.3568774  )
       136           N   tau( 136) = (   0.7500001   0.2886751   0.7643472  )
       137           N   tau( 137) = (   0.7500001   0.2886751   1.1718169  )
       138           N   tau( 138) = (   0.6250001   0.5051814   0.3568774  )
       139           N   tau( 139) = (   0.6250001   0.5051814   0.7643472  )
       140           N   tau( 140) = (   0.6250001   0.5051814   1.1718169  )
       141           N   tau( 141) = (   0.5000001   0.7216878   0.3568774  )
       142           N   tau( 142) = (   0.5000001   0.7216878   0.7643472  )
       143           N   tau( 143) = (   0.5000001   0.7216878   1.1718169  )
       144           N   tau( 144) = (  -0.0000002   0.1443377   0.1531425  )
       145           N   tau( 145) = (  -0.0000002   0.1443377   0.5606123  )
       146           N   tau( 146) = (  -0.0000002   0.1443377   0.9680820  )
       147           N   tau( 147) = (  -0.1250002   0.3608440   0.1531425  )
       148           N   tau( 148) = (  -0.1250002   0.3608440   0.5606123  )
       149           N   tau( 149) = (  -0.1250002   0.3608440   0.9680820  )
       150           N   tau( 150) = (  -0.2500002   0.5773504   0.1531425  )
       151           N   tau( 151) = (  -0.2500002   0.5773504   0.5606123  )
       152           N   tau( 152) = (  -0.2500002   0.5773504   0.9680820  )
       153           N   tau( 153) = (  -0.3750001   0.7938567   0.1531425  )
       154           N   tau( 154) = (  -0.3750001   0.7938567   0.5606123  )
       155           N   tau( 155) = (  -0.3750001   0.7938567   0.9680820  )
       156           N   tau( 156) = (   0.2499998   0.1443377   0.1531425  )
       157           N   tau( 157) = (   0.2499998   0.1443377   0.5606123  )
       158           N   tau( 158) = (   0.2499998   0.1443377   0.9680820  )
       159           N   tau( 159) = (   0.1249998   0.3608440   0.1531425  )
       160           N   tau( 160) = (   0.1249998   0.3608440   0.5606123  )
       161           N   tau( 161) = (   0.1249998   0.3608440   0.9680820  )
       162           N   tau( 162) = (  -0.0000002   0.5773504   0.1531425  )
       163           N   tau( 163) = (  -0.0000002   0.5773504   0.5606123  )
       164           N   tau( 164) = (  -0.0000002   0.5773504   0.9680820  )
       165           N   tau( 165) = (  -0.1250002   0.7938567   0.1531425  )
       166           N   tau( 166) = (  -0.1250002   0.7938567   0.5606123  )
       167           N   tau( 167) = (  -0.1250002   0.7938567   0.9680820  )
       168           N   tau( 168) = (   0.4999998   0.1443377   0.1531425  )
       169           N   tau( 169) = (   0.4999998   0.1443377   0.5606123  )
       170           N   tau( 170) = (   0.4999998   0.1443377   0.9680820  )
       171           N   tau( 171) = (   0.3749998   0.3608440   0.1531425  )
       172           N   tau( 172) = (   0.3749998   0.3608440   0.5606123  )
       173           N   tau( 173) = (   0.3749998   0.3608440   0.9680820  )
       174           N   tau( 174) = (   0.2499998   0.5773504   0.1531425  )
       175           N   tau( 175) = (   0.2499998   0.5773504   0.5606123  )
       176           N   tau( 176) = (   0.2499998   0.5773504   0.9680820  )
       177           N   tau( 177) = (   0.1249998   0.7938567   0.1531425  )
       178           N   tau( 178) = (   0.1249998   0.7938567   0.5606123  )
       179           N   tau( 179) = (   0.1249998   0.7938567   0.9680820  )
       180           N   tau( 180) = (   0.7499998   0.1443377   0.1531425  )
       181           N   tau( 181) = (   0.7499998   0.1443377   0.5606123  )
       182           N   tau( 182) = (   0.7499998   0.1443377   0.9680820  )
       183           N   tau( 183) = (   0.6249998   0.3608440   0.1531425  )
       184           N   tau( 184) = (   0.6249998   0.3608440   0.5606123  )
       185           N   tau( 185) = (   0.6249998   0.3608440   0.9680820  )
       186           N   tau( 186) = (   0.4999998   0.5773504   0.1531425  )
       187           N   tau( 187) = (   0.4999998   0.5773504   0.5606123  )
       188           N   tau( 188) = (   0.4999998   0.5773504   0.9680820  )
       189           N   tau( 189) = (   0.3749998   0.7938567   0.1531425  )
       190           N   tau( 190) = (   0.3749998   0.7938567   0.5606123  )
       191           N   tau( 191) = (   0.3749998   0.7938567   0.9680820  )

   Crystallographic axes

     site n.     atom                  positions (cryst. coord.)
         1           Ga  tau(   1) = (  0.1666667  0.0833333  0.4997208  )
         2           Ga  tau(   2) = (  0.1666667  0.0833333  0.8330541  )
         3           Ga  tau(   3) = (  0.1666667  0.3333333  0.1663874  )
         4           Ga  tau(   4) = (  0.1666667  0.3333333  0.4997208  )
         5           Ga  tau(   5) = (  0.1666667  0.3333333  0.8330541  )
         6           Ga  tau(   6) = (  0.1666667  0.5833333  0.1663874  )
         7           Ga  tau(   7) = (  0.1666667  0.5833333  0.4997208  )
         8           Ga  tau(   8) = (  0.1666667  0.5833333  0.8330541  )
         9           Ga  tau(   9) = (  0.1666667  0.8333333  0.1663874  )
        10           Ga  tau(  10) = (  0.1666667  0.8333333  0.4997208  )
        11           Ga  tau(  11) = (  0.1666667  0.8333333  0.8330541  )
        12           Ga  tau(  12) = (  0.4166667  0.0833333  0.1663874  )
        13           Ga  tau(  13) = (  0.4166667  0.0833333  0.4997208  )
        14           Ga  tau(  14) = (  0.4166667  0.0833333  0.8330541  )
        15           Ga  tau(  15) = (  0.4166667  0.3333333  0.1663874  )
        16           Ga  tau(  16) = (  0.4166667  0.3333333  0.4997208  )
        17           Ga  tau(  17) = (  0.4166667  0.3333333  0.8330541  )
        18           Ga  tau(  18) = (  0.4166667  0.5833333  0.1663874  )
        19           Ga  tau(  19) = (  0.4166667  0.5833333  0.4997208  )
        20           Ga  tau(  20) = (  0.4166667  0.5833333  0.8330541  )
        21           Ga  tau(  21) = (  0.4166667  0.8333333  0.1663874  )
        22           Ga  tau(  22) = (  0.4166667  0.8333333  0.4997208  )
        23           Ga  tau(  23) = (  0.4166667  0.8333333  0.8330541  )
        24           Ga  tau(  24) = (  0.6666667  0.0833333  0.1663874  )
        25           Ga  tau(  25) = (  0.6666667  0.0833333  0.4997208  )
        26           Ga  tau(  26) = (  0.6666667  0.0833333  0.8330541  )
        27           Ga  tau(  27) = (  0.6666667  0.3333333  0.1663874  )
        28           Ga  tau(  28) = (  0.6666667  0.3333333  0.4997208  )
        29           Ga  tau(  29) = (  0.6666667  0.3333333  0.8330541  )
        30           Ga  tau(  30) = (  0.6666667  0.5833333  0.1663874  )
        31           Ga  tau(  31) = (  0.6666667  0.5833333  0.4997208  )
        32           Ga  tau(  32) = (  0.6666667  0.5833333  0.8330541  )
        33           Ga  tau(  33) = (  0.6666667  0.8333333  0.1663874  )
        34           Ga  tau(  34) = (  0.6666667  0.8333333  0.4997208  )
        35           Ga  tau(  35) = (  0.6666667  0.8333333  0.8330541  )
        36           Ga  tau(  36) = (  0.9166667  0.0833333  0.1663874  )
        37           Ga  tau(  37) = (  0.9166667  0.0833333  0.4997208  )
        38           Ga  tau(  38) = (  0.9166667  0.0833333  0.8330541  )
        39           Ga  tau(  39) = (  0.9166667  0.3333333  0.1663874  )
        40           Ga  tau(  40) = (  0.9166667  0.3333333  0.4997208  )
        41           Ga  tau(  41) = (  0.9166667  0.3333333  0.8330541  )
        42           Ga  tau(  42) = (  0.9166667  0.5833333  0.1663874  )
        43           Ga  tau(  43) = (  0.9166667  0.5833333  0.4997208  )
        44           Ga  tau(  44) = (  0.9166667  0.5833333  0.8330541  )
        45           Ga  tau(  45) = (  0.9166667  0.8333333  0.1663874  )
        46           Ga  tau(  46) = (  0.9166667  0.8333333  0.4997208  )
        47           Ga  tau(  47) = (  0.9166667  0.8333333  0.8330541  )
        48           Ga  tau(  48) = (  0.0833333  0.1666668  0.3330541  )
        49           Ga  tau(  49) = (  0.0833333  0.1666668  0.6663874  )
        50           Ga  tau(  50) = (  0.0833333  0.1666668  0.9997208  )
        51           Ga  tau(  51) = (  0.0833333  0.4166668  0.3330541  )
        52           Ga  tau(  52) = (  0.0833333  0.4166668  0.6663874  )
        53           Ga  tau(  53) = (  0.0833333  0.4166668  0.9997208  )
        54           Ga  tau(  54) = (  0.0833333  0.6666668  0.3330541  )
        55           Ga  tau(  55) = (  0.0833333  0.6666668  0.6663874  )
        56           Ga  tau(  56) = (  0.0833333  0.6666668  0.9997208  )
        57           Ga  tau(  57) = (  0.0833333  0.9166668  0.3330541  )
        58           Ga  tau(  58) = (  0.0833333  0.9166668  0.6663874  )
        59           Ga  tau(  59) = (  0.0833333  0.9166668  0.9997208  )
        60           Ga  tau(  60) = (  0.3333332  0.1666668  0.3330541  )
        61           Ga  tau(  61) = (  0.3333332  0.1666668  0.6663874  )
        62           Ga  tau(  62) = (  0.3333332  0.1666668  0.9997208  )
        63           Ga  tau(  63) = (  0.3333332  0.4166668  0.3330541  )
        64           Ga  tau(  64) = (  0.3333332  0.4166668  0.6663874  )
        65           Ga  tau(  65) = (  0.3333332  0.4166668  0.9997208  )
        66           Ga  tau(  66) = (  0.3333332  0.6666668  0.3330541  )
        67           Ga  tau(  67) = (  0.3333332  0.6666668  0.6663874  )
        68           Ga  tau(  68) = (  0.3333332  0.6666668  0.9997208  )
        69           Ga  tau(  69) = (  0.3333332  0.9166668  0.3330541  )
        70           Ga  tau(  70) = (  0.3333332  0.9166668  0.6663874  )
        71           Ga  tau(  71) = (  0.3333332  0.9166668  0.9997208  )
        72           Ga  tau(  72) = (  0.5833332  0.1666668  0.3330541  )
        73           Ga  tau(  73) = (  0.5833332  0.1666668  0.6663874  )
        74           Ga  tau(  74) = (  0.5833332  0.1666668  0.9997208  )
        75           Ga  tau(  75) = (  0.5833332  0.4166668  0.3330541  )
        76           Ga  tau(  76) = (  0.5833332  0.4166668  0.6663874  )
        77           Ga  tau(  77) = (  0.5833332  0.4166668  0.9997208  )
        78           Ga  tau(  78) = (  0.5833332  0.6666668  0.3330541  )
        79           Ga  tau(  79) = (  0.5833332  0.6666668  0.6663874  )
        80           Ga  tau(  80) = (  0.5833332  0.6666668  0.9997208  )
        81           Ga  tau(  81) = (  0.5833332  0.9166668  0.3330541  )
        82           Ga  tau(  82) = (  0.5833332  0.9166668  0.6663874  )
        83           Ga  tau(  83) = (  0.5833332  0.9166668  0.9997208  )
        84           Ga  tau(  84) = (  0.8333332  0.1666668  0.3330541  )
        85           Ga  tau(  85) = (  0.8333332  0.1666668  0.6663874  )
        86           Ga  tau(  86) = (  0.8333332  0.1666668  0.9997208  )
        87           Ga  tau(  87) = (  0.8333332  0.4166668  0.3330541  )
        88           Ga  tau(  88) = (  0.8333332  0.4166668  0.6663874  )
        89           Ga  tau(  89) = (  0.8333332  0.4166668  0.9997208  )
        90           Ga  tau(  90) = (  0.8333332  0.6666668  0.3330541  )
        91           Ga  tau(  91) = (  0.8333332  0.6666668  0.6663874  )
        92           Ga  tau(  92) = (  0.8333332  0.6666668  0.9997208  )
        93           Ga  tau(  93) = (  0.8333332  0.9166668  0.3330541  )
        94           Ga  tau(  94) = (  0.8333332  0.9166668  0.6663874  )
        95           Ga  tau(  95) = (  0.8333332  0.9166668  0.9997208  )
        96           N   tau(  96) = (  0.1666667  0.0833333  0.2919459  )
        97           N   tau(  97) = (  0.1666667  0.0833333  0.6252792  )
        98           N   tau(  98) = (  0.1666667  0.0833333  0.9586126  )
        99           N   tau(  99) = (  0.1666667  0.3333333  0.2919459  )
       100           N   tau( 100) = (  0.1666667  0.3333333  0.6252792  )
       101           N   tau( 101) = (  0.1666667  0.3333333  0.9586126  )
       102           N   tau( 102) = (  0.1666667  0.5833333  0.2919459  )
       103           N   tau( 103) = (  0.1666667  0.5833333  0.6252792  )
       104           N   tau( 104) = (  0.1666667  0.5833333  0.9586126  )
       105           N   tau( 105) = (  0.1666667  0.8333333  0.2919459  )
       106           N   tau( 106) = (  0.1666667  0.8333333  0.6252792  )
       107           N   tau( 107) = (  0.1666667  0.8333333  0.9586126  )
       108           N   tau( 108) = (  0.4166667  0.0833333  0.2919459  )
       109           N   tau( 109) = (  0.4166667  0.0833333  0.6252792  )
       110           N   tau( 110) = (  0.4166667  0.0833333  0.9586126  )
       111           N   tau( 111) = (  0.4166667  0.3333333  0.2919459  )
       112           N   tau( 112) = (  0.4166667  0.3333333  0.6252792  )
       113           N   tau( 113) = (  0.4166667  0.3333333  0.9586126  )
       114           N   tau( 114) = (  0.4166667  0.5833333  0.2919459  )
       115           N   tau( 115) = (  0.4166667  0.5833333  0.6252792  )
       116           N   tau( 116) = (  0.4166667  0.5833333  0.9586126  )
       117           N   tau( 117) = (  0.4166667  0.8333333  0.2919459  )
       118           N   tau( 118) = (  0.4166667  0.8333333  0.6252792  )
       119           N   tau( 119) = (  0.4166667  0.8333333  0.9586126  )
       120           N   tau( 120) = (  0.6666667  0.0833333  0.2919459  )
       121           N   tau( 121) = (  0.6666667  0.0833333  0.6252792  )
       122           N   tau( 122) = (  0.6666667  0.0833333  0.9586126  )
       123           N   tau( 123) = (  0.6666667  0.3333333  0.2919459  )
       124           N   tau( 124) = (  0.6666667  0.3333333  0.6252792  )
       125           N   tau( 125) = (  0.6666667  0.3333333  0.9586126  )
       126           N   tau( 126) = (  0.6666667  0.5833333  0.2919459  )
       127           N   tau( 127) = (  0.6666667  0.5833333  0.6252792  )
       128           N   tau( 128) = (  0.6666667  0.5833333  0.9586126  )
       129           N   tau( 129) = (  0.6666667  0.8333333  0.2919459  )
       130           N   tau( 130) = (  0.6666667  0.8333333  0.6252792  )
       131           N   tau( 131) = (  0.6666667  0.8333333  0.9586126  )
       132           N   tau( 132) = (  0.9166667  0.0833333  0.2919459  )
       133           N   tau( 133) = (  0.9166667  0.0833333  0.6252792  )
       134           N   tau( 134) = (  0.9166667  0.0833333  0.9586126  )
       135           N   tau( 135) = (  0.9166667  0.3333333  0.2919459  )
       136           N   tau( 136) = (  0.9166667  0.3333333  0.6252792  )
       137           N   tau( 137) = (  0.9166667  0.3333333  0.9586126  )
       138           N   tau( 138) = (  0.9166667  0.5833333  0.2919459  )
       139           N   tau( 139) = (  0.9166667  0.5833333  0.6252792  )
       140           N   tau( 140) = (  0.9166667  0.5833333  0.9586126  )
       141           N   tau( 141) = (  0.9166667  0.8333333  0.2919459  )
       142           N   tau( 142) = (  0.9166667  0.8333333  0.6252792  )
       143           N   tau( 143) = (  0.9166667  0.8333333  0.9586126  )
       144           N   tau( 144) = (  0.0833333  0.1666668  0.1252792  )
       145           N   tau( 145) = (  0.0833333  0.1666668  0.4586126  )
       146           N   tau( 146) = (  0.0833333  0.1666668  0.7919459  )
       147           N   tau( 147) = (  0.0833333  0.4166668  0.1252792  )
       148           N   tau( 148) = (  0.0833333  0.4166668  0.4586126  )
       149           N   tau( 149) = (  0.0833333  0.4166668  0.7919459  )
       150           N   tau( 150) = (  0.0833333  0.6666668  0.1252792  )
       151           N   tau( 151) = (  0.0833333  0.6666668  0.4586126  )
       152           N   tau( 152) = (  0.0833333  0.6666668  0.7919459  )
       153           N   tau( 153) = (  0.0833333  0.9166668  0.1252792  )
       154           N   tau( 154) = (  0.0833333  0.9166668  0.4586126  )
       155           N   tau( 155) = (  0.0833333  0.9166668  0.7919459  )
       156           N   tau( 156) = (  0.3333332  0.1666668  0.1252792  )
       157           N   tau( 157) = (  0.3333332  0.1666668  0.4586126  )
       158           N   tau( 158) = (  0.3333332  0.1666668  0.7919459  )
       159           N   tau( 159) = (  0.3333332  0.4166668  0.1252792  )
       160           N   tau( 160) = (  0.3333332  0.4166668  0.4586126  )
       161           N   tau( 161) = (  0.3333332  0.4166668  0.7919459  )
       162           N   tau( 162) = (  0.3333332  0.6666668  0.1252792  )
       163           N   tau( 163) = (  0.3333332  0.6666668  0.4586126  )
       164           N   tau( 164) = (  0.3333332  0.6666668  0.7919459  )
       165           N   tau( 165) = (  0.3333332  0.9166668  0.1252792  )
       166           N   tau( 166) = (  0.3333332  0.9166668  0.4586126  )
       167           N   tau( 167) = (  0.3333332  0.9166668  0.7919459  )
       168           N   tau( 168) = (  0.5833332  0.1666668  0.1252792  )
       169           N   tau( 169) = (  0.5833332  0.1666668  0.4586126  )
       170           N   tau( 170) = (  0.5833332  0.1666668  0.7919459  )
       171           N   tau( 171) = (  0.5833332  0.4166668  0.1252792  )
       172           N   tau( 172) = (  0.5833332  0.4166668  0.4586126  )
       173           N   tau( 173) = (  0.5833332  0.4166668  0.7919459  )
       174           N   tau( 174) = (  0.5833332  0.6666668  0.1252792  )
       175           N   tau( 175) = (  0.5833332  0.6666668  0.4586126  )
       176           N   tau( 176) = (  0.5833332  0.6666668  0.7919459  )
       177           N   tau( 177) = (  0.5833332  0.9166668  0.1252792  )
       178           N   tau( 178) = (  0.5833332  0.9166668  0.4586126  )
       179           N   tau( 179) = (  0.5833332  0.9166668  0.7919459  )
       180           N   tau( 180) = (  0.8333332  0.1666668  0.1252792  )
       181           N   tau( 181) = (  0.8333332  0.1666668  0.4586126  )
       182           N   tau( 182) = (  0.8333332  0.1666668  0.7919459  )
       183           N   tau( 183) = (  0.8333332  0.4166668  0.1252792  )
       184           N   tau( 184) = (  0.8333332  0.4166668  0.4586126  )
       185           N   tau( 185) = (  0.8333332  0.4166668  0.7919459  )
       186           N   tau( 186) = (  0.8333332  0.6666668  0.1252792  )
       187           N   tau( 187) = (  0.8333332  0.6666668  0.4586126  )
       188           N   tau( 188) = (  0.8333332  0.6666668  0.7919459  )
       189           N   tau( 189) = (  0.8333332  0.9166668  0.1252792  )
       190           N   tau( 190) = (  0.8333332  0.9166668  0.4586126  )
       191           N   tau( 191) = (  0.8333332  0.9166668  0.7919459  )

     number of k points=     4  Gaussian smearing, width (Ry)=  0.0100
                       cart. coord. in units 2pi/alat
        k(    1) = (   0.0000000   0.0000000   0.0000000), wk =   0.2500000
        k(    2) = (   0.0000000   0.0000000  -0.4090283), wk =   0.2500000
        k(    3) = (   0.0000000  -0.5773503   0.0000000), wk =   0.7500000
        k(    4) = (   0.0000000  -0.5773503  -0.4090283), wk =   0.7500000

                       cryst. coord.
        k(    1) = (   0.0000000   0.0000000   0.0000000), wk =   0.2500000
        k(    2) = (   0.0000000   0.0000000  -0.5000000), wk =   0.2500000
        k(    3) = (   0.0000000  -0.5000000   0.0000000), wk =   0.7500000
        k(    4) = (   0.0000000  -0.5000000  -0.5000000), wk =   0.7500000

     Dense  grid:  1726709 G-vectors     FFT dimensions: ( 160, 160, 180)

     Smooth grid:  1235535 G-vectors     FFT dimensions: ( 144, 144, 160)

     Dynamical RAM for                 wfc:      37.96 MB

     Dynamical RAM for     wfc (w. buffer):      37.96 MB

     Dynamical RAM for           str. fact:       0.82 MB

     Dynamical RAM for           local pot:       0.00 MB

     Dynamical RAM for          nlocal pot:      91.24 MB

     Dynamical RAM for                qrad:       3.00 MB

     Dynamical RAM for          rho,v,vnew:       2.99 MB

     Dynamical RAM for               rhoin:       1.00 MB

     Dynamical RAM for            rho*nmix:       6.59 MB

     Dynamical RAM for           G-vectors:       1.69 MB

     Dynamical RAM for          h,s,v(r/c):     778.54 MB

     Dynamical RAM for          <psi|beta>:      38.98 MB

     Dynamical RAM for                 psi:     151.84 MB

     Dynamical RAM for                hpsi:     151.84 MB

     Dynamical RAM for                spsi:     151.84 MB

     Dynamical RAM for      wfcinit/wfcrot:     100.26 MB

     Dynamical RAM for           addusdens:      29.33 MB

     Dynamical RAM for          addusforce:      49.16 MB

     Dynamical RAM for         addusstress:      20.84 MB

     Estimated static dynamical RAM per process >     142.87 MB

     Estimated max dynamical RAM per process >       1.39 GB

     Estimated total dynamical RAM >     354.39 GB

     Atomic positions and unit cell read from directory:
     ./GaN.save/
     Atomic positions from file used, from input discarded
 

     Check: negative core charge=   -0.000003

     The initial density is read from file :
     ./GaN.save/charge-density



     %%%%%%%%%%%%%%%%%%%%%%%%%%%%%%%%%%%%%%%%%%%%%%%%%%%%%%%%%%%%%%%%%%%%%%%%
     %                                                                      %
     % You are using vdW-DF, which was implemented by the Thonhauser group. %
     % Please cite the following two papers that made this development      %
     % possible and the two reviews that describe the various versions:     %
     %                                                                      %
     %   T. Thonhauser et al., PRL 115, 136402 (2015).                      %
     %   T. Thonhauser et al., PRB 76, 125112 (2007).                       %
     %   K. Berland et al., Rep. Prog. Phys. 78, 066501 (2015).             %
     %   D.C. Langreth et al., J. Phys.: Condens. Matter 21, 084203 (2009). %
     %                                                                      %
     % If you are calculating stress with vdW-DF, please also cite:         %
     %                                                                      %
     %   R. Sabatini et al., J. Phys.: Condens. Matter 24, 424209 (2012).   %
     %                                                                      %
     %%%%%%%%%%%%%%%%%%%%%%%%%%%%%%%%%%%%%%%%%%%%%%%%%%%%%%%%%%%%%%%%%%%%%%%%

     %%%%%%%%%%%%%%%%%%%%%%%%%%%%%%%%%%%%%%%%%%%%%%%%%%%%%%%%%%%%%%%%%%%%%%%%
     %                                                                      %
     %  vdW-DF NEWS:                                                        %
     %                                                                      %
     %  * vdW-DF3 is now available. DOI: 10.1021/acs.jctc.0c00471           %
     %    use with input_dft = 'vdW-DF3-opt1' or 'vdW-DF3-opt2'             %
     %                                                                      %
     %  * Unscreened and range-separated vdW-DF hybrid functionals          %
     %    DOI: 10.1063/1.4986522 and 10.1088/1361-648X/ac2ad2               %
     %    use with input_dft = 'vdW-DF-cx0' (etc) and 'vdW-DF-ahcx'         %
     %                                                                      %
     %%%%%%%%%%%%%%%%%%%%%%%%%%%%%%%%%%%%%%%%%%%%%%%%%%%%%%%%%%%%%%%%%%%%%%%%


     Carrying out vdW-DF run using the following parameters:
     Nqs    =  20  Npoints =  1024  r_max =  100.000
     q_mesh =  0.00001000  0.04494208  0.09755937  0.15916263
               0.23128650  0.31572767  0.41458969  0.53033537
               0.66584808  0.82450364  1.01025438  1.22772762
               1.48234092  1.78043706  2.12944203  2.53805004
               3.01644009  3.57652955  4.23227104  5.00000000


     -----------------------------------------------
     Non-local corr. energy    =      51.87811682 Ry
     -----------------------------------------------

     Wavefunctions not found or not readable, recomputing them from scratch
     Starting wfcs are 1239 randomized atomic wfcs
     Checking if some PAW data can be deallocated... 
       PAW data deallocated on   96 nodes for type:  1
       PAW data deallocated on  160 nodes for type:  2

     total cpu time spent up to now is       30.2 secs

     Self-consistent Calculation

     iteration #  1     ecut=    70.00 Ry     beta= 0.70
     Davidson diagonalization with overlap

---- Real-time Memory Report at c_bands before calling an iterative solver
           572 MiB given to the printing process from OS
             0 MiB allocation reported by mallinfo(arena+hblkhd)
       1854651 MiB available memory on the node where the printing process lives
------------------
     ethr =  1.00E-05,  avg # of iterations = 27.8

     Threshold (ethr) on eigenvalues was too large:
     Diagonalizing with lowered threshold

     Davidson diagonalization with overlap

---- Real-time Memory Report at c_bands before calling an iterative solver
          1522 MiB given to the printing process from OS
             0 MiB allocation reported by mallinfo(arena+hblkhd)
       1855699 MiB available memory on the node where the printing process lives
------------------
     c_bands:  1 eigenvalues not converged
     ethr =  2.48E-08,  avg # of iterations = 30.0


     -----------------------------------------------
     Non-local corr. energy    =      51.87806740 Ry
     -----------------------------------------------


     total cpu time spent up to now is     1016.6 secs

     total energy              =  -29694.68534606 Ry
     estimated scf accuracy    <       0.00000016 Ry

     iteration #  2     ecut=    70.00 Ry     beta= 0.70
     Davidson diagonalization with overlap

---- Real-time Memory Report at c_bands before calling an iterative solver
          1531 MiB given to the printing process from OS
             0 MiB allocation reported by mallinfo(arena+hblkhd)
       1847025 MiB available memory on the node where the printing process lives
------------------
     ethr =  9.42E-12,  avg # of iterations = 38.8


     -----------------------------------------------
     Non-local corr. energy    =      51.87806814 Ry
     -----------------------------------------------


     total cpu time spent up to now is     1589.3 secs

     total energy              =  -29694.68534556 Ry
     estimated scf accuracy    <       0.00002826 Ry

     iteration #  3     ecut=    70.00 Ry     beta= 0.70
     Davidson diagonalization with overlap

---- Real-time Memory Report at c_bands before calling an iterative solver
          1531 MiB given to the printing process from OS
             0 MiB allocation reported by mallinfo(arena+hblkhd)
       1846862 MiB available memory on the node where the printing process lives
------------------
     c_bands:  1 eigenvalues not converged
     ethr =  9.42E-12,  avg # of iterations = 15.8


     -----------------------------------------------
     Non-local corr. energy    =      51.87809644 Ry
     -----------------------------------------------


     total cpu time spent up to now is     2078.6 secs

     End of self-consistent calculation

          k = 0.0000 0.0000 0.0000 (154543 PWs)   bands (ev):

    -7.0095  -6.8016  -6.7713  -6.7305  -6.7222  -6.7222  -6.7000  -6.7000
    -6.6732  -6.6230  -6.6180  -6.6139  -6.6139  -6.6030  -6.5943  -6.5941
    -6.5941  -6.5927  -6.5927  -6.5918  -6.5918  -6.5774  -6.5759  -6.5759
    -6.5727  -6.5693  -6.5693  -6.5623  -6.5623  -6.5595  -6.5595  -6.5529
    -6.5529  -6.5505  -6.5466  -6.5466  -6.5441  -6.5387  -6.5387  -6.5340
    -6.5339  -6.5322  -6.5321  -6.5313  -6.5214  -6.5214  -6.5190  -6.5137
    -6.5137  -6.5130  -6.5040  -6.5040  -6.5034  -6.4945  -6.4945  -6.4904
    -6.4884  -6.4875  -6.4875  -6.4837  -6.4837  -6.4768  -6.4683  -6.4662
    -6.4662  -6.4614  -6.4614  -6.4488  -6.4470  -6.4391  -6.4390  -6.4099
    -6.4099  -6.4086  -6.4077  -6.4076  -6.3825  -6.3825  -6.3790  -6.3752
    -6.3743  -6.3743  -6.3514  -6.3514  -6.3502  -6.3380  -6.3380  -6.3373
    -6.3232  -6.3222  -6.3222  -6.2798  -5.9446  -5.9198  -5.9198  -5.9145
    -5.4940  -5.4940  -5.4699  -5.4686  -5.4659  -5.4659  -5.4636  -5.4636
    -5.4625  -5.4590  -5.4579  -5.4579  -5.4511  -5.4511  -5.4504  -5.4487
    -5.4487  -5.4444  -5.4419  -5.4418  -5.4377  -5.4377  -5.4376  -5.4354
    -5.4354  -5.4334  -5.4334  -5.4305  -5.4251  -5.4251  -5.4248  -5.4215
    -5.4207  -5.4207  -5.4170  -5.4170  -5.4127  -5.4083  -5.4033  -5.4033
    -5.4026  -5.4002  -5.4002  -5.3985  -5.3981  -5.3963  -5.3962  -5.3939
    -5.3936  -5.3936  -5.3936  -5.3898  -5.3898  -5.3896  -5.3882  -5.3882
    -5.3857  -5.3857  -5.3839  -5.3826  -5.3826  -5.3815  -5.3815  -5.3777
    -5.3776  -5.3745  -5.3745  -5.3737  -5.3737  -5.3712  -5.3702  -5.3702
    -5.3679  -5.3679  -5.3669  -5.3646  -5.3646  -5.3635  -5.3635  -5.3629
    -5.3599  -5.3597  -5.3595  -5.3595  -5.3555  -5.3551  -5.3541  -5.3541
    -5.3521  -5.3521  -5.3492  -5.3488  -5.3488  -5.3443  -5.3422  -5.3422
    -5.3397  -5.3397  -5.3386  -5.3369  -5.3369  -5.3359  -5.3359  -5.3314
    -5.3301  -5.3301  -5.3287  -5.3283  -5.3283  -5.3270  -5.3262  -5.3262
    -5.3250  -5.3250  -5.3242  -5.3239  -5.3239  -5.3234  -5.3193  -5.3193
    -5.3178  -5.3170  -5.3162  -5.3162  -5.3158  -5.3158  -5.3124  -5.3124
    -5.3107  -5.3105  -5.3105  -5.3093  -5.3064  -5.3064  -5.3061  -5.3057
    -5.3044  -5.3036  -5.3036  -5.3003  -5.3003  -5.2991  -5.2991  -5.2962
    -5.2962  -5.2952  -5.2951  -5.2951  -5.2936  -5.2936  -5.2925  -5.2919
    -5.2912  -5.2912  -5.2893  -5.2893  -5.2853  -5.2849  -5.2849  -5.2847
    -5.2836  -5.2833  -5.2833  -5.2821  -5.2806  -5.2788  -5.2788  -5.2761
    -5.2761  -5.2761  -5.2740  -5.2740  -5.2720  -5.2714  -5.2714  -5.2707
    -5.2702  -5.2684  -5.2680  -5.2680  -5.2667  -5.2667  -5.2631  -5.2631
    -5.2628  -5.2619  -5.2611  -5.2611  -5.2608  -5.2601  -5.2595  -5.2595
    -5.2576  -5.2576  -5.2570  -5.2550  -5.2550  -5.2540  -5.2540  -5.2536
    -5.2513  -5.2513  -5.2508  -5.2488  -5.2486  -5.2486  -5.2476  -5.2476
    -5.2473  -5.2466  -5.2466  -5.2431  -5.2427  -5.2410  -5.2410  -5.2405
    -5.2405  -5.2398  -5.2364  -5.2364  -5.2357  -5.2338  -5.2333  -5.2333
    -5.2322  -5.2322  -5.2318  -5.2317  -5.2317  -5.2293  -5.2273  -5.2273
    -5.2250  -5.2240  -5.2240  -5.2202  -5.2202  -5.2202  -5.2174  -5.2164
    -5.2164  -5.2164  -5.2143  -5.2142  -5.2142  -5.2135  -5.2120  -5.2120
    -5.2086  -5.2086  -5.2082  -5.2072  -5.2059  -5.2059  -5.2032  -5.2032
    -5.2027  -5.2016  -5.2016  -5.2016  -5.1989  -5.1989  -5.1966  -5.1966
    -5.1962  -5.1930  -5.1930  -5.1920  -5.1920  -5.1891  -5.1888  -5.1875
    -5.1870  -5.1870  -5.1837  -5.1837  -5.1804  -5.1804  -5.1788  -5.1788
    -5.1782  -5.1771  -5.1771  -5.1771  -5.1717  -5.1717  -5.1705  -5.1689
    -5.1689  -5.1688  -5.1672  -5.1657  -5.1657  -5.1642  -5.1600  -5.1568
    -5.1568  -5.1529  -5.1514  -5.1509  -5.1509  -5.1507  -5.1481  -5.1481
    -5.1434  -5.1434  -5.1419  -5.1419  -5.1367  -5.1334  -5.1318  -5.1318
    -5.1317  -5.1317  -5.1308  -5.1245  -5.1217  -5.1217  -5.1200  -5.1146
    -5.1146  -5.1094  -5.1094  -5.1073  -5.1073  -5.1047  -5.0932  -5.0872
    -5.0872  -5.0829  -5.0727  -5.0727  -5.0618  -5.0549  -5.0501  -5.0501
    -5.0332  -5.0332  -5.0246  -5.0180  -5.0180  -5.0040  -4.9969  -4.9857
    -4.9857  -4.9783  -4.9783  -4.9760  -4.9620  -4.9620  -4.9546  -4.9546
    -4.9392  -4.9363  -4.9363  -4.9289  -4.9289  -4.9268  -4.9221  -4.9130
    -4.9130  -4.8786  -4.8778  -4.8778  -4.8657  -4.8620  -4.8575  -4.8575
    -4.8557  -4.8494  -4.8494  -4.8401  -4.8401  -4.8372  -4.8289  -4.8289
    -4.8175  -4.8175  -4.8164  -4.8074  -4.8074  -4.8049  -4.8040  -4.8040
    -4.7909  -4.7909  -4.7872  -4.7776  -4.7595  -4.7249  -4.7227  -4.7227
    -4.6975  -4.6975  -4.6809  -4.6809  -4.6506  -4.6315  -4.6315  -4.4971
    -4.4045  -4.3704  -3.9570  -3.9475  -3.9400  -3.9400  -3.9317  -3.9317
    -3.9233  -3.9233  -3.9193  -3.9193  -3.9137  -3.9123  -3.8803  -3.8803
    -3.8628  -3.8628  -3.8190  -3.7782  -3.7707  -3.7707  -3.7668  -3.7439
    -3.7439  -3.7236  -3.7236  -3.7178  -3.7050  -3.6985  -3.6984  -3.6755
    -3.6755  -3.6530  -3.6395  -3.6198  -3.6114  -3.6114  -3.5918  -3.5230
    -3.5230  -3.3578  -3.3394  -3.3328  -3.3328  -3.3241  -3.3241  -3.3173
    -3.2960  -3.2817  -3.2817  -3.2568  -3.2568  -3.2486  -3.2486  -3.2382
    -3.2339  -3.2339  -3.2186  -3.2115  -3.2115  -3.1932  -3.1495  -3.1495
    -3.1242  -3.0503  -3.0503  -3.0349  -2.9429  -2.9429  -2.8986  -2.7188
    -2.6310  -2.6310  -2.6206   1.9592   2.1634   2.1634   2.1647   2.1717
     2.1717   2.1779   2.4596   2.4596   2.4704   2.6106   2.6301   2.6301
     2.6778   2.6778   2.6997   2.6997   2.7074   2.7134   2.7134   2.7150
     2.7418   2.7418   2.7545   2.7546   2.7549   2.7719   2.7728   2.7728
     2.7773   2.7942   2.8223   2.8224   2.8740   3.0464   3.0464   3.0874
     3.1173   3.1173   3.1489   3.1912   3.1912   3.2051   3.2051   3.2115
     3.2339   3.2381   3.2381   3.2664   3.2935   3.2935   3.4035   3.4304
     3.4436   3.4523   3.4564   3.4565   3.4652   3.4792   3.4792   3.5108
     3.5109   3.5459   3.5459   3.5560   3.5587   3.5588   3.6650   3.7316
     3.7383   3.7383   3.7824   3.7982   3.7982   4.5564   4.6806   4.6807
     4.7054   4.7476   4.7586   4.7663   4.7663   4.7756   4.7757   4.7937
     4.7937   4.8016   4.8194   4.8194   4.8210   4.8344   4.8345   4.8407
     4.8408   4.8435   4.8618   4.8619   4.8620   4.8728   4.8729   4.8833
     4.9005   4.9159   4.9159   4.9740   4.9741   5.0084   5.0205   5.0241
     5.0470   5.0470   5.0552   5.0792   5.0792   5.0792   5.0961   5.0961
     5.3293   5.3293   5.6487   5.7513   5.7593   5.7594   5.7878   5.7878
     5.7918   5.8017   5.8135   5.8135   5.8412   5.8471   5.8471   5.8564
     5.8565   5.9016   5.9129   5.9130   5.9535   5.9564   5.9602   5.9655
     5.9672   5.9673   5.9888   5.9888   6.0032   6.0032   6.0123   6.0199
     6.0199   6.0395   6.0395   6.0594   6.0605   6.0605   6.0870   6.1641
     6.1641   6.2590   6.2809   6.2810   6.2901   6.2901   6.2985   6.3106
     6.3386   6.3387   6.3456   6.3457   6.3600   6.3825   6.4231   6.4266
     6.4266   6.4824   6.5253   6.5253   6.5552   6.6209   6.6209   6.6405
     6.6666   6.6841   6.6921   6.6921   6.7535   6.7535   6.7540   6.7710
     6.7894   6.7895   6.8292   6.8292   6.8622   6.8734   6.8734   6.9292
     6.9412   6.9412   7.0641   7.0750   7.0750   7.0952   7.1047   7.1047
     7.1171   7.1332   7.1333   7.1352   7.1540   7.1698   7.1699   7.1868
     7.1868   7.1899   7.1950   7.1950   7.2288   7.2423   7.2423   7.2831
     7.3336   7.3336   7.3411   7.3411   7.3510   7.3702   7.3816   7.3816
     7.4066   7.4066   7.4090   7.4536   7.4720   7.4762   7.4764   7.4764
     7.4938   7.4938   7.5186   7.5186   7.5461   7.5461   7.6419   7.6488
     7.6488   7.6639   7.6640   7.7129   7.7314   7.7314   7.7672   7.7751
     7.7751   7.7911   7.8009   7.8068   7.8069   7.8184   7.8184   7.8581
     7.9009   7.9010   7.9140   7.9141   7.9284   7.9657   7.9657   7.9716
     8.0490   8.0490   8.1329   8.1329   8.1962   8.2095   8.2096   8.2567
     8.3653   8.3653   8.4177   8.4181   8.4182   8.5836   8.6321   8.6322
     9.2749   9.3707   9.3707  10.2104  11.8919  11.9420  12.5203  12.5494
    12.5769  12.5770  12.6189  12.6189  12.6638  12.6819  12.7049  12.7049
    12.7086  12.7339  12.7339  12.7614  12.8254  12.9421  12.9690  12.9690
    13.0042  13.0043  13.0055  13.0348  13.0348  13.0884  13.0951  13.0951
    13.2931  13.5583  13.5584  13.5641  13.5764  13.5764  13.5950  13.7914
    13.7915  13.8384  13.9216  13.9216  13.9529  14.1814  14.1869  14.1869
    14.1977  14.1978  14.2063  14.2092  14.2092  14.2117  14.2117  14.2164
    14.2318  14.2396  14.2397  14.2426  14.2426  14.2559  14.2614  14.2614
    14.2672  14.2985  14.3173  14.3173  14.3586  14.3893  14.3894  14.4016
    14.5255  14.5256  14.5739  14.5811  14.5939  14.5939  14.6269  14.6270
    14.6805  14.7202  14.7296  14.7297  14.7528  14.7528  14.7548  14.7563
    14.7594  14.7594  14.7949  14.7949  14.8336  14.8340  14.8340  14.8751
    14.8909  14.9165  14.9165  15.0658  15.0658  15.4101  15.7546  15.7677
    15.7677  15.7706  15.7706  15.7761  15.7853  15.7853  15.7894  15.7947
    15.7947  15.8335  15.9434  15.9435  15.9483  15.9787  15.9787  15.9827
    15.9827  15.9831  16.0005  16.0039  16.0039  16.0191  16.0191  16.0237
    16.0505  16.0753  16.0767  16.0767  16.2357  16.2357  16.2495  16.2590
    16.2590  16.2753  16.2797  16.2836  16.2911  16.2911  16.2992  16.2992
    16.3035  16.3035  16.3062  16.3133  16.3133  16.3171  16.3615  16.3615
    16.3666  16.3700  16.3917  16.4007  16.4007  16.4193  16.4207  16.4207
    16.4235  16.4236  16.4289  16.4491  16.4508  16.4508  16.4935  16.4935
    16.5070  16.5280  16.5280  16.5399  16.5399  16.5700  16.6319

     occupation numbers 
     1.0000   1.0000   1.0000   1.0000   1.0000   1.0000   1.0000   1.0000
     1.0000   1.0000   1.0000   1.0000   1.0000   1.0000   1.0000   1.0000
     1.0000   1.0000   1.0000   1.0000   1.0000   1.0000   1.0000   1.0000
     1.0000   1.0000   1.0000   1.0000   1.0000   1.0000   1.0000   1.0000
     1.0000   1.0000   1.0000   1.0000   1.0000   1.0000   1.0000   1.0000
     1.0000   1.0000   1.0000   1.0000   1.0000   1.0000   1.0000   1.0000
     1.0000   1.0000   1.0000   1.0000   1.0000   1.0000   1.0000   1.0000
     1.0000   1.0000   1.0000   1.0000   1.0000   1.0000   1.0000   1.0000
     1.0000   1.0000   1.0000   1.0000   1.0000   1.0000   1.0000   1.0000
     1.0000   1.0000   1.0000   1.0000   1.0000   1.0000   1.0000   1.0000
     1.0000   1.0000   1.0000   1.0000   1.0000   1.0000   1.0000   1.0000
     1.0000   1.0000   1.0000   1.0000   1.0000   1.0000   1.0000   1.0000
     1.0000   1.0000   1.0000   1.0000   1.0000   1.0000   1.0000   1.0000
     1.0000   1.0000   1.0000   1.0000   1.0000   1.0000   1.0000   1.0000
     1.0000   1.0000   1.0000   1.0000   1.0000   1.0000   1.0000   1.0000
     1.0000   1.0000   1.0000   1.0000   1.0000   1.0000   1.0000   1.0000
     1.0000   1.0000   1.0000   1.0000   1.0000   1.0000   1.0000   1.0000
     1.0000   1.0000   1.0000   1.0000   1.0000   1.0000   1.0000   1.0000
     1.0000   1.0000   1.0000   1.0000   1.0000   1.0000   1.0000   1.0000
     1.0000   1.0000   1.0000   1.0000   1.0000   1.0000   1.0000   1.0000
     1.0000   1.0000   1.0000   1.0000   1.0000   1.0000   1.0000   1.0000
     1.0000   1.0000   1.0000   1.0000   1.0000   1.0000   1.0000   1.0000
     1.0000   1.0000   1.0000   1.0000   1.0000   1.0000   1.0000   1.0000
     1.0000   1.0000   1.0000   1.0000   1.0000   1.0000   1.0000   1.0000
     1.0000   1.0000   1.0000   1.0000   1.0000   1.0000   1.0000   1.0000
     1.0000   1.0000   1.0000   1.0000   1.0000   1.0000   1.0000   1.0000
     1.0000   1.0000   1.0000   1.0000   1.0000   1.0000   1.0000   1.0000
     1.0000   1.0000   1.0000   1.0000   1.0000   1.0000   1.0000   1.0000
     1.0000   1.0000   1.0000   1.0000   1.0000   1.0000   1.0000   1.0000
     1.0000   1.0000   1.0000   1.0000   1.0000   1.0000   1.0000   1.0000
     1.0000   1.0000   1.0000   1.0000   1.0000   1.0000   1.0000   1.0000
     1.0000   1.0000   1.0000   1.0000   1.0000   1.0000   1.0000   1.0000
     1.0000   1.0000   1.0000   1.0000   1.0000   1.0000   1.0000   1.0000
     1.0000   1.0000   1.0000   1.0000   1.0000   1.0000   1.0000   1.0000
     1.0000   1.0000   1.0000   1.0000   1.0000   1.0000   1.0000   1.0000
     1.0000   1.0000   1.0000   1.0000   1.0000   1.0000   1.0000   1.0000
     1.0000   1.0000   1.0000   1.0000   1.0000   1.0000   1.0000   1.0000
     1.0000   1.0000   1.0000   1.0000   1.0000   1.0000   1.0000   1.0000
     1.0000   1.0000   1.0000   1.0000   1.0000   1.0000   1.0000   1.0000
     1.0000   1.0000   1.0000   1.0000   1.0000   1.0000   1.0000   1.0000
     1.0000   1.0000   1.0000   1.0000   1.0000   1.0000   1.0000   1.0000
     1.0000   1.0000   1.0000   1.0000   1.0000   1.0000   1.0000   1.0000
     1.0000   1.0000   1.0000   1.0000   1.0000   1.0000   1.0000   1.0000
     1.0000   1.0000   1.0000   1.0000   1.0000   1.0000   1.0000   1.0000
     1.0000   1.0000   1.0000   1.0000   1.0000   1.0000   1.0000   1.0000
     1.0000   1.0000   1.0000   1.0000   1.0000   1.0000   1.0000   1.0000
     1.0000   1.0000   1.0000   1.0000   1.0000   1.0000   1.0000   1.0000
     1.0000   1.0000   1.0000   1.0000   1.0000   1.0000   1.0000   1.0000
     1.0000   1.0000   1.0000   1.0000   1.0000   1.0000   1.0000   1.0000
     1.0000   1.0000   1.0000   1.0000   1.0000   1.0000   1.0000   1.0000
     1.0000   1.0000   1.0000   1.0000   1.0000   1.0000   1.0000   1.0000
     1.0000   1.0000   1.0000   1.0000   1.0000   1.0000   1.0000   1.0000
     1.0000   1.0000   1.0000   1.0000   1.0000   1.0000   1.0000   1.0000
     1.0000   1.0000   1.0000   1.0000   1.0000   1.0000   1.0000   1.0000
     1.0000   1.0000   1.0000   1.0000   1.0000   1.0000   1.0000   1.0000
     1.0000   1.0000   1.0000   1.0000   1.0000   1.0000   1.0000   1.0000
     1.0000   1.0000   1.0000   1.0000   1.0000   1.0000   1.0000   1.0000
     1.0000   1.0000   1.0000   1.0000   1.0000   1.0000   1.0000   1.0000
     1.0000   1.0000   1.0000   1.0000   1.0000   1.0000   1.0000   1.0000
     1.0000   1.0000   1.0000   1.0000   1.0000   1.0000   1.0000   1.0000
     1.0000   1.0000   1.0000   1.0000   1.0000   1.0000   1.0000   1.0000
     1.0000   1.0000   1.0000   1.0000   1.0000   1.0000   1.0000   1.0000
     1.0000   1.0000   1.0000   1.0000   1.0000   1.0000   1.0000   1.0000
     1.0000   1.0000   1.0000   1.0000   1.0000   1.0000   1.0000   1.0000
     1.0000   1.0000   1.0000   1.0000   1.0000   1.0000   1.0000   1.0000
     1.0000   1.0000   1.0000   1.0000   1.0000   1.0000   1.0000   1.0000
     1.0000   1.0000   1.0000   1.0000   1.0000   1.0000   1.0000   1.0000
     1.0000   1.0000   1.0000   1.0000   1.0000   1.0000   1.0000   1.0000
     1.0000   1.0000   1.0000   1.0000   1.0000   1.0000   1.0000   1.0000
     1.0000   1.0000   1.0000   1.0000   1.0000   1.0000   1.0000   1.0000
     1.0000   1.0000   1.0000   1.0000   1.0000   1.0000   1.0000   1.0000
     1.0000   1.0000   1.0000   1.0000   1.0000   1.0000   1.0000   1.0000
     1.0000   1.0000   1.0000   1.0000   1.0000   1.0000   1.0000   1.0000
     1.0000   1.0000   1.0000   1.0000   1.0000   1.0000   1.0000   1.0000
     1.0000   1.0000   1.0000   1.0000   1.0000   1.0000   1.0000   1.0000
     1.0000   1.0000   1.0000   1.0000   1.0000   1.0000   1.0000   1.0000
     1.0000   1.0000   1.0000   1.0000   1.0000   1.0000   1.0000   1.0000
     1.0000   1.0000   1.0000   1.0000   1.0000   1.0000   1.0000   1.0000
     1.0000   1.0000   1.0000   1.0000   1.0000   1.0000   1.0000   1.0000
     1.0000   1.0000   1.0000   1.0000   1.0000   1.0000   1.0000   1.0000
     1.0000   1.0000   1.0000   1.0000   1.0000   1.0000   1.0000   1.0000
     1.0000   1.0000   1.0000   1.0000   1.0000   1.0000   1.0000   1.0000
     1.0000   1.0000   1.0000   1.0000   1.0000   1.0000   1.0000   1.0000
     1.0000   1.0000   1.0000   1.0000   1.0000   1.0000   1.0000   1.0000
     1.0000   1.0000   1.0000   1.0000   1.0000   1.0000   1.0000   1.0000
     1.0000   1.0000   1.0000   1.0000   1.0000   1.0000   1.0000   1.0000
     1.0000   1.0000   1.0000   1.0000   1.0000   1.0000   1.0000   1.0000
     1.0000   1.0000   1.0000   1.0000   1.0000   1.0000   1.0000   1.0000
     1.0000   1.0000   1.0000   1.0000   1.0000   1.0000   1.0000   1.0000
     1.0000   1.0000   1.0000   1.0000   1.0000   1.0000   1.0000   1.0000
     1.0000   1.0000   1.0000   1.0000   1.0000   1.0000   1.0000   1.0000
     1.0000   1.0000   1.0000   1.0000   1.0000   1.0000   1.0000   1.0000
     1.0000   1.0000   1.0000   1.0000   1.0000   1.0000   1.0000   1.0000
     1.0000   1.0000   1.0000   1.0000   1.0000   1.0000   1.0000   1.0000
     1.0000   1.0000   1.0000   1.0000   1.0000   1.0000   1.0000   1.0000
     1.0000   1.0000   1.0000   1.0000   1.0000   1.0000   1.0000   1.0000
     1.0000   1.0000   1.0000   1.0000   1.0000   1.0000   1.0000   1.0000
     1.0000   1.0000   1.0000   1.0000   1.0000   1.0000   1.0000   1.0000
     1.0000   1.0000   1.0000   1.0000   1.0000   1.0000   1.0000   1.0000
     1.0000   1.0000   1.0000   1.0000   1.0000   1.0000   1.0000   1.0000
     1.0000   1.0000   1.0000   1.0000   1.0000   1.0000   1.0000   1.0000
     1.0000   1.0000   1.0000   1.0000   1.0000   1.0000   1.0000   1.0000
     1.0000   1.0000   1.0000   1.0000   1.0000   1.0000   1.0000   1.0000
     1.0000   1.0000   1.0000   1.0000   1.0000   1.0000   1.0000   1.0000
     1.0000   1.0000   1.0000   1.0000   1.0000   1.0000   1.0000   1.0000
     1.0000   1.0000   1.0000   1.0000   1.0000   1.0000   1.0000   1.0000
     1.0000   1.0000   1.0000   1.0000   1.0000   1.0000   1.0000   1.0000
     0.9208   0.6607   0.6607   0.0000   0.0000   0.0000   0.0000   0.0000
     0.0000   0.0000   0.0000   0.0000   0.0000   0.0000   0.0000   0.0000
     0.0000   0.0000   0.0000   0.0000   0.0000   0.0000   0.0000   0.0000
     0.0000   0.0000   0.0000   0.0000   0.0000   0.0000   0.0000   0.0000
     0.0000   0.0000   0.0000   0.0000   0.0000   0.0000   0.0000   0.0000
     0.0000   0.0000   0.0000   0.0000   0.0000   0.0000   0.0000   0.0000
     0.0000   0.0000   0.0000   0.0000   0.0000   0.0000   0.0000   0.0000
     0.0000   0.0000   0.0000   0.0000   0.0000   0.0000   0.0000   0.0000
     0.0000   0.0000   0.0000   0.0000   0.0000   0.0000   0.0000   0.0000
     0.0000   0.0000   0.0000   0.0000   0.0000   0.0000   0.0000   0.0000
     0.0000   0.0000   0.0000   0.0000   0.0000   0.0000   0.0000   0.0000
     0.0000   0.0000   0.0000   0.0000   0.0000   0.0000   0.0000   0.0000
     0.0000   0.0000   0.0000   0.0000   0.0000   0.0000   0.0000   0.0000
     0.0000   0.0000   0.0000   0.0000   0.0000   0.0000   0.0000   0.0000
     0.0000   0.0000   0.0000   0.0000   0.0000   0.0000   0.0000   0.0000
     0.0000   0.0000   0.0000   0.0000   0.0000   0.0000   0.0000   0.0000
     0.0000   0.0000   0.0000   0.0000   0.0000   0.0000   0.0000   0.0000
     0.0000   0.0000   0.0000   0.0000   0.0000   0.0000   0.0000   0.0000
     0.0000   0.0000   0.0000   0.0000   0.0000   0.0000   0.0000   0.0000
     0.0000   0.0000   0.0000   0.0000   0.0000   0.0000   0.0000   0.0000
     0.0000   0.0000   0.0000   0.0000   0.0000   0.0000   0.0000   0.0000
     0.0000   0.0000   0.0000   0.0000   0.0000   0.0000   0.0000

          k = 0.0000 0.0000-0.4090 (154532 PWs)   bands (ev):

    -6.9844  -6.8899  -6.7203  -6.7131  -6.7131  -6.6939  -6.6939  -6.6736
    -6.6681  -6.6588  -6.6478  -6.6423  -6.6423  -6.6095  -6.6095  -6.5947
    -6.5929  -6.5928  -6.5826  -6.5810  -6.5796  -6.5783  -6.5783  -6.5750
    -6.5750  -6.5671  -6.5671  -6.5587  -6.5580  -6.5579  -6.5540  -6.5490
    -6.5486  -6.5486  -6.5450  -6.5450  -6.5442  -6.5371  -6.5371  -6.5356
    -6.5356  -6.5331  -6.5324  -6.5296  -6.5199  -6.5199  -6.5195  -6.5170
    -6.5115  -6.5114  -6.5061  -6.5061  -6.5040  -6.4955  -6.4955  -6.4919
    -6.4875  -6.4875  -6.4874  -6.4837  -6.4837  -6.4746  -6.4677  -6.4654
    -6.4654  -6.4617  -6.4616  -6.4493  -6.4432  -6.4404  -6.4404  -6.4109
    -6.4107  -6.4107  -6.4046  -6.4046  -6.3831  -6.3831  -6.3795  -6.3751
    -6.3739  -6.3739  -6.3515  -6.3515  -6.3497  -6.3381  -6.3381  -6.3373
    -6.3231  -6.3222  -6.3222  -6.2799  -5.9446  -5.9198  -5.9198  -5.9144
    -5.4940  -5.4940  -5.4691  -5.4675  -5.4659  -5.4659  -5.4631  -5.4631
    -5.4620  -5.4578  -5.4578  -5.4568  -5.4510  -5.4510  -5.4495  -5.4488
    -5.4488  -5.4444  -5.4418  -5.4418  -5.4375  -5.4375  -5.4353  -5.4353
    -5.4349  -5.4331  -5.4331  -5.4304  -5.4249  -5.4249  -5.4222  -5.4213
    -5.4202  -5.4202  -5.4175  -5.4167  -5.4167  -5.4109  -5.4059  -5.4059
    -5.4029  -5.4022  -5.4022  -5.4017  -5.3984  -5.3966  -5.3966  -5.3953
    -5.3947  -5.3932  -5.3932  -5.3908  -5.3899  -5.3899  -5.3892  -5.3892
    -5.3863  -5.3863  -5.3834  -5.3834  -5.3820  -5.3814  -5.3814  -5.3809
    -5.3763  -5.3755  -5.3755  -5.3741  -5.3737  -5.3737  -5.3715  -5.3715
    -5.3691  -5.3667  -5.3667  -5.3650  -5.3650  -5.3637  -5.3630  -5.3630
    -5.3616  -5.3601  -5.3600  -5.3600  -5.3560  -5.3541  -5.3541  -5.3529
    -5.3511  -5.3511  -5.3456  -5.3454  -5.3454  -5.3423  -5.3423  -5.3411
    -5.3402  -5.3390  -5.3372  -5.3372  -5.3361  -5.3355  -5.3355  -5.3338
    -5.3338  -5.3306  -5.3306  -5.3303  -5.3302  -5.3300  -5.3300  -5.3283
    -5.3247  -5.3247  -5.3229  -5.3228  -5.3228  -5.3221  -5.3200  -5.3200
    -5.3193  -5.3164  -5.3164  -5.3141  -5.3130  -5.3128  -5.3128  -5.3099
    -5.3097  -5.3097  -5.3082  -5.3082  -5.3079  -5.3065  -5.3053  -5.3053
    -5.3043  -5.3036  -5.3036  -5.3030  -5.3030  -5.2996  -5.2996  -5.2975
    -5.2969  -5.2969  -5.2961  -5.2961  -5.2959  -5.2937  -5.2937  -5.2927
    -5.2918  -5.2918  -5.2898  -5.2898  -5.2897  -5.2888  -5.2858  -5.2849
    -5.2848  -5.2828  -5.2822  -5.2822  -5.2808  -5.2796  -5.2796  -5.2787
    -5.2787  -5.2786  -5.2782  -5.2768  -5.2758  -5.2758  -5.2733  -5.2733
    -5.2708  -5.2692  -5.2692  -5.2691  -5.2675  -5.2675  -5.2674  -5.2653
    -5.2653  -5.2645  -5.2631  -5.2631  -5.2579  -5.2578  -5.2578  -5.2574
    -5.2574  -5.2566  -5.2559  -5.2559  -5.2550  -5.2548  -5.2548  -5.2530
    -5.2510  -5.2510  -5.2503  -5.2497  -5.2490  -5.2490  -5.2468  -5.2468
    -5.2452  -5.2452  -5.2451  -5.2415  -5.2415  -5.2407  -5.2407  -5.2406
    -5.2402  -5.2380  -5.2361  -5.2361  -5.2361  -5.2344  -5.2344  -5.2323
    -5.2309  -5.2308  -5.2308  -5.2283  -5.2283  -5.2267  -5.2267  -5.2267
    -5.2240  -5.2240  -5.2211  -5.2211  -5.2199  -5.2199  -5.2184  -5.2183
    -5.2183  -5.2159  -5.2154  -5.2142  -5.2142  -5.2111  -5.2111  -5.2092
    -5.2083  -5.2083  -5.2067  -5.2055  -5.2055  -5.2041  -5.2030  -5.2030
    -5.2010  -5.2007  -5.2006  -5.1986  -5.1986  -5.1971  -5.1971  -5.1948
    -5.1935  -5.1935  -5.1930  -5.1901  -5.1894  -5.1894  -5.1882  -5.1869
    -5.1869  -5.1840  -5.1840  -5.1809  -5.1809  -5.1789  -5.1789  -5.1775
    -5.1775  -5.1768  -5.1763  -5.1733  -5.1706  -5.1706  -5.1695  -5.1682
    -5.1679  -5.1679  -5.1654  -5.1654  -5.1612  -5.1598  -5.1573  -5.1573
    -5.1568  -5.1546  -5.1522  -5.1520  -5.1520  -5.1476  -5.1476  -5.1428
    -5.1428  -5.1425  -5.1425  -5.1369  -5.1334  -5.1319  -5.1319  -5.1318
    -5.1318  -5.1306  -5.1257  -5.1202  -5.1179  -5.1179  -5.1168  -5.1143
    -5.1143  -5.1106  -5.1106  -5.1078  -5.1078  -5.1041  -5.0875  -5.0875
    -5.0829  -5.0727  -5.0727  -5.0682  -5.0549  -5.0503  -5.0477  -5.0477
    -5.0353  -5.0353  -5.0035  -5.0035  -4.9969  -4.9936  -4.9861  -4.9861
    -4.9814  -4.9756  -4.9756  -4.9712  -4.9712  -4.9550  -4.9550  -4.9425
    -4.9392  -4.9316  -4.9316  -4.9268  -4.9266  -4.9266  -4.9223  -4.9223
    -4.9097  -4.8983  -4.8913  -4.8825  -4.8825  -4.8760  -4.8620  -4.8599
    -4.8598  -4.8512  -4.8512  -4.8475  -4.8475  -4.8470  -4.8333  -4.8322
    -4.8322  -4.8277  -4.8277  -4.8211  -4.8164  -4.8158  -4.8158  -4.8105
    -4.8105  -4.8049  -4.7936  -4.7936  -4.7888  -4.7888  -4.7872  -4.7776
    -4.7736  -4.7735  -4.6928  -4.4198  -4.4061  -4.3908  -4.3907  -4.3828
    -4.3828  -4.3359  -4.3359  -4.3202  -4.3202  -4.2796  -4.1531  -3.9296
    -3.9265  -3.9265  -3.9079  -3.9078  -3.9050  -3.9032  -3.8273  -3.8245
    -3.8245  -3.7969  -3.7969  -3.7716  -3.7701  -3.7672  -3.7672  -3.7630
    -3.6371  -3.6371  -3.6009  -3.5411  -3.5369  -3.5369  -3.5298  -3.5262
    -3.5262  -3.5223  -3.5223  -3.5168  -3.5168  -3.5082  -3.4821  -3.4821
    -3.4802  -3.4792  -3.4792  -3.4686  -3.4487  -3.4477  -3.4477  -3.4409
    -3.4242  -3.4242  -3.3851  -3.3652  -3.3652  -3.3188  -3.3188  -3.2842
    -3.2269  -3.2269  -3.2076  -3.1288  -3.1042  -3.1042  -3.0905  -3.0905
    -3.0596  -3.0550  -3.0515  -3.0515  -2.9816  -2.9816  -2.9322  -2.7145
    -2.6377  -2.6377  -2.6303   2.2182   2.2182   2.2194   2.2684   2.2684
     2.2715   2.3318   2.3391   2.3521   2.3521   2.4208   2.4209   2.4422
     2.4625   2.8006   2.8006   2.8179   2.8179   2.8204   2.8258   2.8286
     2.8313   2.8313   2.8412   2.8412   2.8536   2.8536   2.8582   2.8748
     2.8748   2.8757   2.8862   2.8903   2.8903   2.8988   2.9002   2.9071
     2.9071   2.9425   2.9426   2.9779   2.9853   2.9853   3.0238   3.0239
     3.0549   3.0847   3.0847   3.0897   3.1814   3.1910   3.1911   3.2738
     3.3162   3.3163   3.5135   3.5135   3.5215   3.5240   3.5505   3.5505
     3.5597   3.6344   3.6345   3.6505   3.7217   3.7217   4.0907   4.1091
     4.1162   4.1293   4.1293   4.1447   4.1447   4.1974   4.1975   4.2201
     4.2201   4.2690   4.6973   4.7845   4.7910   4.7972   4.7972   4.8162
     4.8162   4.8733   4.8923   4.8923   4.8959   4.9005   4.9514   4.9534
     4.9534   4.9587   4.9637   4.9638   4.9898   4.9898   5.0059   5.0497
     5.0498   5.0534   5.0783   5.0885   5.0885   5.1220   5.1220   5.1568
     5.1708   5.1708   5.2613   5.2613   5.2685   5.2862   5.2986   5.2986
     5.3344   5.3344   5.3878   5.4319   5.4319   5.4331   5.4571   5.4613
     5.4726   5.4826   5.4826   5.4923   5.4923   5.4970   5.5311   5.5311
     5.5359   5.5494   5.5494   5.5614   5.5615   5.5748   5.6136   5.6492
     5.6493   5.6632   5.6632   5.8209   5.8365   5.8365   6.1015   6.1033
     6.1034   6.2415   6.2714   6.2714   6.4254   6.4270   6.4317   6.4317
     6.4761   6.4859   6.4859   6.5258   6.5580   6.5581   6.6438   6.6525
     6.6568   6.6568   6.6638   6.6639   6.6915   6.7042   6.7042   6.7151
     6.7151   6.7428   6.7428   6.7597   6.7845   6.7876   6.7877   6.7948
     6.7948   6.7989   6.8031   6.8031   6.8141   6.8141   6.8164   6.8208
     6.8247   6.8311   6.8375   6.8375   6.8420   6.8420   6.8861   6.8967
     6.8968   6.9182   6.9377   6.9377   6.9538   6.9553   6.9569   6.9570
     6.9958   7.0068   7.0068   7.0265   7.0265   7.0301   7.0324   7.0324
     7.0504   7.0504   7.0584   7.0897   7.0904   7.0904   7.1236   7.1246
     7.1246   7.1612   7.1671   7.1672   7.2079   7.2334   7.2334   7.3793
     7.3793   7.4067   7.4177   7.4178   7.4373   7.4448   7.4582   7.4582
     7.4597   7.4629   7.4629   7.5143   7.5190   7.5190   7.5614   7.5614
     7.6708   7.6709   7.7013   7.7086   7.7448   7.7448   7.7728   7.8019
     7.8560   7.8764   7.8765   7.8972   7.9082   7.9083   7.9369   7.9369
     7.9469   7.9470   8.0028   8.0092   8.0092   8.0242   8.0267   8.0268
     8.0326   8.0630   8.0631   8.1402   8.1513   8.1514   8.1723   8.1723
     8.1846   8.1847   8.2171   8.4499   8.5373   8.5373   8.5937   8.5938
     9.2336   9.3697   9.3698  10.8804  10.9943  12.4882  12.5215  12.5649
    12.5873  12.5874  12.5926  12.6318  12.6318  12.6437  12.6625  12.6907
    12.6907  12.7556  12.7557  12.7841  12.9234  12.9760  12.9761  12.9873
    12.9873  12.9942  13.0071  13.2185  13.2186  13.2281  13.2917  13.2918
    13.3585  13.6119  13.6338  13.6338  13.6423  13.6523  13.6523  13.6814
    13.6866  13.6867  13.6931  13.6932  13.7251  13.7252  13.7365  13.8364
    13.8861  13.8862  13.9654  14.2624  14.2773  14.2774  14.2832  14.2833
    14.2951  14.2970  14.3069  14.3070  14.3165  14.3165  14.3226  14.3226
    14.3278  14.3565  14.3908  14.3942  14.3942  14.4283  14.4359  14.4359
    14.5236  14.5236  14.5326  14.5326  14.5562  14.6044  14.6044  14.6066
    14.6385  14.6385  14.6423  14.6535  14.6697  14.6697  14.7212  14.7212
    14.7261  14.7698  14.7774  14.7871  14.7871  14.8304  14.8319  14.8319
    15.0565  15.0566  15.3110  15.5282  15.5283  15.5447  15.5607  15.5607
    15.6174  15.8262  15.8301  15.8301  15.8336  15.8364  15.8364  15.9149
    15.9149  15.9286  15.9520  15.9579  15.9579  16.0215  16.0215  16.0326
    16.0486  16.0486  16.0521  16.0536  16.0536  16.0553  16.0553  16.0609
    16.0713  16.0717  16.0845  16.0845  16.0881  16.1131  16.1131  16.1460
    16.1460  16.1495  16.1654  16.1654  16.1880  16.2084  16.2084  16.2347
    16.2371  16.2371  16.2908  16.3145  16.3145  16.3149  16.3224  16.3238
    16.3238  16.3689  16.3689  16.3750  16.3803  16.3877  16.4064  16.4064
    16.4064  16.4107  16.4107  16.4443  16.4471  16.4471  16.5038  16.5038
    16.5214  16.5215  16.5775  16.6315  16.6315  16.6865  16.6865

     occupation numbers 
     1.0000   1.0000   1.0000   1.0000   1.0000   1.0000   1.0000   1.0000
     1.0000   1.0000   1.0000   1.0000   1.0000   1.0000   1.0000   1.0000
     1.0000   1.0000   1.0000   1.0000   1.0000   1.0000   1.0000   1.0000
     1.0000   1.0000   1.0000   1.0000   1.0000   1.0000   1.0000   1.0000
     1.0000   1.0000   1.0000   1.0000   1.0000   1.0000   1.0000   1.0000
     1.0000   1.0000   1.0000   1.0000   1.0000   1.0000   1.0000   1.0000
     1.0000   1.0000   1.0000   1.0000   1.0000   1.0000   1.0000   1.0000
     1.0000   1.0000   1.0000   1.0000   1.0000   1.0000   1.0000   1.0000
     1.0000   1.0000   1.0000   1.0000   1.0000   1.0000   1.0000   1.0000
     1.0000   1.0000   1.0000   1.0000   1.0000   1.0000   1.0000   1.0000
     1.0000   1.0000   1.0000   1.0000   1.0000   1.0000   1.0000   1.0000
     1.0000   1.0000   1.0000   1.0000   1.0000   1.0000   1.0000   1.0000
     1.0000   1.0000   1.0000   1.0000   1.0000   1.0000   1.0000   1.0000
     1.0000   1.0000   1.0000   1.0000   1.0000   1.0000   1.0000   1.0000
     1.0000   1.0000   1.0000   1.0000   1.0000   1.0000   1.0000   1.0000
     1.0000   1.0000   1.0000   1.0000   1.0000   1.0000   1.0000   1.0000
     1.0000   1.0000   1.0000   1.0000   1.0000   1.0000   1.0000   1.0000
     1.0000   1.0000   1.0000   1.0000   1.0000   1.0000   1.0000   1.0000
     1.0000   1.0000   1.0000   1.0000   1.0000   1.0000   1.0000   1.0000
     1.0000   1.0000   1.0000   1.0000   1.0000   1.0000   1.0000   1.0000
     1.0000   1.0000   1.0000   1.0000   1.0000   1.0000   1.0000   1.0000
     1.0000   1.0000   1.0000   1.0000   1.0000   1.0000   1.0000   1.0000
     1.0000   1.0000   1.0000   1.0000   1.0000   1.0000   1.0000   1.0000
     1.0000   1.0000   1.0000   1.0000   1.0000   1.0000   1.0000   1.0000
     1.0000   1.0000   1.0000   1.0000   1.0000   1.0000   1.0000   1.0000
     1.0000   1.0000   1.0000   1.0000   1.0000   1.0000   1.0000   1.0000
     1.0000   1.0000   1.0000   1.0000   1.0000   1.0000   1.0000   1.0000
     1.0000   1.0000   1.0000   1.0000   1.0000   1.0000   1.0000   1.0000
     1.0000   1.0000   1.0000   1.0000   1.0000   1.0000   1.0000   1.0000
     1.0000   1.0000   1.0000   1.0000   1.0000   1.0000   1.0000   1.0000
     1.0000   1.0000   1.0000   1.0000   1.0000   1.0000   1.0000   1.0000
     1.0000   1.0000   1.0000   1.0000   1.0000   1.0000   1.0000   1.0000
     1.0000   1.0000   1.0000   1.0000   1.0000   1.0000   1.0000   1.0000
     1.0000   1.0000   1.0000   1.0000   1.0000   1.0000   1.0000   1.0000
     1.0000   1.0000   1.0000   1.0000   1.0000   1.0000   1.0000   1.0000
     1.0000   1.0000   1.0000   1.0000   1.0000   1.0000   1.0000   1.0000
     1.0000   1.0000   1.0000   1.0000   1.0000   1.0000   1.0000   1.0000
     1.0000   1.0000   1.0000   1.0000   1.0000   1.0000   1.0000   1.0000
     1.0000   1.0000   1.0000   1.0000   1.0000   1.0000   1.0000   1.0000
     1.0000   1.0000   1.0000   1.0000   1.0000   1.0000   1.0000   1.0000
     1.0000   1.0000   1.0000   1.0000   1.0000   1.0000   1.0000   1.0000
     1.0000   1.0000   1.0000   1.0000   1.0000   1.0000   1.0000   1.0000
     1.0000   1.0000   1.0000   1.0000   1.0000   1.0000   1.0000   1.0000
     1.0000   1.0000   1.0000   1.0000   1.0000   1.0000   1.0000   1.0000
     1.0000   1.0000   1.0000   1.0000   1.0000   1.0000   1.0000   1.0000
     1.0000   1.0000   1.0000   1.0000   1.0000   1.0000   1.0000   1.0000
     1.0000   1.0000   1.0000   1.0000   1.0000   1.0000   1.0000   1.0000
     1.0000   1.0000   1.0000   1.0000   1.0000   1.0000   1.0000   1.0000
     1.0000   1.0000   1.0000   1.0000   1.0000   1.0000   1.0000   1.0000
     1.0000   1.0000   1.0000   1.0000   1.0000   1.0000   1.0000   1.0000
     1.0000   1.0000   1.0000   1.0000   1.0000   1.0000   1.0000   1.0000
     1.0000   1.0000   1.0000   1.0000   1.0000   1.0000   1.0000   1.0000
     1.0000   1.0000   1.0000   1.0000   1.0000   1.0000   1.0000   1.0000
[...]



     -----------------------------------------------
     Non-local corr. energy    =      51.87809644 Ry
     -----------------------------------------------

          total   stress  (Ry/bohr**3)                   (kbar)     P=       22.00
   0.00014602   0.00000000   0.00000000           21.48        0.00        0.00
   0.00000000   0.00014602   0.00000000            0.00       21.48        0.00
   0.00000000   0.00000000   0.00015664            0.00        0.00       23.04

     kinetic stress (kbar)  18368.43     -0.00      0.00
                               -0.00  18368.43      0.00
                                0.00      0.00  18365.62

     local   stress (kbar)   4935.71     -0.07     -0.00
                               -0.07   4935.62      0.00
                               -0.00      0.00   3347.24

     nonloc. stress (kbar)     38.52     -0.00      0.00
                               -0.00     38.52     -0.00
                                0.00     -0.00     49.28

     hartree stress (kbar)  19607.59     -0.00     -0.00
                               -0.00  19607.59      0.00
                               -0.00      0.00  20332.82

     exc-cor stress (kbar)   5148.72      0.00     -0.00
                                0.00   5148.72      0.00
                               -0.00      0.00   5149.03

     corecor stress (kbar) -13970.04     -0.00     -0.00
                               -0.00 -13970.04      0.00
                               -0.00      0.00 -13969.58

     ewald   stress (kbar) -34268.14      0.09      0.00
                                0.09 -34268.02     -0.00
                                0.00     -0.00 -33411.21

     hubbard stress (kbar)      0.00      0.00      0.00
                                0.00      0.00      0.00
                                0.00      0.00      0.00

     DFT-D   stress (kbar)      0.00      0.00      0.00
                                0.00      0.00      0.00
                                0.00      0.00      0.00

     XDM     stress (kbar)      0.00      0.00      0.00
                                0.00      0.00      0.00
                                0.00      0.00      0.00

     dft-nl  stress (kbar)    160.68     -0.00     -0.00
                               -0.00    160.68     -0.00
                               -0.00     -0.00    159.83

     TS-vdW  stress (kbar)      0.00      0.00      0.00
                                0.00      0.00      0.00
                                0.00      0.00      0.00

     MDB     stress (kbar)      0.00      0.00      0.00
                                0.00      0.00      0.00
                                0.00      0.00      0.00

     3D-RISM stress (kbar)      0.00      0.00      0.00
                                0.00      0.00      0.00
                                0.00      0.00      0.00


     BFGS Geometry Optimization
     Energy error            =      0.0E+00 Ry
     Gradient error          =      6.2E-04 Ry/Bohr

     bfgs converged in   1 scf cycles and   0 bfgs steps
     (criteria: energy <  1.0E-04 Ry, force <  1.0E-03 Ry/Bohr)

     End of BFGS Geometry Optimization

     Final energy             =  -29694.6853467674 Ry
Begin final coordinates

ATOMIC_POSITIONS (angstrom)
Ga            1.6222756606        0.9366198184        7.8803235043
Ga            1.6222756606        0.9366198184       13.2289042421
Ga            0.0163682956        3.7088739480        2.6359629466
Ga           -0.0021162123        3.7421005236        7.9224091629
Ga            0.0019691973        3.7434065920       13.2223128826
Ga           -1.6213639983        6.5568671964        2.6419441135
Ga           -1.6240568755        6.5553124630        7.9212457929
Ga           -1.6241497030        6.5552588690       13.2270616894
Ga           -3.2689323542        9.3991815916        2.6359629466
Ga           -3.2493995495        9.3665602504        7.9224091629
Ga           -3.2462257563        9.3694452847       13.2223128826
Ga            4.8260718450        0.9412493279        2.6359629466
Ga            4.8640891576        0.9406440935        7.9224091629
Ga            4.8631775411        0.9364529908       13.2223128826
Ga            3.2281830256        3.7088739480        2.6359629466
Ga            3.2466675335        3.7421005236        7.9224091629
Ga            3.2425821239        3.7434065920       13.2223128826
Ga            1.6222756606        6.5499105070        2.6381814636
Ga            1.6222756606        6.5530688004        7.9226375495
Ga            1.6222756606        6.5538015686       13.2230555572
Ga           -0.0055688386        9.3694198864        2.6381814636
Ga           -0.0028336763        9.3678407397        7.9226375495
Ga           -0.0021990803        9.3674743556       13.2230555572
Ga            8.1113724947        0.9355704748        2.6419441135
Ga            8.1113724947        0.9386799416        7.9212457929
Ga            8.1113724947        0.9387871296       13.2270616894
Ga            6.4790948857        3.7407057055        2.6293671382
Ga            6.4879944015        3.7458438433        7.9203210586
Ga            6.4870495291        3.7452983210       13.2270273192
Ga            4.8659153195        6.5568671964        2.6419441135
Ga            4.8686081967        6.5553124630        7.9212457929
Ga            4.8687010242        6.5552588690       13.2270616894
Ga            3.2501201598        9.3694198864        2.6381814636
Ga            3.2473849975        9.3678407397        7.9226375495
Ga            3.2467504015        9.3674743556       13.2230555572
Ga           11.3966731445        0.9412493279        2.6359629466
Ga           11.3586558319        0.9406440935        7.9224091629
Ga           11.3595674484        0.9364529908       13.2223128826
Ga            9.7436501038        3.7407057055        2.6293671382
Ga            9.7347505880        3.7458438433        7.9203210586
Ga            9.7356954604        3.7452983210       13.2270273192
Ga            8.1113724947        6.5678934565        2.6293671382
Ga            8.1113724947        6.5576171809        7.9203210586
Ga            8.1113724947        6.5587082256       13.2270273192
Ga            6.5134836754        9.3991815916        2.6359629466
Ga            6.4939508707        9.3665602504        7.9224091629
Ga            6.4907770775        9.3694452847       13.2223128826
Ga            0.0288307635        1.8565958630        5.2489886285
Ga            0.0050986597        1.8702975996       10.5636306690
Ga            0.0120578062        1.8662797345       15.9070586234
Ga           -1.6158196704        4.6788508624        5.2735391965
Ga           -1.6209597962        4.6825101735       10.5736597559
Ga           -1.6109050338        4.6763758658       15.8779589123
Ga           -3.2450052821        7.5006831168        5.2735391965
Ga           -3.2444062887        7.4944019818       10.5736597559
Ga           -3.2446913737        7.5061768153       15.8779589123
Ga           -4.8668245904       10.3361196726        5.2489886285
Ga           -4.8668245904       10.3087161995       10.5636306690
Ga           -4.8668245904       10.3167519297       15.9070586234
Ga            3.2157137240        1.8565958630        5.2489886285
Ga            3.2394458278        1.8702975996       10.5636306690
Ga            3.2324866813        1.8662797345       15.9070586234
Ga            1.6222722437        4.6730355343        5.2759414862
Ga            1.6222722437        4.6825563953       10.5720389869
Ga            1.6222722437        4.6758379854       15.8658706115
Ga           -0.0002547737        7.4928191934        5.2781795703
Ga           -0.0002446615        7.4928250317       10.5726236665
Ga           -0.0014502109        7.4921290074       15.8667565559
Ga           -1.6309955469       10.3078606384        5.2759414862
Ga           -1.6227502393       10.3031002078       10.5720389869
Ga           -1.6285685529       10.3064594128       15.8658706115
Ga            6.4821834662        1.8697774196        5.2735391965
Ga            6.4879225854        1.8723992436       10.5736597559
Ga            6.4775827380        1.8667587177       15.8779589123
Ga            4.8603641579        4.6788508624        5.2735391965
Ga            4.8655042837        4.6825101735       10.5736597559
Ga            4.8554495213        4.6763758658       15.8779589123
Ga            3.2447992612        7.4928191934        5.2781795703
Ga            3.2447891490        7.4928250317       10.5726236665
Ga            3.2459946984        7.4921290074       15.8667565559
Ga            1.6222722437       10.3031184242        5.2781795703
Ga            1.6222722437       10.3031067477       10.5726236665
Ga            1.6222722437       10.3044987962       15.8667565559
Ga            9.7405546895        1.8697774196        5.2735391965
Ga            9.7348155703        1.8723992436       10.5736597559
Ga            9.7451554177        1.8667587177       15.8779589123
Ga            8.1113690779        4.6831037996        5.2708629896
Ga            8.1113690779        4.6831037996       10.5734371593
Ga            8.1113690779        4.6831037996       15.8700291931
Ga            6.4895497695        7.5006831168        5.2735391965
Ga            6.4889507761        7.4944019818       10.5736597559
Ga            6.4892358611        7.5061768153       15.8779589123
Ga            4.8755400344       10.3078606384        5.2759414862
Ga            4.8672947268       10.3031002078       10.5720389869
Ga            4.8731130404       10.3064594128       15.8658706115
N             1.6222756606        0.9366198184        4.7993028474
N             1.6222756606        0.9366198184        9.9017858589
N             1.6222756606        0.9366198184       15.1990954352
N            -0.0012872632        3.7528000773        4.6350842824
N            -0.0003647176        3.7500531518        9.9199172748
N             0.0039769488        3.7513811713       15.1950534256
N            -1.6211565288        6.5569869790        4.6368221848
N            -1.6221903461        6.5563901042        9.9176894345
N            -1.6238858363        6.5554112125       15.2115843006
N            -3.2397189897        9.3619283645        4.6350842824
N            -3.2416366242        9.3641007752        9.9199172748
N            -3.2383156923        9.3671967588       15.1950534256
N             4.8729407683        0.9345764257        4.6350842824
N             4.8701005882        0.9351509405        9.9199172748
N             4.8690798537        0.9307269374       15.1950534256
N             3.2458385844        3.7528000773        4.6350842824
N             3.2449160388        3.7500531518        9.9199172748
N             3.2405743724        3.7513811713       15.1950534256
N             1.6222756606        6.5564580045        4.6341475603
N             1.6222756606        6.5576466198        9.9177486472
N             1.6222756606        6.5581867228       15.2093295666
N             0.0001014606        9.3661461377        4.6341475603
N             0.0011308316        9.3655518300        9.9177486472
N             0.0015985746        9.3652817785       15.2093295666
N             8.1113724947        0.9353309097        4.6368221848
N             8.1113724947        0.9365246591        9.9176894345
N             8.1113724947        0.9384824425       15.2115843006
N             6.4884548494        3.7461096831        4.6292881397
N             6.4893718234        3.7466390983        9.9173021472
N             6.4861975212        3.7448064141       15.2136644637
N             4.8657078500        6.5569869790        4.6368221848
N             4.8667416673        6.5563901042        9.9176894345
N             4.8684371575        6.5554112125       15.2115843006
N             3.2444498606        9.3661461377        4.6341475603
N             3.2434204896        9.3655518300        9.9177486472
N             3.2429527466        9.3652817785       15.2093295666
N            11.3498042212        0.9345764257        4.6350842824
N            11.3526444012        0.9351509405        9.9199172748
N            11.3536651358        0.9307269374       15.1950534256
N             9.7342901401        3.7461096831        4.6292881397
N             9.7333731661        3.7466390983        9.9173021472
N             9.7365474683        3.7448064141       15.2136644637
N             8.1113724947        6.5570855014        4.6292881397
N             8.1113724947        6.5560266710        9.9173021472
N             8.1113724947        6.5596920395       15.2136644637
N             6.4842703109        9.3619283645        4.6350842824
N             6.4861879454        9.3641007752        9.9199172748
N             6.4828670135        9.3671967588       15.1950534256
N            -0.1372152103        1.9524625507        1.9356462631
N            -0.0181214138        1.8837037153        7.2885949600
N             0.0004255267        1.8729956341       12.5547790952
N            -1.6236927203        4.7010457608        1.9954826586
N            -1.6240062610        4.6855737559        7.2736597741
N            -1.6233345736        4.6834338464       12.5627440506
N            -3.2297204612        7.4827674064        1.9954826586
N            -3.2432763808        7.4902318747        7.2736597741
N            -3.2447937532        7.4918835277       12.5627440506
N            -4.8668245904       10.1443862972        1.9356462631
N            -4.8668245904       10.2819039682        7.2885949600
N            -4.8668245904       10.3033201304       12.5547790952
N             3.3817596978        1.9524625507        1.9356462631
N             3.2626659013        1.8837037153        7.2885949600
N             3.2441189608        1.8729956341       12.5547790952
N             1.6222722437        4.6917967529        1.9871461434
N             1.6222722437        4.6837382750        7.2768069590
N             1.6222722437        4.6848541727       12.5583013161
N             0.0036140785        7.4950528763        1.9911491066
N             0.0005962341        7.4933105230        7.2755531046
N            -0.0004821695        7.4926879064       12.5637751858
N            -1.6147478549       10.2984800291        1.9871461434
N            -1.6217267015       10.3025092680        7.2768069590
N            -1.6207603057       10.3019513191       12.5583013161
N             6.5053413370        1.8654982316        1.9954826586
N             6.4920989580        1.8735057682        7.2736597741
N             6.4899098984        1.8739940247       12.5627440506
N             4.8682372078        4.7010457608        1.9954826586
N             4.8685507485        4.6855737559        7.2736597741
N             4.8678790611        4.6834338464       12.5627440506
N             3.2409304090        7.4950528763        1.9911491066
N             3.2439482534        7.4933105230        7.2755531046
N             3.2450266570        7.4926879064       12.5637751858
N             1.6222722437       10.2986510585        1.9911491066
N             1.6222722437       10.3021357651        7.2755531046
N             1.6222722437       10.3033809983       12.5637751858
N             9.7173968187        1.8654982316        1.9954826586
N             9.7306391977        1.8735057682        7.2736597741
N             9.7328282573        1.8739940247       12.5627440506
N             8.1113690779        4.6831037996        1.9920918278
N             8.1113690779        4.6831037996        7.2715696098
N             8.1113690779        4.6831037996       12.5662282022
N             6.4742649486        7.4827674064        1.9954826586
N             6.4878208682        7.4902318747        7.2736597741
N             6.4893382406        7.4918835277       12.5627440506
N             4.8592923424       10.2984800291        1.9871461434
N             4.8662711890       10.3025092680        7.2768069590
N             4.8653047932       10.3019513191       12.5583013161
End final coordinates



     Writing all to output data dir ./GaN.save/
 
     init_run     :     27.03s CPU     28.27s WALL (       1 calls)
     electrons    :   2024.38s CPU   2049.49s WALL (       1 calls)
     forces       :      9.88s CPU     10.19s WALL (       1 calls)
     stress       :    169.64s CPU    171.42s WALL (       1 calls)

     Called by init_run:
     wfcinit      :     16.31s CPU     17.27s WALL (       1 calls)
     wfcinit:atom :      0.08s CPU      0.08s WALL (       1 calls)
     wfcinit:wfcr :     15.77s CPU     16.56s WALL (       1 calls)
     potinit      :      1.14s CPU      1.24s WALL (       1 calls)
     hinit0       :      0.72s CPU      0.76s WALL (       1 calls)

     Called by electrons:
     c_bands      :   2006.76s CPU   2030.95s WALL (       4 calls)
     sum_band     :     13.53s CPU     13.90s WALL (       4 calls)
     v_of_rho     :      2.24s CPU      2.40s WALL (       4 calls)
     v_h          :      0.02s CPU      0.02s WALL (       4 calls)
     v_xc         :      3.25s CPU      3.44s WALL (       6 calls)
     newd         :      0.45s CPU      0.46s WALL (       4 calls)
     PAW_pot      :      1.07s CPU      1.08s WALL (       4 calls)
     mix_rho      :      0.05s CPU      0.05s WALL (       4 calls)
     vdW_kernel   :      0.16s CPU      0.16s WALL (       1 calls)

     Called by c_bands:
     init_us_2    :      0.55s CPU      0.65s WALL (       9 calls)
     init_us_2:cp :      0.55s CPU      0.65s WALL (       9 calls)
     cegterg      :   1720.39s CPU   1740.52s WALL (       6 calls)

     Called by sum_band:
     sum_band:wei :      0.02s CPU      0.02s WALL (       4 calls)
     sum_band:loo :     12.56s CPU     12.70s WALL (       4 calls)
     sum_band:buf :      0.00s CPU      0.00s WALL (       4 calls)
     sum_band:ini :      0.41s CPU      0.42s WALL (       4 calls)
     sum_band:cal :      7.52s CPU      7.58s WALL (       4 calls)
     sum_band:bec :      0.10s CPU      0.10s WALL (       4 calls)
     addusdens    :      0.47s CPU      0.54s WALL (       4 calls)
     addusd:skk   :      0.05s CPU      0.07s WALL (       8 calls)
     addusd:dgemm :      0.15s CPU      0.20s WALL (       8 calls)
     addusd:qvan2 :      0.06s CPU      0.06s WALL (       8 calls)

     Called by *egterg:
     cdiaghg      :   1297.20s CPU   1306.57s WALL (     105 calls)
     cegterg:over :     93.07s CPU     95.87s WALL (     101 calls)
     cegterg:upda :     58.05s CPU     59.01s WALL (     101 calls)
     cegterg:last :     45.50s CPU     45.86s WALL (      10 calls)
     h_psi        :    171.97s CPU    175.00s WALL (     108 calls)
     s_psi        :     51.90s CPU     53.08s WALL (     108 calls)
     g_psi        :      0.25s CPU      0.26s WALL (     101 calls)

     Called by h_psi:
     h_psi:calbec :     58.12s CPU     58.64s WALL (     108 calls)
     vloc_psi     :     60.84s CPU     61.53s WALL (     108 calls)
     add_vuspsi   :     52.01s CPU     53.31s WALL (     108 calls)

     General routines
     calbec       :     75.07s CPU     75.74s WALL (     117 calls)
     fft          :      1.55s CPU      1.60s WALL (     420 calls)
     ffts         :      0.05s CPU      0.05s WALL (       8 calls)
     fftw         :     61.07s CPU     61.76s WALL (   60712 calls)
     interpolate  :      0.03s CPU      0.03s WALL (       4 calls)
 
     Parallel routines

     PAW routines
     PAW_pot      :      1.07s CPU      1.08s WALL (       4 calls)
     PAW_symme    :      0.02s CPU      0.02s WALL (       7 calls)
 
     PWSCF        :  37m13.44s CPU  37m48.63s WALL

 
   This run was terminated on:  18:13:47  12Feb2024            

=------------------------------------------------------------------------------=
   JOB DONE.
=------------------------------------------------------------------------------=
