
     Program PWSCF v.7.1 starts on 13Feb2024 at 10:35:29 

     This program is part of the open-source Quantum ESPRESSO suite
     for quantum simulation of materials; please cite
         "P. Giannozzi et al., J. Phys.:Condens. Matter 21 395502 (2009);
         "P. Giannozzi et al., J. Phys.:Condens. Matter 29 465901 (2017);
         "P. Giannozzi et al., J. Chem. Phys. 152 154105 (2020);
          URL http://www.quantum-espresso.org", 
     in publications or presentations arising from this work. More details at
     http://www.quantum-espresso.org/quote

     Parallel version (MPI & OpenMP), running on     256 processor cores
     Number of MPI processes:               256
     Threads/MPI process:                     1

     MPI processes distributed on     2 nodes
     1998721 MiB available memory on the printing compute node when the environment starts
 
     Reading input from espresso.pwi
Warning: card &CELL ignored
Warning: card    CELL_DYNAMICS    = 'BFGS' ignored
Warning: card / ignored

     Current dimensions of program PWSCF are:
     Max number of different atomic species (ntypx) = 10
     Max number of k-points (npk) =  40000
     Max angular momentum in pseudopotentials (lmaxx) =  4
     file Ga.pbe-dn-kjpaw_psl.1.0.0.UPF: wavefunction(s)  4S renormalized
     file N.pbe-n-kjpaw_psl.1.0.0.UPF: wavefunction(s)  2S renormalized

     **************************************************************************
     Initializing libbeef V0.1.2 with the BEEF-vdW functional.
     Citation: Wellendorff et al., PRB 85, 235149 (2012).
     **************************************************************************


     IMPORTANT: XC functional enforced from input :
     Exchange-correlation= BEEF-VDW
                           (   1   4  43  14   2   0   0)
     Any further DFT definition will be discarded
     Please, verify this is what you really want

 
     K-points division:     npool     =       4
     R & G space division:  proc/nbgrp/npool/nimage =      64
     Subspace diagonalization in iterative solution of the eigenvalue problem:
     a serial algorithm will be used

 
     Parallelization info
     --------------------
     sticks:   dense  smooth     PW     G-vecs:    dense   smooth      PW
     Min         226     181     47                26979    19303    2571
     Max         228     182     48                26983    19308    2576
     Sum       14527   11629   3037              1726709  1235535  164709
 
     Using Slab Decomposition
 


     bravais-lattice index     =            4
     lattice parameter (alat)  =      24.5252  a.u.
     unit-cell volume          =   15616.6055 (a.u.)^3
     number of atoms/cell      =          191
     number of atomic types    =            2
     number of electrons       =      1717.00
     number of Kohn-Sham states=         1031
     kinetic-energy cutoff     =      70.0000  Ry
     charge density cutoff     =     350.0000  Ry
     scf convergence threshold =      1.0E-07
     mixing beta               =       0.7000
     number of iterations used =            8  plain     mixing
     Exchange-correlation= BEEF-VDW
                           (   1   4  43  14   2   0   0)

     celldm(1)=  24.525232  celldm(2)=   0.000000  celldm(3)=   1.222409
     celldm(4)=   0.000000  celldm(5)=   0.000000  celldm(6)=   0.000000

     crystal axes: (cart. coord. in units of alat)
               a(1) = (   1.000000   0.000000   0.000000 )  
               a(2) = (  -0.500000   0.866025   0.000000 )  
               a(3) = (   0.000000   0.000000   1.222409 )  

     reciprocal axes: (cart. coord. in units 2 pi/alat)
               b(1) = (  1.000000  0.577350 -0.000000 )  
               b(2) = (  0.000000  1.154701  0.000000 )  
               b(3) = (  0.000000 -0.000000  0.818057 )  


     PseudoPot. # 1 for Ga read from file:
     //group///packages/espresso/pseudo/psl_1.0.0/pslibrary.1.0.0/pbe/PSEUDOPOTENTIALS/Ga.pbe-dn-kjpaw_psl.1.0.0.UPF
     MD5 check sum: cd2a01e492f15b435d17032472d8505c
     Pseudo is Projector augmented-wave + core cor, Zval = 13.0
     Generated using 'atomic' code by A. Dal Corso  v.7.1
     Shape of augmentation charge: PSQ
     Using radial grid of 1205 points,  6 beta functions with: 
                l(1) =   0
                l(2) =   0
                l(3) =   1
                l(4) =   1
                l(5) =   2
                l(6) =   2
     Q(r) pseudized with 0 coefficients 


     PseudoPot. # 2 for N  read from file:
     //group///packages/espresso/pseudo/psl_1.0.0/pslibrary.1.0.0/pbe/PSEUDOPOTENTIALS/N.pbe-n-kjpaw_psl.1.0.0.UPF
     MD5 check sum: f77f775694dac7e2c3fe1c82443d1a16
     Pseudo is Projector augmented-wave + core cor, Zval =  5.0
     Generated using 'atomic' code by A. Dal Corso  v.7.1
     Shape of augmentation charge: PSQ
     Using radial grid of 1085 points,  4 beta functions with: 
                l(1) =   0
                l(2) =   0
                l(3) =   1
                l(4) =   1
     Q(r) pseudized with 0 coefficients 


     atomic species   valence    mass     pseudopotential
        Ga            13.00    69.72300     Ga( 1.00)
        N              5.00    14.00700     N ( 1.00)

      6 Sym. Ops. (no inversion) found ( 4 have fractional translation)


                                    s                        frac. trans.

      isym =  1     identity                                     

 cryst.   s( 1) = (     1          0          0      )
                  (     0          1          0      )
                  (     0          0          1      )

 cart.    s( 1) = (  1.0000000  0.0000000  0.0000000 )
                  (  0.0000000  1.0000000  0.0000000 )
                  (  0.0000000  0.0000000  1.0000000 )


      isym =  2     120 deg rotation - cryst. axis [0,0,1]       

 cryst.   s( 2) = (     0          1          0      )    f =( -0.2500000 )
                  (    -1         -1          0      )       (  0.0000002 )
                  (     0          0          1      )       (  0.0000000 )

 cart.    s( 2) = ( -0.5000000 -0.8660254  0.0000000 )    f =( -0.2500001 )
                  (  0.8660254 -0.5000000  0.0000000 )       (  0.0000002 )
                  (  0.0000000  0.0000000  1.0000000 )       (  0.0000000 )


      isym =  3     120 deg rotation - cryst. axis [0,0,-1]      

 cryst.   s( 3) = (    -1         -1          0      )    f =( -0.2500002 )
                  (     1          0          0      )       ( -0.2500000 )
                  (     0          0          1      )       (  0.0000000 )

 cart.    s( 3) = ( -0.5000000  0.8660254  0.0000000 )    f =( -0.1250002 )
                  ( -0.8660254 -0.5000000  0.0000000 )       ( -0.2165064 )
                  (  0.0000000  0.0000000  1.0000000 )       (  0.0000000 )


      isym =  4     inv. 180 deg rotation - cart. axis [1,0,0]   

 cryst.   s( 4) = (    -1          0          0      )    f =( -0.2500002 )
                  (     1          1          0      )       (  0.0000000 )
                  (     0          0          1      )       (  0.0000000 )

 cart.    s( 4) = ( -1.0000000  0.0000000  0.0000000 )    f =( -0.2500002 )
                  (  0.0000000  1.0000000  0.0000000 )       (  0.0000000 )
                  (  0.0000000  0.0000000  1.0000000 )       (  0.0000000 )


      isym =  5     inv. 180 deg rotation - cryst. axis [0,1,0]  

 cryst.   s( 5) = (     1          1          0      )
                  (     0         -1          0      )
                  (     0          0          1      )

 cart.    s( 5) = (  0.5000000  0.8660254  0.0000000 )
                  (  0.8660254 -0.5000000  0.0000000 )
                  (  0.0000000  0.0000000  1.0000000 )


      isym =  6     inv. 180 deg rotation - cryst. axis [1,1,0]  

 cryst.   s( 6) = (     0         -1          0      )    f =( -0.2500000 )
                  (    -1          0          0      )       ( -0.2500000 )
                  (     0          0          1      )       (  0.0000000 )

 cart.    s( 6) = (  0.5000000 -0.8660254  0.0000000 )    f =( -0.1250000 )
                  ( -0.8660254 -0.5000000  0.0000000 )       ( -0.2165064 )
                  (  0.0000000  0.0000000  1.0000000 )       (  0.0000000 )


     point group C_3v (3m)  
     there are  3 classes
     the character table:

       E     2C3   3s_v 
A_1    1.00  1.00  1.00
A_2    1.00  1.00 -1.00
E      2.00 -1.00  0.00

     the symmetry operations in each class and the name of the first element:

     E        1
          identity                                               
     2C3      2    3
          120 deg rotation - cryst. axis [0,0,1]                 
     3s_v     4    5    6
          inv. 180 deg rotation - cart. axis [1,0,0]             

   Cartesian axes

     site n.     atom                  positions (alat units)
         1           Ga  tau(   1) = (   0.1250001   0.0721687   0.6108633  )
         2           Ga  tau(   2) = (   0.1250001   0.0721687   1.0183331  )
         3           Ga  tau(   3) = (   0.0000001   0.2886751   0.2033935  )
         4           Ga  tau(   4) = (   0.0000001   0.2886751   0.6108633  )
         5           Ga  tau(   5) = (   0.0000001   0.2886751   1.0183331  )
         6           Ga  tau(   6) = (  -0.1249999   0.5051814   0.2033935  )
         7           Ga  tau(   7) = (  -0.1249999   0.5051814   0.6108633  )
         8           Ga  tau(   8) = (  -0.1249999   0.5051814   1.0183331  )
         9           Ga  tau(   9) = (  -0.2499999   0.7216878   0.2033935  )
        10           Ga  tau(  10) = (  -0.2499999   0.7216878   0.6108633  )
        11           Ga  tau(  11) = (  -0.2499999   0.7216878   1.0183331  )
        12           Ga  tau(  12) = (   0.3750001   0.0721687   0.2033935  )
        13           Ga  tau(  13) = (   0.3750001   0.0721687   0.6108633  )
        14           Ga  tau(  14) = (   0.3750001   0.0721687   1.0183331  )
        15           Ga  tau(  15) = (   0.2500001   0.2886751   0.2033935  )
        16           Ga  tau(  16) = (   0.2500001   0.2886751   0.6108633  )
        17           Ga  tau(  17) = (   0.2500001   0.2886751   1.0183331  )
        18           Ga  tau(  18) = (   0.1250001   0.5051814   0.2033935  )
        19           Ga  tau(  19) = (   0.1250001   0.5051814   0.6108633  )
        20           Ga  tau(  20) = (   0.1250001   0.5051814   1.0183331  )
        21           Ga  tau(  21) = (   0.0000001   0.7216878   0.2033935  )
        22           Ga  tau(  22) = (   0.0000001   0.7216878   0.6108633  )
        23           Ga  tau(  23) = (   0.0000001   0.7216878   1.0183331  )
        24           Ga  tau(  24) = (   0.6250001   0.0721687   0.2033935  )
        25           Ga  tau(  25) = (   0.6250001   0.0721687   0.6108633  )
        26           Ga  tau(  26) = (   0.6250001   0.0721687   1.0183331  )
        27           Ga  tau(  27) = (   0.5000001   0.2886751   0.2033935  )
        28           Ga  tau(  28) = (   0.5000001   0.2886751   0.6108633  )
        29           Ga  tau(  29) = (   0.5000001   0.2886751   1.0183331  )
        30           Ga  tau(  30) = (   0.3750001   0.5051814   0.2033935  )
        31           Ga  tau(  31) = (   0.3750001   0.5051814   0.6108633  )
        32           Ga  tau(  32) = (   0.3750001   0.5051814   1.0183331  )
        33           Ga  tau(  33) = (   0.2500001   0.7216878   0.2033935  )
        34           Ga  tau(  34) = (   0.2500001   0.7216878   0.6108633  )
        35           Ga  tau(  35) = (   0.2500001   0.7216878   1.0183331  )
        36           Ga  tau(  36) = (   0.8750001   0.0721687   0.2033935  )
        37           Ga  tau(  37) = (   0.8750001   0.0721687   0.6108633  )
        38           Ga  tau(  38) = (   0.8750001   0.0721687   1.0183331  )
        39           Ga  tau(  39) = (   0.7500001   0.2886751   0.2033935  )
        40           Ga  tau(  40) = (   0.7500001   0.2886751   0.6108633  )
        41           Ga  tau(  41) = (   0.7500001   0.2886751   1.0183331  )
        42           Ga  tau(  42) = (   0.6250001   0.5051814   0.2033935  )
        43           Ga  tau(  43) = (   0.6250001   0.5051814   0.6108633  )
        44           Ga  tau(  44) = (   0.6250001   0.5051814   1.0183331  )
        45           Ga  tau(  45) = (   0.5000001   0.7216878   0.2033935  )
        46           Ga  tau(  46) = (   0.5000001   0.7216878   0.6108633  )
        47           Ga  tau(  47) = (   0.5000001   0.7216878   1.0183331  )
        48           Ga  tau(  48) = (  -0.0000002   0.1443377   0.4071284  )
        49           Ga  tau(  49) = (  -0.0000002   0.1443377   0.8145982  )
        50           Ga  tau(  50) = (  -0.0000002   0.1443377   1.2220680  )
        51           Ga  tau(  51) = (  -0.1250002   0.3608440   0.4071284  )
        52           Ga  tau(  52) = (  -0.1250002   0.3608440   0.8145982  )
        53           Ga  tau(  53) = (  -0.1250002   0.3608440   1.2220680  )
        54           Ga  tau(  54) = (  -0.2500002   0.5773504   0.4071284  )
        55           Ga  tau(  55) = (  -0.2500002   0.5773504   0.8145982  )
        56           Ga  tau(  56) = (  -0.2500002   0.5773504   1.2220680  )
        57           Ga  tau(  57) = (  -0.3750001   0.7938567   0.4071284  )
        58           Ga  tau(  58) = (  -0.3750001   0.7938567   0.8145982  )
        59           Ga  tau(  59) = (  -0.3750001   0.7938567   1.2220680  )
        60           Ga  tau(  60) = (   0.2499998   0.1443377   0.4071284  )
        61           Ga  tau(  61) = (   0.2499998   0.1443377   0.8145982  )
        62           Ga  tau(  62) = (   0.2499998   0.1443377   1.2220680  )
        63           Ga  tau(  63) = (   0.1249998   0.3608440   0.4071284  )
        64           Ga  tau(  64) = (   0.1249998   0.3608440   0.8145982  )
        65           Ga  tau(  65) = (   0.1249998   0.3608440   1.2220680  )
        66           Ga  tau(  66) = (  -0.0000002   0.5773504   0.4071284  )
        67           Ga  tau(  67) = (  -0.0000002   0.5773504   0.8145982  )
        68           Ga  tau(  68) = (  -0.0000002   0.5773504   1.2220680  )
        69           Ga  tau(  69) = (  -0.1250002   0.7938567   0.4071284  )
        70           Ga  tau(  70) = (  -0.1250002   0.7938567   0.8145982  )
        71           Ga  tau(  71) = (  -0.1250002   0.7938567   1.2220680  )
        72           Ga  tau(  72) = (   0.4999998   0.1443377   0.4071284  )
        73           Ga  tau(  73) = (   0.4999998   0.1443377   0.8145982  )
        74           Ga  tau(  74) = (   0.4999998   0.1443377   1.2220680  )
        75           Ga  tau(  75) = (   0.3749998   0.3608440   0.4071284  )
        76           Ga  tau(  76) = (   0.3749998   0.3608440   0.8145982  )
        77           Ga  tau(  77) = (   0.3749998   0.3608440   1.2220680  )
        78           Ga  tau(  78) = (   0.2499998   0.5773504   0.4071284  )
        79           Ga  tau(  79) = (   0.2499998   0.5773504   0.8145982  )
        80           Ga  tau(  80) = (   0.2499998   0.5773504   1.2220680  )
        81           Ga  tau(  81) = (   0.1249998   0.7938567   0.4071284  )
        82           Ga  tau(  82) = (   0.1249998   0.7938567   0.8145982  )
        83           Ga  tau(  83) = (   0.1249998   0.7938567   1.2220680  )
        84           Ga  tau(  84) = (   0.7499998   0.1443377   0.4071284  )
        85           Ga  tau(  85) = (   0.7499998   0.1443377   0.8145982  )
        86           Ga  tau(  86) = (   0.7499998   0.1443377   1.2220680  )
        87           Ga  tau(  87) = (   0.6249998   0.3608440   0.4071284  )
        88           Ga  tau(  88) = (   0.6249998   0.3608440   0.8145982  )
        89           Ga  tau(  89) = (   0.6249998   0.3608440   1.2220680  )
        90           Ga  tau(  90) = (   0.4999998   0.5773504   0.4071284  )
        91           Ga  tau(  91) = (   0.4999998   0.5773504   0.8145982  )
        92           Ga  tau(  92) = (   0.4999998   0.5773504   1.2220680  )
        93           Ga  tau(  93) = (   0.3749998   0.7938567   0.4071284  )
        94           Ga  tau(  94) = (   0.3749998   0.7938567   0.8145982  )
        95           Ga  tau(  95) = (   0.3749998   0.7938567   1.2220680  )
        96           N   tau(  96) = (   0.1250001   0.0721687   0.3568774  )
        97           N   tau(  97) = (   0.1250001   0.0721687   0.7643472  )
        98           N   tau(  98) = (   0.1250001   0.0721687   1.1718169  )
        99           N   tau(  99) = (   0.0000001   0.2886751   0.3568774  )
       100           N   tau( 100) = (   0.0000001   0.2886751   0.7643472  )
       101           N   tau( 101) = (   0.0000001   0.2886751   1.1718169  )
       102           N   tau( 102) = (  -0.1249999   0.5051814   0.3568774  )
       103           N   tau( 103) = (  -0.1249999   0.5051814   0.7643472  )
       104           N   tau( 104) = (  -0.1249999   0.5051814   1.1718169  )
       105           N   tau( 105) = (  -0.2499999   0.7216878   0.3568774  )
       106           N   tau( 106) = (  -0.2499999   0.7216878   0.7643472  )
       107           N   tau( 107) = (  -0.2499999   0.7216878   1.1718169  )
       108           N   tau( 108) = (   0.3750001   0.0721687   0.3568774  )
       109           N   tau( 109) = (   0.3750001   0.0721687   0.7643472  )
       110           N   tau( 110) = (   0.3750001   0.0721687   1.1718169  )
       111           N   tau( 111) = (   0.2500001   0.2886751   0.3568774  )
       112           N   tau( 112) = (   0.2500001   0.2886751   0.7643472  )
       113           N   tau( 113) = (   0.2500001   0.2886751   1.1718169  )
       114           N   tau( 114) = (   0.1250001   0.5051814   0.3568774  )
       115           N   tau( 115) = (   0.1250001   0.5051814   0.7643472  )
       116           N   tau( 116) = (   0.1250001   0.5051814   1.1718169  )
       117           N   tau( 117) = (   0.0000001   0.7216878   0.3568774  )
       118           N   tau( 118) = (   0.0000001   0.7216878   0.7643472  )
       119           N   tau( 119) = (   0.0000001   0.7216878   1.1718169  )
       120           N   tau( 120) = (   0.6250001   0.0721687   0.3568774  )
       121           N   tau( 121) = (   0.6250001   0.0721687   0.7643472  )
       122           N   tau( 122) = (   0.6250001   0.0721687   1.1718169  )
       123           N   tau( 123) = (   0.5000001   0.2886751   0.3568774  )
       124           N   tau( 124) = (   0.5000001   0.2886751   0.7643472  )
       125           N   tau( 125) = (   0.5000001   0.2886751   1.1718169  )
       126           N   tau( 126) = (   0.3750001   0.5051814   0.3568774  )
       127           N   tau( 127) = (   0.3750001   0.5051814   0.7643472  )
       128           N   tau( 128) = (   0.3750001   0.5051814   1.1718169  )
       129           N   tau( 129) = (   0.2500001   0.7216878   0.3568774  )
       130           N   tau( 130) = (   0.2500001   0.7216878   0.7643472  )
       131           N   tau( 131) = (   0.2500001   0.7216878   1.1718169  )
       132           N   tau( 132) = (   0.8750001   0.0721687   0.3568774  )
       133           N   tau( 133) = (   0.8750001   0.0721687   0.7643472  )
       134           N   tau( 134) = (   0.8750001   0.0721687   1.1718169  )
       135           N   tau( 135) = (   0.7500001   0.2886751   0.3568774  )
       136           N   tau( 136) = (   0.7500001   0.2886751   0.7643472  )
       137           N   tau( 137) = (   0.7500001   0.2886751   1.1718169  )
       138           N   tau( 138) = (   0.6250001   0.5051814   0.3568774  )
       139           N   tau( 139) = (   0.6250001   0.5051814   0.7643472  )
       140           N   tau( 140) = (   0.6250001   0.5051814   1.1718169  )
       141           N   tau( 141) = (   0.5000001   0.7216878   0.3568774  )
       142           N   tau( 142) = (   0.5000001   0.7216878   0.7643472  )
       143           N   tau( 143) = (   0.5000001   0.7216878   1.1718169  )
       144           N   tau( 144) = (  -0.0000002   0.1443377   0.1531425  )
       145           N   tau( 145) = (  -0.0000002   0.1443377   0.5606123  )
       146           N   tau( 146) = (  -0.0000002   0.1443377   0.9680820  )
       147           N   tau( 147) = (  -0.1250002   0.3608440   0.1531425  )
       148           N   tau( 148) = (  -0.1250002   0.3608440   0.5606123  )
       149           N   tau( 149) = (  -0.1250002   0.3608440   0.9680820  )
       150           N   tau( 150) = (  -0.2500002   0.5773504   0.1531425  )
       151           N   tau( 151) = (  -0.2500002   0.5773504   0.5606123  )
       152           N   tau( 152) = (  -0.2500002   0.5773504   0.9680820  )
       153           N   tau( 153) = (  -0.3750001   0.7938567   0.1531425  )
       154           N   tau( 154) = (  -0.3750001   0.7938567   0.5606123  )
       155           N   tau( 155) = (  -0.3750001   0.7938567   0.9680820  )
       156           N   tau( 156) = (   0.2499998   0.1443377   0.1531425  )
       157           N   tau( 157) = (   0.2499998   0.1443377   0.5606123  )
       158           N   tau( 158) = (   0.2499998   0.1443377   0.9680820  )
       159           N   tau( 159) = (   0.1249998   0.3608440   0.1531425  )
       160           N   tau( 160) = (   0.1249998   0.3608440   0.5606123  )
       161           N   tau( 161) = (   0.1249998   0.3608440   0.9680820  )
       162           N   tau( 162) = (  -0.0000002   0.5773504   0.1531425  )
       163           N   tau( 163) = (  -0.0000002   0.5773504   0.5606123  )
       164           N   tau( 164) = (  -0.0000002   0.5773504   0.9680820  )
       165           N   tau( 165) = (  -0.1250002   0.7938567   0.1531425  )
       166           N   tau( 166) = (  -0.1250002   0.7938567   0.5606123  )
       167           N   tau( 167) = (  -0.1250002   0.7938567   0.9680820  )
       168           N   tau( 168) = (   0.4999998   0.1443377   0.1531425  )
       169           N   tau( 169) = (   0.4999998   0.1443377   0.5606123  )
       170           N   tau( 170) = (   0.4999998   0.1443377   0.9680820  )
       171           N   tau( 171) = (   0.3749998   0.3608440   0.1531425  )
       172           N   tau( 172) = (   0.3749998   0.3608440   0.5606123  )
       173           N   tau( 173) = (   0.3749998   0.3608440   0.9680820  )
       174           N   tau( 174) = (   0.2499998   0.5773504   0.1531425  )
       175           N   tau( 175) = (   0.2499998   0.5773504   0.5606123  )
       176           N   tau( 176) = (   0.2499998   0.5773504   0.9680820  )
       177           N   tau( 177) = (   0.1249998   0.7938567   0.1531425  )
       178           N   tau( 178) = (   0.1249998   0.7938567   0.5606123  )
       179           N   tau( 179) = (   0.1249998   0.7938567   0.9680820  )
       180           N   tau( 180) = (   0.7499998   0.1443377   0.1531425  )
       181           N   tau( 181) = (   0.7499998   0.1443377   0.5606123  )
       182           N   tau( 182) = (   0.7499998   0.1443377   0.9680820  )
       183           N   tau( 183) = (   0.6249998   0.3608440   0.1531425  )
       184           N   tau( 184) = (   0.6249998   0.3608440   0.5606123  )
       185           N   tau( 185) = (   0.6249998   0.3608440   0.9680820  )
       186           N   tau( 186) = (   0.4999998   0.5773504   0.1531425  )
       187           N   tau( 187) = (   0.4999998   0.5773504   0.5606123  )
       188           N   tau( 188) = (   0.4999998   0.5773504   0.9680820  )
       189           N   tau( 189) = (   0.3749998   0.7938567   0.1531425  )
       190           N   tau( 190) = (   0.3749998   0.7938567   0.5606123  )
       191           N   tau( 191) = (   0.3749998   0.7938567   0.9680820  )

   Crystallographic axes

     site n.     atom                  positions (cryst. coord.)
         1           Ga  tau(   1) = (  0.1666667  0.0833333  0.4997208  )
         2           Ga  tau(   2) = (  0.1666667  0.0833333  0.8330541  )
         3           Ga  tau(   3) = (  0.1666667  0.3333333  0.1663874  )
         4           Ga  tau(   4) = (  0.1666667  0.3333333  0.4997208  )
         5           Ga  tau(   5) = (  0.1666667  0.3333333  0.8330541  )
         6           Ga  tau(   6) = (  0.1666667  0.5833333  0.1663874  )
         7           Ga  tau(   7) = (  0.1666667  0.5833333  0.4997208  )
         8           Ga  tau(   8) = (  0.1666667  0.5833333  0.8330541  )
         9           Ga  tau(   9) = (  0.1666667  0.8333333  0.1663874  )
        10           Ga  tau(  10) = (  0.1666667  0.8333333  0.4997208  )
        11           Ga  tau(  11) = (  0.1666667  0.8333333  0.8330541  )
        12           Ga  tau(  12) = (  0.4166667  0.0833333  0.1663874  )
        13           Ga  tau(  13) = (  0.4166667  0.0833333  0.4997208  )
        14           Ga  tau(  14) = (  0.4166667  0.0833333  0.8330541  )
        15           Ga  tau(  15) = (  0.4166667  0.3333333  0.1663874  )
        16           Ga  tau(  16) = (  0.4166667  0.3333333  0.4997208  )
        17           Ga  tau(  17) = (  0.4166667  0.3333333  0.8330541  )
        18           Ga  tau(  18) = (  0.4166667  0.5833333  0.1663874  )
        19           Ga  tau(  19) = (  0.4166667  0.5833333  0.4997208  )
        20           Ga  tau(  20) = (  0.4166667  0.5833333  0.8330541  )
        21           Ga  tau(  21) = (  0.4166667  0.8333333  0.1663874  )
        22           Ga  tau(  22) = (  0.4166667  0.8333333  0.4997208  )
        23           Ga  tau(  23) = (  0.4166667  0.8333333  0.8330541  )
        24           Ga  tau(  24) = (  0.6666667  0.0833333  0.1663874  )
        25           Ga  tau(  25) = (  0.6666667  0.0833333  0.4997208  )
        26           Ga  tau(  26) = (  0.6666667  0.0833333  0.8330541  )
        27           Ga  tau(  27) = (  0.6666667  0.3333333  0.1663874  )
        28           Ga  tau(  28) = (  0.6666667  0.3333333  0.4997208  )
        29           Ga  tau(  29) = (  0.6666667  0.3333333  0.8330541  )
        30           Ga  tau(  30) = (  0.6666667  0.5833333  0.1663874  )
        31           Ga  tau(  31) = (  0.6666667  0.5833333  0.4997208  )
        32           Ga  tau(  32) = (  0.6666667  0.5833333  0.8330541  )
        33           Ga  tau(  33) = (  0.6666667  0.8333333  0.1663874  )
        34           Ga  tau(  34) = (  0.6666667  0.8333333  0.4997208  )
        35           Ga  tau(  35) = (  0.6666667  0.8333333  0.8330541  )
        36           Ga  tau(  36) = (  0.9166667  0.0833333  0.1663874  )
        37           Ga  tau(  37) = (  0.9166667  0.0833333  0.4997208  )
        38           Ga  tau(  38) = (  0.9166667  0.0833333  0.8330541  )
        39           Ga  tau(  39) = (  0.9166667  0.3333333  0.1663874  )
        40           Ga  tau(  40) = (  0.9166667  0.3333333  0.4997208  )
        41           Ga  tau(  41) = (  0.9166667  0.3333333  0.8330541  )
        42           Ga  tau(  42) = (  0.9166667  0.5833333  0.1663874  )
        43           Ga  tau(  43) = (  0.9166667  0.5833333  0.4997208  )
        44           Ga  tau(  44) = (  0.9166667  0.5833333  0.8330541  )
        45           Ga  tau(  45) = (  0.9166667  0.8333333  0.1663874  )
        46           Ga  tau(  46) = (  0.9166667  0.8333333  0.4997208  )
        47           Ga  tau(  47) = (  0.9166667  0.8333333  0.8330541  )
        48           Ga  tau(  48) = (  0.0833333  0.1666668  0.3330541  )
        49           Ga  tau(  49) = (  0.0833333  0.1666668  0.6663874  )
        50           Ga  tau(  50) = (  0.0833333  0.1666668  0.9997208  )
        51           Ga  tau(  51) = (  0.0833333  0.4166668  0.3330541  )
        52           Ga  tau(  52) = (  0.0833333  0.4166668  0.6663874  )
        53           Ga  tau(  53) = (  0.0833333  0.4166668  0.9997208  )
        54           Ga  tau(  54) = (  0.0833333  0.6666668  0.3330541  )
        55           Ga  tau(  55) = (  0.0833333  0.6666668  0.6663874  )
        56           Ga  tau(  56) = (  0.0833333  0.6666668  0.9997208  )
        57           Ga  tau(  57) = (  0.0833333  0.9166668  0.3330541  )
        58           Ga  tau(  58) = (  0.0833333  0.9166668  0.6663874  )
        59           Ga  tau(  59) = (  0.0833333  0.9166668  0.9997208  )
        60           Ga  tau(  60) = (  0.3333332  0.1666668  0.3330541  )
        61           Ga  tau(  61) = (  0.3333332  0.1666668  0.6663874  )
        62           Ga  tau(  62) = (  0.3333332  0.1666668  0.9997208  )
        63           Ga  tau(  63) = (  0.3333332  0.4166668  0.3330541  )
        64           Ga  tau(  64) = (  0.3333332  0.4166668  0.6663874  )
        65           Ga  tau(  65) = (  0.3333332  0.4166668  0.9997208  )
        66           Ga  tau(  66) = (  0.3333332  0.6666668  0.3330541  )
        67           Ga  tau(  67) = (  0.3333332  0.6666668  0.6663874  )
        68           Ga  tau(  68) = (  0.3333332  0.6666668  0.9997208  )
        69           Ga  tau(  69) = (  0.3333332  0.9166668  0.3330541  )
        70           Ga  tau(  70) = (  0.3333332  0.9166668  0.6663874  )
        71           Ga  tau(  71) = (  0.3333332  0.9166668  0.9997208  )
        72           Ga  tau(  72) = (  0.5833332  0.1666668  0.3330541  )
        73           Ga  tau(  73) = (  0.5833332  0.1666668  0.6663874  )
        74           Ga  tau(  74) = (  0.5833332  0.1666668  0.9997208  )
        75           Ga  tau(  75) = (  0.5833332  0.4166668  0.3330541  )
        76           Ga  tau(  76) = (  0.5833332  0.4166668  0.6663874  )
        77           Ga  tau(  77) = (  0.5833332  0.4166668  0.9997208  )
        78           Ga  tau(  78) = (  0.5833332  0.6666668  0.3330541  )
        79           Ga  tau(  79) = (  0.5833332  0.6666668  0.6663874  )
        80           Ga  tau(  80) = (  0.5833332  0.6666668  0.9997208  )
        81           Ga  tau(  81) = (  0.5833332  0.9166668  0.3330541  )
        82           Ga  tau(  82) = (  0.5833332  0.9166668  0.6663874  )
        83           Ga  tau(  83) = (  0.5833332  0.9166668  0.9997208  )
        84           Ga  tau(  84) = (  0.8333332  0.1666668  0.3330541  )
        85           Ga  tau(  85) = (  0.8333332  0.1666668  0.6663874  )
        86           Ga  tau(  86) = (  0.8333332  0.1666668  0.9997208  )
        87           Ga  tau(  87) = (  0.8333332  0.4166668  0.3330541  )
        88           Ga  tau(  88) = (  0.8333332  0.4166668  0.6663874  )
        89           Ga  tau(  89) = (  0.8333332  0.4166668  0.9997208  )
        90           Ga  tau(  90) = (  0.8333332  0.6666668  0.3330541  )
        91           Ga  tau(  91) = (  0.8333332  0.6666668  0.6663874  )
        92           Ga  tau(  92) = (  0.8333332  0.6666668  0.9997208  )
        93           Ga  tau(  93) = (  0.8333332  0.9166668  0.3330541  )
        94           Ga  tau(  94) = (  0.8333332  0.9166668  0.6663874  )
        95           Ga  tau(  95) = (  0.8333332  0.9166668  0.9997208  )
        96           N   tau(  96) = (  0.1666667  0.0833333  0.2919459  )
        97           N   tau(  97) = (  0.1666667  0.0833333  0.6252792  )
        98           N   tau(  98) = (  0.1666667  0.0833333  0.9586126  )
        99           N   tau(  99) = (  0.1666667  0.3333333  0.2919459  )
       100           N   tau( 100) = (  0.1666667  0.3333333  0.6252792  )
       101           N   tau( 101) = (  0.1666667  0.3333333  0.9586126  )
       102           N   tau( 102) = (  0.1666667  0.5833333  0.2919459  )
       103           N   tau( 103) = (  0.1666667  0.5833333  0.6252792  )
       104           N   tau( 104) = (  0.1666667  0.5833333  0.9586126  )
       105           N   tau( 105) = (  0.1666667  0.8333333  0.2919459  )
       106           N   tau( 106) = (  0.1666667  0.8333333  0.6252792  )
       107           N   tau( 107) = (  0.1666667  0.8333333  0.9586126  )
       108           N   tau( 108) = (  0.4166667  0.0833333  0.2919459  )
       109           N   tau( 109) = (  0.4166667  0.0833333  0.6252792  )
       110           N   tau( 110) = (  0.4166667  0.0833333  0.9586126  )
       111           N   tau( 111) = (  0.4166667  0.3333333  0.2919459  )
       112           N   tau( 112) = (  0.4166667  0.3333333  0.6252792  )
       113           N   tau( 113) = (  0.4166667  0.3333333  0.9586126  )
       114           N   tau( 114) = (  0.4166667  0.5833333  0.2919459  )
       115           N   tau( 115) = (  0.4166667  0.5833333  0.6252792  )
       116           N   tau( 116) = (  0.4166667  0.5833333  0.9586126  )
       117           N   tau( 117) = (  0.4166667  0.8333333  0.2919459  )
       118           N   tau( 118) = (  0.4166667  0.8333333  0.6252792  )
       119           N   tau( 119) = (  0.4166667  0.8333333  0.9586126  )
       120           N   tau( 120) = (  0.6666667  0.0833333  0.2919459  )
       121           N   tau( 121) = (  0.6666667  0.0833333  0.6252792  )
       122           N   tau( 122) = (  0.6666667  0.0833333  0.9586126  )
       123           N   tau( 123) = (  0.6666667  0.3333333  0.2919459  )
       124           N   tau( 124) = (  0.6666667  0.3333333  0.6252792  )
       125           N   tau( 125) = (  0.6666667  0.3333333  0.9586126  )
       126           N   tau( 126) = (  0.6666667  0.5833333  0.2919459  )
       127           N   tau( 127) = (  0.6666667  0.5833333  0.6252792  )
       128           N   tau( 128) = (  0.6666667  0.5833333  0.9586126  )
       129           N   tau( 129) = (  0.6666667  0.8333333  0.2919459  )
       130           N   tau( 130) = (  0.6666667  0.8333333  0.6252792  )
       131           N   tau( 131) = (  0.6666667  0.8333333  0.9586126  )
       132           N   tau( 132) = (  0.9166667  0.0833333  0.2919459  )
       133           N   tau( 133) = (  0.9166667  0.0833333  0.6252792  )
       134           N   tau( 134) = (  0.9166667  0.0833333  0.9586126  )
       135           N   tau( 135) = (  0.9166667  0.3333333  0.2919459  )
       136           N   tau( 136) = (  0.9166667  0.3333333  0.6252792  )
       137           N   tau( 137) = (  0.9166667  0.3333333  0.9586126  )
       138           N   tau( 138) = (  0.9166667  0.5833333  0.2919459  )
       139           N   tau( 139) = (  0.9166667  0.5833333  0.6252792  )
       140           N   tau( 140) = (  0.9166667  0.5833333  0.9586126  )
       141           N   tau( 141) = (  0.9166667  0.8333333  0.2919459  )
       142           N   tau( 142) = (  0.9166667  0.8333333  0.6252792  )
       143           N   tau( 143) = (  0.9166667  0.8333333  0.9586126  )
       144           N   tau( 144) = (  0.0833333  0.1666668  0.1252792  )
       145           N   tau( 145) = (  0.0833333  0.1666668  0.4586126  )
       146           N   tau( 146) = (  0.0833333  0.1666668  0.7919459  )
       147           N   tau( 147) = (  0.0833333  0.4166668  0.1252792  )
       148           N   tau( 148) = (  0.0833333  0.4166668  0.4586126  )
       149           N   tau( 149) = (  0.0833333  0.4166668  0.7919459  )
       150           N   tau( 150) = (  0.0833333  0.6666668  0.1252792  )
       151           N   tau( 151) = (  0.0833333  0.6666668  0.4586126  )
       152           N   tau( 152) = (  0.0833333  0.6666668  0.7919459  )
       153           N   tau( 153) = (  0.0833333  0.9166668  0.1252792  )
       154           N   tau( 154) = (  0.0833333  0.9166668  0.4586126  )
       155           N   tau( 155) = (  0.0833333  0.9166668  0.7919459  )
       156           N   tau( 156) = (  0.3333332  0.1666668  0.1252792  )
       157           N   tau( 157) = (  0.3333332  0.1666668  0.4586126  )
       158           N   tau( 158) = (  0.3333332  0.1666668  0.7919459  )
       159           N   tau( 159) = (  0.3333332  0.4166668  0.1252792  )
       160           N   tau( 160) = (  0.3333332  0.4166668  0.4586126  )
       161           N   tau( 161) = (  0.3333332  0.4166668  0.7919459  )
       162           N   tau( 162) = (  0.3333332  0.6666668  0.1252792  )
       163           N   tau( 163) = (  0.3333332  0.6666668  0.4586126  )
       164           N   tau( 164) = (  0.3333332  0.6666668  0.7919459  )
       165           N   tau( 165) = (  0.3333332  0.9166668  0.1252792  )
       166           N   tau( 166) = (  0.3333332  0.9166668  0.4586126  )
       167           N   tau( 167) = (  0.3333332  0.9166668  0.7919459  )
       168           N   tau( 168) = (  0.5833332  0.1666668  0.1252792  )
       169           N   tau( 169) = (  0.5833332  0.1666668  0.4586126  )
       170           N   tau( 170) = (  0.5833332  0.1666668  0.7919459  )
       171           N   tau( 171) = (  0.5833332  0.4166668  0.1252792  )
       172           N   tau( 172) = (  0.5833332  0.4166668  0.4586126  )
       173           N   tau( 173) = (  0.5833332  0.4166668  0.7919459  )
       174           N   tau( 174) = (  0.5833332  0.6666668  0.1252792  )
       175           N   tau( 175) = (  0.5833332  0.6666668  0.4586126  )
       176           N   tau( 176) = (  0.5833332  0.6666668  0.7919459  )
       177           N   tau( 177) = (  0.5833332  0.9166668  0.1252792  )
       178           N   tau( 178) = (  0.5833332  0.9166668  0.4586126  )
       179           N   tau( 179) = (  0.5833332  0.9166668  0.7919459  )
       180           N   tau( 180) = (  0.8333332  0.1666668  0.1252792  )
       181           N   tau( 181) = (  0.8333332  0.1666668  0.4586126  )
       182           N   tau( 182) = (  0.8333332  0.1666668  0.7919459  )
       183           N   tau( 183) = (  0.8333332  0.4166668  0.1252792  )
       184           N   tau( 184) = (  0.8333332  0.4166668  0.4586126  )
       185           N   tau( 185) = (  0.8333332  0.4166668  0.7919459  )
       186           N   tau( 186) = (  0.8333332  0.6666668  0.1252792  )
       187           N   tau( 187) = (  0.8333332  0.6666668  0.4586126  )
       188           N   tau( 188) = (  0.8333332  0.6666668  0.7919459  )
       189           N   tau( 189) = (  0.8333332  0.9166668  0.1252792  )
       190           N   tau( 190) = (  0.8333332  0.9166668  0.4586126  )
       191           N   tau( 191) = (  0.8333332  0.9166668  0.7919459  )

     number of k points=     4  Gaussian smearing, width (Ry)=  0.0100
                       cart. coord. in units 2pi/alat
        k(    1) = (   0.0000000   0.0000000   0.0000000), wk =   0.2500000
        k(    2) = (   0.0000000   0.0000000  -0.4090283), wk =   0.2500000
        k(    3) = (   0.0000000  -0.5773503   0.0000000), wk =   0.7500000
        k(    4) = (   0.0000000  -0.5773503  -0.4090283), wk =   0.7500000

                       cryst. coord.
        k(    1) = (   0.0000000   0.0000000   0.0000000), wk =   0.2500000
        k(    2) = (   0.0000000   0.0000000  -0.5000000), wk =   0.2500000
        k(    3) = (   0.0000000  -0.5000000   0.0000000), wk =   0.7500000
        k(    4) = (   0.0000000  -0.5000000  -0.5000000), wk =   0.7500000

     Dense  grid:  1726709 G-vectors     FFT dimensions: ( 160, 160, 180)

     Smooth grid:  1235535 G-vectors     FFT dimensions: ( 144, 144, 160)

     Dynamical RAM for                 wfc:      37.96 MB

     Dynamical RAM for     wfc (w. buffer):      37.96 MB

     Dynamical RAM for           str. fact:       0.82 MB

     Dynamical RAM for           local pot:       0.00 MB

     Dynamical RAM for          nlocal pot:      91.24 MB

     Dynamical RAM for                qrad:       3.00 MB

     Dynamical RAM for          rho,v,vnew:       2.99 MB

     Dynamical RAM for               rhoin:       1.00 MB

     Dynamical RAM for            rho*nmix:       6.59 MB

     Dynamical RAM for           G-vectors:       1.69 MB

     Dynamical RAM for          h,s,v(r/c):     778.54 MB

     Dynamical RAM for          <psi|beta>:      38.98 MB

     Dynamical RAM for                 psi:     151.84 MB

     Dynamical RAM for                hpsi:     151.84 MB

     Dynamical RAM for                spsi:     151.84 MB

     Dynamical RAM for      wfcinit/wfcrot:     100.26 MB

     Dynamical RAM for           addusdens:      29.33 MB

     Dynamical RAM for          addusforce:      49.16 MB

     Dynamical RAM for         addusstress:      20.84 MB

     Estimated static dynamical RAM per process >     142.87 MB

     Estimated max dynamical RAM per process >       1.39 GB

     Estimated total dynamical RAM >     354.39 GB

     Atomic positions and unit cell read from directory:
     ./GaN.save/
     Atomic positions from file used, from input discarded
 

     Check: negative core charge=   -0.000003

     The initial density is read from file :
     ./GaN.save/charge-density



     %%%%%%%%%%%%%%%%%%%%%%%%%%%%%%%%%%%%%%%%%%%%%%%%%%%%%%%%%%%%%%%%%%%%%%%%
     %                                                                      %
     % You are using vdW-DF, which was implemented by the Thonhauser group. %
     % Please cite the following two papers that made this development      %
     % possible and the two reviews that describe the various versions:     %
     %                                                                      %
     %   T. Thonhauser et al., PRL 115, 136402 (2015).                      %
     %   T. Thonhauser et al., PRB 76, 125112 (2007).                       %
     %   K. Berland et al., Rep. Prog. Phys. 78, 066501 (2015).             %
     %   D.C. Langreth et al., J. Phys.: Condens. Matter 21, 084203 (2009). %
     %                                                                      %
     % If you are calculating stress with vdW-DF, please also cite:         %
     %                                                                      %
     %   R. Sabatini et al., J. Phys.: Condens. Matter 24, 424209 (2012).   %
     %                                                                      %
     %%%%%%%%%%%%%%%%%%%%%%%%%%%%%%%%%%%%%%%%%%%%%%%%%%%%%%%%%%%%%%%%%%%%%%%%

     %%%%%%%%%%%%%%%%%%%%%%%%%%%%%%%%%%%%%%%%%%%%%%%%%%%%%%%%%%%%%%%%%%%%%%%%
     %                                                                      %
     %  vdW-DF NEWS:                                                        %
     %                                                                      %
     %  * vdW-DF3 is now available. DOI: 10.1021/acs.jctc.0c00471           %
     %    use with input_dft = 'vdW-DF3-opt1' or 'vdW-DF3-opt2'             %
     %                                                                      %
     %  * Unscreened and range-separated vdW-DF hybrid functionals          %
     %    DOI: 10.1063/1.4986522 and 10.1088/1361-648X/ac2ad2               %
     %    use with input_dft = 'vdW-DF-cx0' (etc) and 'vdW-DF-ahcx'         %
     %                                                                      %
     %%%%%%%%%%%%%%%%%%%%%%%%%%%%%%%%%%%%%%%%%%%%%%%%%%%%%%%%%%%%%%%%%%%%%%%%


     Carrying out vdW-DF run using the following parameters:
     Nqs    =  20  Npoints =  1024  r_max =  100.000
     q_mesh =  0.00001000  0.04494208  0.09755937  0.15916263
               0.23128650  0.31572767  0.41458969  0.53033537
               0.66584808  0.82450364  1.01025438  1.22772762
               1.48234092  1.78043706  2.12944203  2.53805004
               3.01644009  3.57652955  4.23227104  5.00000000


     -----------------------------------------------
     Non-local corr. energy    =      51.87809644 Ry
     -----------------------------------------------

     Starting wfcs from file
     Checking if some PAW data can be deallocated... 
       PAW data deallocated on   96 nodes for type:  1
       PAW data deallocated on  160 nodes for type:  2

     total cpu time spent up to now is       12.2 secs

     Self-consistent Calculation

     iteration #  1     ecut=    70.00 Ry     beta= 0.70
     Davidson diagonalization with overlap

---- Real-time Memory Report at c_bands before calling an iterative solver
           296 MiB given to the printing process from OS
             0 MiB allocation reported by mallinfo(arena+hblkhd)
       1973998 MiB available memory on the node where the printing process lives
------------------
     ethr =  1.00E-05,  avg # of iterations =  1.3

     Threshold (ethr) on eigenvalues was too large:
     Diagonalizing with lowered threshold

     Davidson diagonalization with overlap

---- Real-time Memory Report at c_bands before calling an iterative solver
          1035 MiB given to the printing process from OS
             0 MiB allocation reported by mallinfo(arena+hblkhd)
       1961437 MiB available memory on the node where the printing process lives
------------------
     ethr =  1.43E-11,  avg # of iterations = 13.8


     -----------------------------------------------
     Non-local corr. energy    =      51.87812301 Ry
     -----------------------------------------------


     total cpu time spent up to now is      336.2 secs

     total energy              =  -29694.68534657 Ry
     estimated scf accuracy    <       0.00000026 Ry

     iteration #  2     ecut=    70.00 Ry     beta= 0.70
     Davidson diagonalization with overlap

---- Real-time Memory Report at c_bands before calling an iterative solver
          1150 MiB given to the printing process from OS
             0 MiB allocation reported by mallinfo(arena+hblkhd)
       1952677 MiB available memory on the node where the printing process lives
------------------
     ethr =  1.54E-11,  avg # of iterations = 14.3


     -----------------------------------------------
     Non-local corr. energy    =      51.87812312 Ry
     -----------------------------------------------


     total cpu time spent up to now is      845.1 secs

     total energy              =  -29694.68534507 Ry
     estimated scf accuracy    <       0.00003851 Ry

     iteration #  3     ecut=    70.00 Ry     beta= 0.70
     Davidson diagonalization with overlap

---- Real-time Memory Report at c_bands before calling an iterative solver
          1398 MiB given to the printing process from OS
             0 MiB allocation reported by mallinfo(arena+hblkhd)
       1952116 MiB available memory on the node where the printing process lives
------------------
     ethr =  1.54E-11,  avg # of iterations = 14.8


     -----------------------------------------------
     Non-local corr. energy    =      51.87812100 Ry
     -----------------------------------------------


     total cpu time spent up to now is     1296.3 secs

     total energy              =  -29694.68534673 Ry
     estimated scf accuracy    <       0.00000034 Ry

     iteration #  4     ecut=    70.00 Ry     beta= 0.70
     Davidson diagonalization with overlap

---- Real-time Memory Report at c_bands before calling an iterative solver
          1398 MiB given to the printing process from OS
             0 MiB allocation reported by mallinfo(arena+hblkhd)
       1951975 MiB available memory on the node where the printing process lives
------------------
     ethr =  1.54E-11,  avg # of iterations = 12.3


     -----------------------------------------------
     Non-local corr. energy    =      51.87811443 Ry
     -----------------------------------------------


     total cpu time spent up to now is     1585.4 secs

     End of self-consistent calculation

          k = 0.0000 0.0000 0.0000 (154543 PWs)   bands (ev):

    -7.0095  -6.8016  -6.7712  -6.7306  -6.7222  -6.7222  -6.7001  -6.7000
    -6.6732  -6.6230  -6.6180  -6.6139  -6.6139  -6.6030  -6.5943  -6.5941
    -6.5941  -6.5927  -6.5927  -6.5919  -6.5918  -6.5774  -6.5759  -6.5759
    -6.5727  -6.5693  -6.5693  -6.5624  -6.5624  -6.5596  -6.5595  -6.5529
    -6.5529  -6.5506  -6.5466  -6.5466  -6.5442  -6.5387  -6.5387  -6.5340
    -6.5340  -6.5322  -6.5321  -6.5313  -6.5214  -6.5214  -6.5190  -6.5137
    -6.5137  -6.5130  -6.5040  -6.5040  -6.5034  -6.4945  -6.4945  -6.4904
    -6.4884  -6.4875  -6.4875  -6.4837  -6.4837  -6.4768  -6.4683  -6.4662
    -6.4662  -6.4613  -6.4613  -6.4487  -6.4470  -6.4390  -6.4390  -6.4099
    -6.4099  -6.4086  -6.4076  -6.4076  -6.3825  -6.3825  -6.3790  -6.3752
    -6.3742  -6.3742  -6.3514  -6.3514  -6.3502  -6.3380  -6.3380  -6.3373
    -6.3231  -6.3221  -6.3221  -6.2799  -5.9446  -5.9198  -5.9198  -5.9145
    -5.4940  -5.4940  -5.4700  -5.4686  -5.4660  -5.4660  -5.4637  -5.4637
    -5.4626  -5.4591  -5.4579  -5.4579  -5.4512  -5.4512  -5.4505  -5.4488
    -5.4488  -5.4445  -5.4419  -5.4419  -5.4377  -5.4377  -5.4376  -5.4355
    -5.4355  -5.4335  -5.4335  -5.4305  -5.4251  -5.4251  -5.4248  -5.4216
    -5.4208  -5.4208  -5.4171  -5.4171  -5.4127  -5.4084  -5.4033  -5.4033
    -5.4026  -5.4003  -5.4003  -5.3985  -5.3981  -5.3963  -5.3963  -5.3940
    -5.3937  -5.3937  -5.3936  -5.3898  -5.3898  -5.3897  -5.3882  -5.3882
    -5.3858  -5.3858  -5.3839  -5.3826  -5.3826  -5.3815  -5.3815  -5.3778
    -5.3776  -5.3746  -5.3746  -5.3738  -5.3738  -5.3713  -5.3702  -5.3702
    -5.3679  -5.3679  -5.3669  -5.3646  -5.3646  -5.3635  -5.3635  -5.3630
    -5.3599  -5.3598  -5.3595  -5.3595  -5.3555  -5.3551  -5.3542  -5.3542
    -5.3521  -5.3521  -5.3493  -5.3488  -5.3488  -5.3443  -5.3423  -5.3423
    -5.3397  -5.3397  -5.3386  -5.3369  -5.3369  -5.3360  -5.3360  -5.3314
    -5.3302  -5.3302  -5.3287  -5.3283  -5.3283  -5.3270  -5.3263  -5.3262
    -5.3251  -5.3251  -5.3242  -5.3239  -5.3239  -5.3235  -5.3193  -5.3193
    -5.3178  -5.3170  -5.3162  -5.3162  -5.3158  -5.3158  -5.3125  -5.3125
    -5.3107  -5.3105  -5.3105  -5.3093  -5.3064  -5.3064  -5.3061  -5.3057
    -5.3045  -5.3036  -5.3036  -5.3003  -5.3003  -5.2991  -5.2991  -5.2962
    -5.2962  -5.2952  -5.2951  -5.2951  -5.2937  -5.2937  -5.2926  -5.2920
    -5.2912  -5.2912  -5.2893  -5.2893  -5.2854  -5.2849  -5.2849  -5.2847
    -5.2836  -5.2833  -5.2833  -5.2821  -5.2807  -5.2788  -5.2788  -5.2762
    -5.2762  -5.2761  -5.2740  -5.2740  -5.2720  -5.2714  -5.2714  -5.2707
    -5.2703  -5.2684  -5.2681  -5.2680  -5.2668  -5.2668  -5.2631  -5.2631
    -5.2629  -5.2619  -5.2611  -5.2611  -5.2609  -5.2601  -5.2595  -5.2595
    -5.2577  -5.2577  -5.2570  -5.2550  -5.2550  -5.2541  -5.2541  -5.2536
    -5.2513  -5.2513  -5.2508  -5.2488  -5.2486  -5.2486  -5.2477  -5.2477
    -5.2473  -5.2466  -5.2466  -5.2431  -5.2427  -5.2410  -5.2410  -5.2405
    -5.2405  -5.2399  -5.2364  -5.2364  -5.2357  -5.2338  -5.2333  -5.2333
    -5.2323  -5.2323  -5.2318  -5.2317  -5.2317  -5.2293  -5.2273  -5.2273
    -5.2250  -5.2241  -5.2241  -5.2202  -5.2202  -5.2201  -5.2174  -5.2164
    -5.2164  -5.2164  -5.2144  -5.2142  -5.2142  -5.2135  -5.2120  -5.2120
    -5.2086  -5.2086  -5.2082  -5.2073  -5.2059  -5.2059  -5.2032  -5.2032
    -5.2027  -5.2017  -5.2017  -5.2016  -5.1989  -5.1989  -5.1966  -5.1966
    -5.1963  -5.1930  -5.1930  -5.1920  -5.1920  -5.1891  -5.1888  -5.1875
    -5.1871  -5.1871  -5.1837  -5.1837  -5.1804  -5.1804  -5.1788  -5.1788
    -5.1782  -5.1771  -5.1771  -5.1770  -5.1717  -5.1717  -5.1705  -5.1689
    -5.1689  -5.1689  -5.1672  -5.1656  -5.1656  -5.1643  -5.1599  -5.1567
    -5.1567  -5.1529  -5.1513  -5.1509  -5.1509  -5.1507  -5.1481  -5.1481
    -5.1434  -5.1434  -5.1419  -5.1419  -5.1367  -5.1334  -5.1317  -5.1317
    -5.1316  -5.1316  -5.1307  -5.1244  -5.1217  -5.1217  -5.1200  -5.1147
    -5.1147  -5.1094  -5.1094  -5.1073  -5.1073  -5.1047  -5.0932  -5.0872
    -5.0872  -5.0828  -5.0726  -5.0726  -5.0618  -5.0549  -5.0501  -5.0501
    -5.0332  -5.0332  -5.0247  -5.0180  -5.0180  -5.0040  -4.9969  -4.9857
    -4.9857  -4.9784  -4.9784  -4.9760  -4.9620  -4.9620  -4.9546  -4.9546
    -4.9391  -4.9363  -4.9363  -4.9289  -4.9289  -4.9268  -4.9221  -4.9130
    -4.9130  -4.8786  -4.8778  -4.8778  -4.8657  -4.8620  -4.8574  -4.8574
    -4.8557  -4.8494  -4.8494  -4.8400  -4.8400  -4.8372  -4.8289  -4.8289
    -4.8175  -4.8175  -4.8164  -4.8074  -4.8074  -4.8049  -4.8040  -4.8040
    -4.7909  -4.7909  -4.7872  -4.7775  -4.7595  -4.7249  -4.7227  -4.7227
    -4.6975  -4.6975  -4.6810  -4.6809  -4.6506  -4.6315  -4.6315  -4.4971
    -4.4045  -4.3704  -3.9570  -3.9475  -3.9401  -3.9401  -3.9317  -3.9317
    -3.9233  -3.9233  -3.9193  -3.9193  -3.9137  -3.9123  -3.8803  -3.8803
    -3.8628  -3.8628  -3.8190  -3.7782  -3.7708  -3.7707  -3.7669  -3.7439
    -3.7439  -3.7236  -3.7236  -3.7178  -3.7050  -3.6984  -3.6984  -3.6755
    -3.6755  -3.6530  -3.6395  -3.6198  -3.6114  -3.6114  -3.5919  -3.5230
    -3.5230  -3.3578  -3.3394  -3.3328  -3.3328  -3.3241  -3.3241  -3.3173
    -3.2960  -3.2817  -3.2817  -3.2568  -3.2568  -3.2486  -3.2486  -3.2382
    -3.2339  -3.2339  -3.2187  -3.2115  -3.2115  -3.1932  -3.1495  -3.1495
    -3.1242  -3.0503  -3.0503  -3.0349  -2.9429  -2.9429  -2.8986  -2.7188
    -2.6310  -2.6310  -2.6206   1.9592   2.1633   2.1634   2.1647   2.1717
     2.1717   2.1779   2.4596   2.4596   2.4704   2.6106   2.6301   2.6301
     2.6778   2.6778   2.6997   2.6997   2.7074   2.7134   2.7134   2.7149
     2.7418   2.7418   2.7545   2.7546   2.7548   2.7719   2.7727   2.7728
     2.7773   2.7941   2.8223   2.8223   2.8740   3.0464   3.0464   3.0874
     3.1173   3.1173   3.1489   3.1912   3.1912   3.2051   3.2051   3.2115
     3.2339   3.2381   3.2381   3.2664   3.2935   3.2935   3.4035   3.4304
     3.4436   3.4523   3.4564   3.4565   3.4652   3.4792   3.4792   3.5108
     3.5109   3.5459   3.5459   3.5560   3.5587   3.5588   3.6650   3.7316
     3.7383   3.7383   3.7824   3.7982   3.7982   4.5564   4.6806   4.6806
     4.7054   4.7476   4.7586   4.7663   4.7663   4.7756   4.7757   4.7937
     4.7937   4.8016   4.8194   4.8194   4.8210   4.8344   4.8344   4.8407
     4.8408   4.8435   4.8618   4.8618   4.8620   4.8728   4.8729   4.8833
     4.9006   4.9159   4.9160   4.9740   4.9741   5.0084   5.0205   5.0241
     5.0469   5.0470   5.0552   5.0792   5.0792   5.0792   5.0961   5.0961
     5.3293   5.3293   5.6487   5.7513   5.7593   5.7594   5.7878   5.7878
     5.7918   5.8017   5.8135   5.8135   5.8412   5.8470   5.8471   5.8564
     5.8565   5.9016   5.9129   5.9130   5.9534   5.9564   5.9602   5.9655
     5.9673   5.9673   5.9888   5.9888   6.0032   6.0032   6.0123   6.0199
     6.0199   6.0395   6.0395   6.0594   6.0605   6.0605   6.0870   6.1641
     6.1641   6.2590   6.2809   6.2810   6.2900   6.2901   6.2985   6.3106
     6.3386   6.3386   6.3456   6.3456   6.3600   6.3825   6.4231   6.4266
     6.4266   6.4824   6.5253   6.5253   6.5552   6.6209   6.6209   6.6405
     6.6667   6.6841   6.6921   6.6921   6.7534   6.7535   6.7539   6.7710
     6.7894   6.7894   6.8292   6.8292   6.8622   6.8734   6.8734   6.9292
     6.9412   6.9412   7.0641   7.0749   7.0750   7.0952   7.1047   7.1047
     7.1171   7.1333   7.1333   7.1352   7.1540   7.1698   7.1699   7.1868
     7.1868   7.1899   7.1950   7.1950   7.2288   7.2423   7.2423   7.2831
     7.3336   7.3336   7.3411   7.3411   7.3510   7.3702   7.3816   7.3816
     7.4066   7.4066   7.4090   7.4536   7.4721   7.4762   7.4764   7.4765
     7.4938   7.4938   7.5186   7.5186   7.5461   7.5461   7.6418   7.6488
     7.6488   7.6639   7.6639   7.7129   7.7314   7.7314   7.7672   7.7751
     7.7751   7.7911   7.8009   7.8068   7.8068   7.8184   7.8185   7.8581
     7.9009   7.9010   7.9140   7.9141   7.9284   7.9657   7.9657   7.9716
     8.0490   8.0490   8.1329   8.1329   8.1962   8.2095   8.2096   8.2567
     8.3652   8.3653   8.4177   8.4181   8.4182   8.5836   8.6321   8.6322
     9.2749   9.3707   9.3708  10.2104  11.8919  11.9420  12.5203  12.5494
    12.5769  12.5769  12.6189  12.6189  12.6638  12.6819  12.7049  12.7049
    12.7086  12.7339  12.7339  12.7614  12.8254  12.9421  12.9690  12.9690
    13.0043  13.0043  13.0055  13.0348  13.0348  13.0884  13.0951  13.0951
    13.2931  13.5583  13.5583  13.5641  13.5764  13.5764  13.5950  13.7914
    13.7915  13.8384  13.9216  13.9216  13.9529  14.1814  14.1868  14.1869
    14.1977  14.1977  14.2063  14.2092  14.2092  14.2117  14.2117  14.2164
    14.2318  14.2396  14.2397  14.2426  14.2426  14.2558  14.2614  14.2614
    14.2672  14.2985  14.3173  14.3173  14.3586  14.3893  14.3894  14.4016
    14.5255  14.5256  14.5739  14.5811  14.5939  14.5939  14.6269  14.6269
    14.6805  14.7203  14.7296  14.7297  14.7528  14.7528  14.7548  14.7563
    14.7594  14.7594  14.7949  14.7949  14.8336  14.8340  14.8340  14.8751
    14.8909  14.9165  14.9165  15.0658  15.0659  15.4102  15.7546  15.7677
    15.7677  15.7706  15.7706  15.7761  15.7853  15.7853  15.7894  15.7947
    15.7947  15.8335  15.9434  15.9435  15.9483  15.9786  15.9787  15.9827
    15.9827  15.9831  16.0005  16.0039  16.0039  16.0191  16.0191  16.0237
    16.0505  16.0753  16.0767  16.0767  16.2357  16.2357  16.2495  16.2590
    16.2590  16.2753  16.2797  16.2836  16.2911  16.2911  16.2992  16.2992
    16.3035  16.3035  16.3062  16.3133  16.3133  16.3171  16.3615  16.3615
    16.3666  16.3700  16.3917  16.4007  16.4007  16.4193  16.4207  16.4207
    16.4236  16.4236  16.4289  16.4491  16.4508  16.4508  16.4936  16.4936
    16.5070  16.5280  16.5280  16.5399  16.5399  16.5700  16.6319

     occupation numbers 
     1.0000   1.0000   1.0000   1.0000   1.0000   1.0000   1.0000   1.0000
     1.0000   1.0000   1.0000   1.0000   1.0000   1.0000   1.0000   1.0000
     1.0000   1.0000   1.0000   1.0000   1.0000   1.0000   1.0000   1.0000
     1.0000   1.0000   1.0000   1.0000   1.0000   1.0000   1.0000   1.0000
     1.0000   1.0000   1.0000   1.0000   1.0000   1.0000   1.0000   1.0000
     1.0000   1.0000   1.0000   1.0000   1.0000   1.0000   1.0000   1.0000
     1.0000   1.0000   1.0000   1.0000   1.0000   1.0000   1.0000   1.0000
     1.0000   1.0000   1.0000   1.0000   1.0000   1.0000   1.0000   1.0000
     1.0000   1.0000   1.0000   1.0000   1.0000   1.0000   1.0000   1.0000
     1.0000   1.0000   1.0000   1.0000   1.0000   1.0000   1.0000   1.0000
     1.0000   1.0000   1.0000   1.0000   1.0000   1.0000   1.0000   1.0000
     1.0000   1.0000   1.0000   1.0000   1.0000   1.0000   1.0000   1.0000
     1.0000   1.0000   1.0000   1.0000   1.0000   1.0000   1.0000   1.0000
     1.0000   1.0000   1.0000   1.0000   1.0000   1.0000   1.0000   1.0000
     1.0000   1.0000   1.0000   1.0000   1.0000   1.0000   1.0000   1.0000
     1.0000   1.0000   1.0000   1.0000   1.0000   1.0000   1.0000   1.0000
     1.0000   1.0000   1.0000   1.0000   1.0000   1.0000   1.0000   1.0000
     1.0000   1.0000   1.0000   1.0000   1.0000   1.0000   1.0000   1.0000
     1.0000   1.0000   1.0000   1.0000   1.0000   1.0000   1.0000   1.0000
     1.0000   1.0000   1.0000   1.0000   1.0000   1.0000   1.0000   1.0000
     1.0000   1.0000   1.0000   1.0000   1.0000   1.0000   1.0000   1.0000
     1.0000   1.0000   1.0000   1.0000   1.0000   1.0000   1.0000   1.0000
     1.0000   1.0000   1.0000   1.0000   1.0000   1.0000   1.0000   1.0000
     1.0000   1.0000   1.0000   1.0000   1.0000   1.0000   1.0000   1.0000
     1.0000   1.0000   1.0000   1.0000   1.0000   1.0000   1.0000   1.0000
     1.0000   1.0000   1.0000   1.0000   1.0000   1.0000   1.0000   1.0000
     1.0000   1.0000   1.0000   1.0000   1.0000   1.0000   1.0000   1.0000
     1.0000   1.0000   1.0000   1.0000   1.0000   1.0000   1.0000   1.0000
     1.0000   1.0000   1.0000   1.0000   1.0000   1.0000   1.0000   1.0000
     1.0000   1.0000   1.0000   1.0000   1.0000   1.0000   1.0000   1.0000
     1.0000   1.0000   1.0000   1.0000   1.0000   1.0000   1.0000   1.0000
     1.0000   1.0000   1.0000   1.0000   1.0000   1.0000   1.0000   1.0000
     1.0000   1.0000   1.0000   1.0000   1.0000   1.0000   1.0000   1.0000
     1.0000   1.0000   1.0000   1.0000   1.0000   1.0000   1.0000   1.0000
     1.0000   1.0000   1.0000   1.0000   1.0000   1.0000   1.0000   1.0000
     1.0000   1.0000   1.0000   1.0000   1.0000   1.0000   1.0000   1.0000
     1.0000   1.0000   1.0000   1.0000   1.0000   1.0000   1.0000   1.0000
     1.0000   1.0000   1.0000   1.0000   1.0000   1.0000   1.0000   1.0000
     1.0000   1.0000   1.0000   1.0000   1.0000   1.0000   1.0000   1.0000
     1.0000   1.0000   1.0000   1.0000   1.0000   1.0000   1.0000   1.0000
     1.0000   1.0000   1.0000   1.0000   1.0000   1.0000   1.0000   1.0000
     1.0000   1.0000   1.0000   1.0000   1.0000   1.0000   1.0000   1.0000
     1.0000   1.0000   1.0000   1.0000   1.0000   1.0000   1.0000   1.0000
     1.0000   1.0000   1.0000   1.0000   1.0000   1.0000   1.0000   1.0000
     1.0000   1.0000   1.0000   1.0000   1.0000   1.0000   1.0000   1.0000
     1.0000   1.0000   1.0000   1.0000   1.0000   1.0000   1.0000   1.0000
     1.0000   1.0000   1.0000   1.0000   1.0000   1.0000   1.0000   1.0000
     1.0000   1.0000   1.0000   1.0000   1.0000   1.0000   1.0000   1.0000
     1.0000   1.0000   1.0000   1.0000   1.0000   1.0000   1.0000   1.0000
     1.0000   1.0000   1.0000   1.0000   1.0000   1.0000   1.0000   1.0000
     1.0000   1.0000   1.0000   1.0000   1.0000   1.0000   1.0000   1.0000
     1.0000   1.0000   1.0000   1.0000   1.0000   1.0000   1.0000   1.0000
     1.0000   1.0000   1.0000   1.0000   1.0000   1.0000   1.0000   1.0000
     1.0000   1.0000   1.0000   1.0000   1.0000   1.0000   1.0000   1.0000
     1.0000   1.0000   1.0000   1.0000   1.0000   1.0000   1.0000   1.0000
     1.0000   1.0000   1.0000   1.0000   1.0000   1.0000   1.0000   1.0000
     1.0000   1.0000   1.0000   1.0000   1.0000   1.0000   1.0000   1.0000
     1.0000   1.0000   1.0000   1.0000   1.0000   1.0000   1.0000   1.0000
     1.0000   1.0000   1.0000   1.0000   1.0000   1.0000   1.0000   1.0000
     1.0000   1.0000   1.0000   1.0000   1.0000   1.0000   1.0000   1.0000
     1.0000   1.0000   1.0000   1.0000   1.0000   1.0000   1.0000   1.0000
     1.0000   1.0000   1.0000   1.0000   1.0000   1.0000   1.0000   1.0000
     1.0000   1.0000   1.0000   1.0000   1.0000   1.0000   1.0000   1.0000
     1.0000   1.0000   1.0000   1.0000   1.0000   1.0000   1.0000   1.0000
     1.0000   1.0000   1.0000   1.0000   1.0000   1.0000   1.0000   1.0000
     1.0000   1.0000   1.0000   1.0000   1.0000   1.0000   1.0000   1.0000
     1.0000   1.0000   1.0000   1.0000   1.0000   1.0000   1.0000   1.0000
     1.0000   1.0000   1.0000   1.0000   1.0000   1.0000   1.0000   1.0000
     1.0000   1.0000   1.0000   1.0000   1.0000   1.0000   1.0000   1.0000
     1.0000   1.0000   1.0000   1.0000   1.0000   1.0000   1.0000   1.0000
     1.0000   1.0000   1.0000   1.0000   1.0000   1.0000   1.0000   1.0000
     1.0000   1.0000   1.0000   1.0000   1.0000   1.0000   1.0000   1.0000
     1.0000   1.0000   1.0000   1.0000   1.0000   1.0000   1.0000   1.0000
     1.0000   1.0000   1.0000   1.0000   1.0000   1.0000   1.0000   1.0000
     1.0000   1.0000   1.0000   1.0000   1.0000   1.0000   1.0000   1.0000
     1.0000   1.0000   1.0000   1.0000   1.0000   1.0000   1.0000   1.0000
     1.0000   1.0000   1.0000   1.0000   1.0000   1.0000   1.0000   1.0000
     1.0000   1.0000   1.0000   1.0000   1.0000   1.0000   1.0000   1.0000
     1.0000   1.0000   1.0000   1.0000   1.0000   1.0000   1.0000   1.0000
     1.0000   1.0000   1.0000   1.0000   1.0000   1.0000   1.0000   1.0000
     1.0000   1.0000   1.0000   1.0000   1.0000   1.0000   1.0000   1.0000
     1.0000   1.0000   1.0000   1.0000   1.0000   1.0000   1.0000   1.0000
     1.0000   1.0000   1.0000   1.0000   1.0000   1.0000   1.0000   1.0000
     1.0000   1.0000   1.0000   1.0000   1.0000   1.0000   1.0000   1.0000
     1.0000   1.0000   1.0000   1.0000   1.0000   1.0000   1.0000   1.0000
     1.0000   1.0000   1.0000   1.0000   1.0000   1.0000   1.0000   1.0000
     1.0000   1.0000   1.0000   1.0000   1.0000   1.0000   1.0000   1.0000
     1.0000   1.0000   1.0000   1.0000   1.0000   1.0000   1.0000   1.0000
     1.0000   1.0000   1.0000   1.0000   1.0000   1.0000   1.0000   1.0000
     1.0000   1.0000   1.0000   1.0000   1.0000   1.0000   1.0000   1.0000
     1.0000   1.0000   1.0000   1.0000   1.0000   1.0000   1.0000   1.0000
     1.0000   1.0000   1.0000   1.0000   1.0000   1.0000   1.0000   1.0000
     1.0000   1.0000   1.0000   1.0000   1.0000   1.0000   1.0000   1.0000
     1.0000   1.0000   1.0000   1.0000   1.0000   1.0000   1.0000   1.0000
     1.0000   1.0000   1.0000   1.0000   1.0000   1.0000   1.0000   1.0000
     1.0000   1.0000   1.0000   1.0000   1.0000   1.0000   1.0000   1.0000
     1.0000   1.0000   1.0000   1.0000   1.0000   1.0000   1.0000   1.0000
     1.0000   1.0000   1.0000   1.0000   1.0000   1.0000   1.0000   1.0000
     1.0000   1.0000   1.0000   1.0000   1.0000   1.0000   1.0000   1.0000
     1.0000   1.0000   1.0000   1.0000   1.0000   1.0000   1.0000   1.0000
     1.0000   1.0000   1.0000   1.0000   1.0000   1.0000   1.0000   1.0000
     1.0000   1.0000   1.0000   1.0000   1.0000   1.0000   1.0000   1.0000
     1.0000   1.0000   1.0000   1.0000   1.0000   1.0000   1.0000   1.0000
     1.0000   1.0000   1.0000   1.0000   1.0000   1.0000   1.0000   1.0000
     1.0000   1.0000   1.0000   1.0000   1.0000   1.0000   1.0000   1.0000
     1.0000   1.0000   1.0000   1.0000   1.0000   1.0000   1.0000   1.0000
     1.0000   1.0000   1.0000   1.0000   1.0000   1.0000   1.0000   1.0000
     0.9208   0.6607   0.6607   0.0000   0.0000   0.0000   0.0000   0.0000
     0.0000   0.0000   0.0000   0.0000   0.0000   0.0000   0.0000   0.0000
     0.0000   0.0000   0.0000   0.0000   0.0000   0.0000   0.0000   0.0000
     0.0000   0.0000   0.0000   0.0000   0.0000   0.0000   0.0000   0.0000
     0.0000   0.0000   0.0000   0.0000   0.0000   0.0000   0.0000   0.0000
     0.0000   0.0000   0.0000   0.0000   0.0000   0.0000   0.0000   0.0000
     0.0000   0.0000   0.0000   0.0000   0.0000   0.0000   0.0000   0.0000
     0.0000   0.0000   0.0000   0.0000   0.0000   0.0000   0.0000   0.0000
     0.0000   0.0000   0.0000   0.0000   0.0000   0.0000   0.0000   0.0000
     0.0000   0.0000   0.0000   0.0000   0.0000   0.0000   0.0000   0.0000
     0.0000   0.0000   0.0000   0.0000   0.0000   0.0000   0.0000   0.0000
     0.0000   0.0000   0.0000   0.0000   0.0000   0.0000   0.0000   0.0000
     0.0000   0.0000   0.0000   0.0000   0.0000   0.0000   0.0000   0.0000
     0.0000   0.0000   0.0000   0.0000   0.0000   0.0000   0.0000   0.0000
     0.0000   0.0000   0.0000   0.0000   0.0000   0.0000   0.0000   0.0000
     0.0000   0.0000   0.0000   0.0000   0.0000   0.0000   0.0000   0.0000
     0.0000   0.0000   0.0000   0.0000   0.0000   0.0000   0.0000   0.0000
     0.0000   0.0000   0.0000   0.0000   0.0000   0.0000   0.0000   0.0000
     0.0000   0.0000   0.0000   0.0000   0.0000   0.0000   0.0000   0.0000
     0.0000   0.0000   0.0000   0.0000   0.0000   0.0000   0.0000   0.0000
     0.0000   0.0000   0.0000   0.0000   0.0000   0.0000   0.0000   0.0000
     0.0000   0.0000   0.0000   0.0000   0.0000   0.0000   0.0000

          k = 0.0000 0.0000-0.4090 (154532 PWs)   bands (ev):

    -6.9844  -6.8898  -6.7203  -6.7131  -6.7131  -6.6940  -6.6939  -6.6736
    -6.6681  -6.6588  -6.6479  -6.6423  -6.6423  -6.6096  -6.6095  -6.5948
    -6.5929  -6.5929  -6.5826  -6.5810  -6.5796  -6.5784  -6.5784  -6.5750
    -6.5750  -6.5672  -6.5672  -6.5588  -6.5580  -6.5580  -6.5540  -6.5491
    -6.5486  -6.5486  -6.5450  -6.5450  -6.5442  -6.5371  -6.5371  -6.5356
    -6.5356  -6.5331  -6.5324  -6.5297  -6.5199  -6.5199  -6.5196  -6.5170
    -6.5115  -6.5114  -6.5061  -6.5061  -6.5040  -6.4955  -6.4955  -6.4919
    -6.4875  -6.4875  -6.4874  -6.4837  -6.4837  -6.4746  -6.4676  -6.4654
    -6.4654  -6.4616  -6.4616  -6.4493  -6.4433  -6.4403  -6.4403  -6.4109
    -6.4107  -6.4107  -6.4046  -6.4046  -6.3831  -6.3831  -6.3795  -6.3750
    -6.3738  -6.3738  -6.3515  -6.3515  -6.3497  -6.3380  -6.3380  -6.3373
    -6.3230  -6.3221  -6.3221  -6.2799  -5.9446  -5.9198  -5.9197  -5.9144
    -5.4940  -5.4940  -5.4692  -5.4675  -5.4660  -5.4660  -5.4632  -5.4632
    -5.4620  -5.4578  -5.4578  -5.4569  -5.4511  -5.4511  -5.4495  -5.4488
    -5.4488  -5.4445  -5.4418  -5.4418  -5.4376  -5.4376  -5.4353  -5.4353
    -5.4349  -5.4332  -5.4332  -5.4304  -5.4250  -5.4250  -5.4222  -5.4214
    -5.4202  -5.4202  -5.4175  -5.4167  -5.4167  -5.4109  -5.4059  -5.4059
    -5.4029  -5.4023  -5.4023  -5.4017  -5.3985  -5.3966  -5.3966  -5.3953
    -5.3947  -5.3933  -5.3933  -5.3908  -5.3900  -5.3900  -5.3893  -5.3893
    -5.3863  -5.3863  -5.3834  -5.3834  -5.3820  -5.3814  -5.3814  -5.3810
    -5.3764  -5.3755  -5.3755  -5.3741  -5.3738  -5.3738  -5.3716  -5.3716
    -5.3692  -5.3667  -5.3667  -5.3650  -5.3650  -5.3638  -5.3630  -5.3630
    -5.3616  -5.3602  -5.3601  -5.3601  -5.3561  -5.3541  -5.3541  -5.3530
    -5.3512  -5.3511  -5.3456  -5.3454  -5.3454  -5.3423  -5.3423  -5.3411
    -5.3402  -5.3390  -5.3372  -5.3372  -5.3361  -5.3355  -5.3355  -5.3339
    -5.3339  -5.3306  -5.3306  -5.3303  -5.3302  -5.3300  -5.3300  -5.3284
    -5.3247  -5.3247  -5.3230  -5.3228  -5.3228  -5.3222  -5.3200  -5.3200
    -5.3193  -5.3164  -5.3164  -5.3141  -5.3130  -5.3129  -5.3129  -5.3099
    -5.3097  -5.3097  -5.3082  -5.3082  -5.3079  -5.3066  -5.3054  -5.3054
    -5.3043  -5.3036  -5.3036  -5.3031  -5.3031  -5.2996  -5.2996  -5.2975
    -5.2970  -5.2970  -5.2961  -5.2961  -5.2959  -5.2937  -5.2937  -5.2927
    -5.2918  -5.2918  -5.2898  -5.2898  -5.2897  -5.2888  -5.2858  -5.2849
    -5.2849  -5.2829  -5.2822  -5.2822  -5.2809  -5.2797  -5.2797  -5.2788
    -5.2788  -5.2786  -5.2782  -5.2768  -5.2758  -5.2758  -5.2733  -5.2733
    -5.2708  -5.2692  -5.2692  -5.2691  -5.2675  -5.2675  -5.2674  -5.2653
    -5.2653  -5.2646  -5.2631  -5.2631  -5.2580  -5.2578  -5.2578  -5.2574
    -5.2574  -5.2566  -5.2560  -5.2560  -5.2549  -5.2548  -5.2548  -5.2530
    -5.2510  -5.2510  -5.2503  -5.2497  -5.2490  -5.2490  -5.2468  -5.2468
    -5.2453  -5.2453  -5.2451  -5.2415  -5.2415  -5.2408  -5.2408  -5.2406
    -5.2402  -5.2380  -5.2362  -5.2361  -5.2361  -5.2344  -5.2344  -5.2323
    -5.2309  -5.2308  -5.2308  -5.2283  -5.2283  -5.2267  -5.2267  -5.2267
    -5.2240  -5.2240  -5.2211  -5.2211  -5.2199  -5.2199  -5.2184  -5.2183
    -5.2183  -5.2159  -5.2154  -5.2142  -5.2142  -5.2111  -5.2111  -5.2092
    -5.2083  -5.2083  -5.2067  -5.2055  -5.2055  -5.2041  -5.2030  -5.2030
    -5.2010  -5.2007  -5.2007  -5.1986  -5.1986  -5.1971  -5.1971  -5.1948
    -5.1935  -5.1935  -5.1930  -5.1901  -5.1894  -5.1894  -5.1883  -5.1869
    -5.1869  -5.1840  -5.1840  -5.1809  -5.1809  -5.1790  -5.1789  -5.1775
    -5.1775  -5.1768  -5.1763  -5.1734  -5.1706  -5.1706  -5.1695  -5.1682
    -5.1679  -5.1679  -5.1654  -5.1654  -5.1612  -5.1598  -5.1573  -5.1573
    -5.1568  -5.1546  -5.1521  -5.1520  -5.1520  -5.1476  -5.1476  -5.1428
    -5.1428  -5.1425  -5.1425  -5.1369  -5.1334  -5.1318  -5.1318  -5.1317
    -5.1317  -5.1306  -5.1256  -5.1202  -5.1179  -5.1179  -5.1168  -5.1144
    -5.1144  -5.1106  -5.1106  -5.1078  -5.1078  -5.1040  -5.0874  -5.0874
    -5.0829  -5.0727  -5.0727  -5.0682  -5.0549  -5.0503  -5.0477  -5.0477
    -5.0353  -5.0353  -5.0035  -5.0035  -4.9969  -4.9936  -4.9861  -4.9861
    -4.9814  -4.9756  -4.9756  -4.9713  -4.9713  -4.9550  -4.9550  -4.9425
    -4.9391  -4.9316  -4.9316  -4.9268  -4.9266  -4.9266  -4.9223  -4.9223
    -4.9097  -4.8983  -4.8913  -4.8825  -4.8825  -4.8760  -4.8620  -4.8598
    -4.8598  -4.8512  -4.8512  -4.8475  -4.8475  -4.8469  -4.8333  -4.8322
    -4.8322  -4.8277  -4.8277  -4.8211  -4.8164  -4.8158  -4.8158  -4.8105
    -4.8105  -4.8049  -4.7936  -4.7936  -4.7888  -4.7888  -4.7872  -4.7775
    -4.7736  -4.7735  -4.6928  -4.4198  -4.4061  -4.3908  -4.3908  -4.3828
    -4.3828  -4.3359  -4.3359  -4.3202  -4.3202  -4.2797  -4.1531  -3.9296
    -3.9266  -3.9266  -3.9079  -3.9079  -3.9051  -3.9032  -3.8273  -3.8245
    -3.8245  -3.7969  -3.7969  -3.7716  -3.7701  -3.7673  -3.7672  -3.7631
    -3.6371  -3.6371  -3.6009  -3.5411  -3.5369  -3.5369  -3.5298  -3.5263
    -3.5263  -3.5223  -3.5223  -3.5168  -3.5168  -3.5082  -3.4821  -3.4821
    -3.4802  -3.4793  -3.4793  -3.4686  -3.4487  -3.4478  -3.4477  -3.4409
    -3.4242  -3.4242  -3.3851  -3.3652  -3.3652  -3.3188  -3.3188  -3.2843
    -3.2269  -3.2269  -3.2076  -3.1288  -3.1042  -3.1042  -3.0905  -3.0905
    -3.0596  -3.0550  -3.0516  -3.0516  -2.9816  -2.9816  -2.9322  -2.7144
    -2.6377  -2.6377  -2.6303   2.2181   2.2182   2.2193   2.2684   2.2684
     2.2715   2.3318   2.3391   2.3521   2.3521   2.4209   2.4209   2.4422
     2.4626   2.8006   2.8006   2.8178   2.8178   2.8203   2.8257   2.8285
     2.8313   2.8313   2.8412   2.8412   2.8536   2.8536   2.8582   2.8748
     2.8748   2.8757   2.8862   2.8903   2.8903   2.8988   2.9002   2.9071
     2.9071   2.9426   2.9426   2.9779   2.9853   2.9853   3.0239   3.0239
     3.0549   3.0847   3.0847   3.0897   3.1813   3.1909   3.1910   3.2738
     3.3162   3.3163   3.5135   3.5135   3.5215   3.5240   3.5504   3.5505
     3.5597   3.6345   3.6345   3.6505   3.7218   3.7218   4.0907   4.1091
     4.1162   4.1293   4.1293   4.1447   4.1447   4.1974   4.1974   4.2200
     4.2201   4.2690   4.6973   4.7845   4.7910   4.7972   4.7972   4.8162
     4.8162   4.8733   4.8923   4.8923   4.8959   4.9005   4.9513   4.9534
     4.9534   4.9586   4.9637   4.9637   4.9898   4.9898   5.0059   5.0497
     5.0498   5.0534   5.0783   5.0885   5.0885   5.1220   5.1220   5.1568
     5.1708   5.1708   5.2613   5.2613   5.2685   5.2861   5.2986   5.2986
     5.3344   5.3344   5.3878   5.4319   5.4319   5.4331   5.4571   5.4613
     5.4726   5.4826   5.4826   5.4923   5.4923   5.4970   5.5311   5.5311
     5.5359   5.5493   5.5494   5.5614   5.5614   5.5748   5.6136   5.6492
     5.6493   5.6632   5.6633   5.8209   5.8365   5.8365   6.1014   6.1033
     6.1033   6.2415   6.2714   6.2714   6.4254   6.4270   6.4316   6.4317
     6.4762   6.4859   6.4859   6.5258   6.5581   6.5581   6.6438   6.6525
     6.6568   6.6568   6.6638   6.6639   6.6915   6.7042   6.7042   6.7151
     6.7151   6.7428   6.7428   6.7597   6.7845   6.7876   6.7876   6.7948
     6.7948   6.7989   6.8030   6.8031   6.8141   6.8141   6.8164   6.8208
     6.8247   6.8311   6.8374   6.8374   6.8420   6.8420   6.8862   6.8967
     6.8968   6.9182   6.9377   6.9377   6.9539   6.9553   6.9570   6.9570
     6.9958   7.0067   7.0067   7.0265   7.0265   7.0300   7.0323   7.0323
     7.0504   7.0504   7.0584   7.0897   7.0904   7.0904   7.1236   7.1246
     7.1246   7.1612   7.1672   7.1672   7.2079   7.2334   7.2334   7.3793
     7.3793   7.4067   7.4177   7.4178   7.4373   7.4448   7.4582   7.4582
     7.4597   7.4628   7.4629   7.5142   7.5189   7.5190   7.5614   7.5615
     7.6708   7.6709   7.7014   7.7086   7.7448   7.7448   7.7728   7.8019
     7.8560   7.8764   7.8764   7.8972   7.9082   7.9083   7.9369   7.9369
     7.9469   7.9470   8.0027   8.0091   8.0092   8.0242   8.0267   8.0267
     8.0326   8.0630   8.0631   8.1402   8.1514   8.1514   8.1723   8.1723
     8.1846   8.1847   8.2171   8.4499   8.5373   8.5373   8.5938   8.5938
     9.2336   9.3698   9.3698  10.8804  10.9943  12.4882  12.5215  12.5648
    12.5873  12.5873  12.5927  12.6317  12.6318  12.6437  12.6625  12.6907
    12.6907  12.7556  12.7557  12.7842  12.9234  12.9760  12.9761  12.9872
    12.9873  12.9942  13.0071  13.2185  13.2186  13.2281  13.2917  13.2918
    13.3585  13.6119  13.6338  13.6338  13.6423  13.6523  13.6523  13.6814
    13.6866  13.6867  13.6931  13.6932  13.7251  13.7252  13.7365  13.8364
    13.8862  13.8862  13.9655  14.2624  14.2773  14.2773  14.2832  14.2833
    14.2951  14.2970  14.3069  14.3070  14.3165  14.3165  14.3225  14.3226
    14.3278  14.3565  14.3909  14.3942  14.3942  14.4283  14.4359  14.4360
    14.5236  14.5237  14.5326  14.5326  14.5562  14.6044  14.6044  14.6066
    14.6385  14.6385  14.6423  14.6535  14.6697  14.6697  14.7212  14.7212
    14.7261  14.7698  14.7774  14.7871  14.7871  14.8304  14.8320  14.8320
    15.0566  15.0566  15.3110  15.5282  15.5283  15.5447  15.5607  15.5607
    15.6174  15.8261  15.8300  15.8301  15.8335  15.8363  15.8364  15.9149
    15.9149  15.9286  15.9520  15.9579  15.9579  16.0215  16.0215  16.0325
    16.0486  16.0486  16.0521  16.0536  16.0536  16.0553  16.0553  16.0609
    16.0713  16.0717  16.0845  16.0845  16.0881  16.1131  16.1131  16.1460
    16.1460  16.1495  16.1654  16.1654  16.1881  16.2084  16.2084  16.2347
    16.2371  16.2371  16.2908  16.3145  16.3145  16.3148  16.3224  16.3238
    16.3238  16.3689  16.3689  16.3750  16.3803  16.3877  16.4064  16.4064
    16.4065  16.4107  16.4107  16.4443  16.4471  16.4471  16.5038  16.5039
    16.5215  16.5215  16.5776  16.6315  16.6315  16.6865  16.6866

     occupation numbers 
     1.0000   1.0000   1.0000   1.0000   1.0000   1.0000   1.0000   1.0000
     1.0000   1.0000   1.0000   1.0000   1.0000   1.0000   1.0000   1.0000
     1.0000   1.0000   1.0000   1.0000   1.0000   1.0000   1.0000   1.0000
     1.0000   1.0000   1.0000   1.0000   1.0000   1.0000   1.0000   1.0000
     1.0000   1.0000   1.0000   1.0000   1.0000   1.0000   1.0000   1.0000
     1.0000   1.0000   1.0000   1.0000   1.0000   1.0000   1.0000   1.0000
     1.0000   1.0000   1.0000   1.0000   1.0000   1.0000   1.0000   1.0000
     1.0000   1.0000   1.0000   1.0000   1.0000   1.0000   1.0000   1.0000
     1.0000   1.0000   1.0000   1.0000   1.0000   1.0000   1.0000   1.0000
     1.0000   1.0000   1.0000   1.0000   1.0000   1.0000   1.0000   1.0000
     1.0000   1.0000   1.0000   1.0000   1.0000   1.0000   1.0000   1.0000
     1.0000   1.0000   1.0000   1.0000   1.0000   1.0000   1.0000   1.0000
     1.0000   1.0000   1.0000   1.0000   1.0000   1.0000   1.0000   1.0000
     1.0000   1.0000   1.0000   1.0000   1.0000   1.0000   1.0000   1.0000
     1.0000   1.0000   1.0000   1.0000   1.0000   1.0000   1.0000   1.0000
     1.0000   1.0000   1.0000   1.0000   1.0000   1.0000   1.0000   1.0000
     1.0000   1.0000   1.0000   1.0000   1.0000   1.0000   1.0000   1.0000
     1.0000   1.0000   1.0000   1.0000   1.0000   1.0000   1.0000   1.0000
     1.0000   1.0000   1.0000   1.0000   1.0000   1.0000   1.0000   1.0000
     1.0000   1.0000   1.0000   1.0000   1.0000   1.0000   1.0000   1.0000
     1.0000   1.0000   1.0000   1.0000   1.0000   1.0000   1.0000   1.0000
     1.0000   1.0000   1.0000   1.0000   1.0000   1.0000   1.0000   1.0000
     1.0000   1.0000   1.0000   1.0000   1.0000   1.0000   1.0000   1.0000
     1.0000   1.0000   1.0000   1.0000   1.0000   1.0000   1.0000   1.0000
     1.0000   1.0000   1.0000   1.0000   1.0000   1.0000   1.0000   1.0000
     1.0000   1.0000   1.0000   1.0000   1.0000   1.0000   1.0000   1.0000
     1.0000   1.0000   1.0000   1.0000   1.0000   1.0000   1.0000   1.0000
     1.0000   1.0000   1.0000   1.0000   1.0000   1.0000   1.0000   1.0000
     1.0000   1.0000   1.0000   1.0000   1.0000   1.0000   1.0000   1.0000
     1.0000   1.0000   1.0000   1.0000   1.0000   1.0000   1.0000   1.0000
     1.0000   1.0000   1.0000   1.0000   1.0000   1.0000   1.0000   1.0000
     1.0000   1.0000   1.0000   1.0000   1.0000   1.0000   1.0000   1.0000
     1.0000   1.0000   1.0000   1.0000   1.0000   1.0000   1.0000   1.0000
     1.0000   1.0000   1.0000   1.0000   1.0000   1.0000   1.0000   1.0000
     1.0000   1.0000   1.0000   1.0000   1.0000   1.0000   1.0000   1.0000
     1.0000   1.0000   1.0000   1.0000   1.0000   1.0000   1.0000   1.0000
     1.0000   1.0000   1.0000   1.0000   1.0000   1.0000   1.0000   1.0000
     1.0000   1.0000   1.0000   1.0000   1.0000   1.0000   1.0000   1.0000
     1.0000   1.0000   1.0000   1.0000   1.0000   1.0000   1.0000   1.0000
     1.0000   1.0000   1.0000   1.0000   1.0000   1.0000   1.0000   1.0000
     1.0000   1.0000   1.0000   1.0000   1.0000   1.0000   1.0000   1.0000
     1.0000   1.0000   1.0000   1.0000   1.0000   1.0000   1.0000   1.0000
     1.0000   1.0000   1.0000   1.0000   1.0000   1.0000   1.0000   1.0000
     1.0000   1.0000   1.0000   1.0000   1.0000   1.0000   1.0000   1.0000
     1.0000   1.0000   1.0000   1.0000   1.0000   1.0000   1.0000   1.0000
     1.0000   1.0000   1.0000   1.0000   1.0000   1.0000   1.0000   1.0000
     1.0000   1.0000   1.0000   1.0000   1.0000   1.0000   1.0000   1.0000
[...]
              0.163265073943142E+03
              0.485867243016146E+01
              0.508880845965386E+03
              0.706852109900487E+02
             -0.742074570251550E+02
              0.290033913100392E+02
             -0.681855211292791E+02
              0.399698412207526E+03
             -0.237681642432858E+01
              0.763759041000108E+02
              0.277523101701285E+03
              0.744741329223325E+02
             -0.210772624033135E+03
             -0.341775773980470E+03
              0.191895162471360E+02
             -0.388870269891932E+03
              0.130375598886311E+03
             -0.674727403432089E+02
             -0.149753437694088E+03
              0.151722072458573E+03
              0.525459361805651E+02
              0.145989724455959E+03
              0.629744982239674E+01
              0.216753378744470E+03
             -0.368099924374390E+03
             -0.261927504533912E+02
             -0.323127755504384E+03
              0.721114186207947E+02
              0.177228686217578E+03
             -0.179720722058310E+02
             -0.118014083105224E+03
              0.265013855724894E+03
             -0.122667822929336E+03
              0.906794775110859E+02
             -0.779114267867994E+02
              0.209770782019657E+03
              0.220681679993362E+03
             -0.955535953049457E+02
              0.189350890395159E+03
              0.710840386203663E+02
             -0.191075473520795E+03
             -0.124766128460895E+03
              0.306940196083769E+03
              0.150584630828565E+03
             -0.129372639239572E+02
             -0.325609880255679E+02
              0.472766647940637E+03
              0.278740059535640E+03
              0.991493364516994E+02
             -0.297746107313387E+03
              0.477001884219974E+03
             -0.222778801843767E+03
             -0.275094402309077E+03
             -0.414457347488746E+03
              0.184805942147442E+03
             -0.372542609729968E+03
              0.168483702928776E+03
              0.272327823224400E+03
              0.193887853884179E+03
              0.494155683374769E+02
              0.128442947434737E+03
             -0.307052510066211E+03
             -0.109970238961939E+03
             -0.835168355792284E+02
              0.157616509955205E+03
              0.312173935843703E+03
              0.322717222903965E+03
              0.248866685286451E+03
             -0.570349413389717E+02
              0.793363852089742E+02
              0.435329644948888E+01
             -0.102332538434391E+03
              0.131527592027925E+03
              0.143183379258728E+03
             -0.181422380356054E+03
             -0.215737306742805E+03
             -0.851051246456725E+02
              0.224161516319339E+03
              0.107429329538768E+03
             -0.153804246516330E+03
             -0.235530576500990E+03
             -0.342897039099674E+03
              0.704349681486258E+01
              0.919825497542088E+02
             -0.129535359384076E+03
              0.479611240973290E+03
              0.232467859353083E+02
             -0.543566341551433E+03
              0.120344005323385E+03
              0.238373361656183E+03
             -0.109216018359944E+03
              0.132403614205206E+02
             -0.151384024400459E+03
              0.222263025562609E+03
              0.102792355740839E+03
             -0.284462030396804E+03
              0.338771932740360E+03
              0.949549286624017E+01
             -0.145433405129536E+03
             -0.172534490542192E+03
              0.674533993940739E+03
              0.300538701369580E+03
             -0.837579211261523E+02
              0.165511834746075E+03
             -0.294950020175249E+03
             -0.527029843189202E+02
             -0.299139300144991E+03
              0.119867631082663E+03
              0.203633064639735E+03
              0.241842327480573E+03
             -0.963487758490164E+02
              0.284444282031773E+02
              0.276156974413163E+03
              0.102269925317476E+03
              0.173084434535846E+03
              0.736725420273419E+02
             -0.497383242267354E+02
              0.739192483201123E+01
             -0.455870350058198E+02
              0.702959712916543E+02
              0.155271958927658E+02
             -0.251569238139324E+03
              0.383020565027677E+03
              0.153182177587809E+03
             -0.275182316855983E+03
             -0.204105898296734E+03
             -0.295885007005829E+03
             -0.140117615842878E+03
             -0.103067070961594E+03
             -0.228873643913134E+03
             -0.224054770955350E+03
              0.282510567944365E+03
              0.222776022808838E+03
             -0.278085913053890E+02
              0.324816264197593E+03
              0.615121107593177E+02
             -0.524317213477007E+03
              0.295720255874173E+03
              0.683297730999270E+02
              0.228123898698518E+03
              0.509702256683935E+02
              0.381610605549452E+02
              0.451771037831011E+02
              0.118795036601337E+03
             -0.217383598045016E+03
             -0.108556320813990E+03
             -0.199621885698530E+03
             -0.165721447278428E+03
              0.755512110684315E+02
             -0.189827670565470E+03
              0.887394744320046E+02
              0.117449575003944E+03
             -0.124948378870366E+03
             -0.658867788826034E+02
             -0.582248023586385E+01
              0.324589382233697E+03
              0.515295932066026E+02
              0.321821321582304E+03
              0.114454991718457E+03
             -0.415728854112501E+03
             -0.141555416470149E+03
              0.142042796366241E+03
              0.319675447003421E+03
              0.615528894469224E+02
              0.124927606603868E+03
              0.301506143964905E+03
             -0.175467395175101E+03
             -0.284802346569363E+03
              0.369977815514744E+03
              0.607914651194824E+01
             -0.392334518998426E+03
              0.131510947418754E+03
              0.259694362004053E+03
             -0.599848809300788E+02
             -0.245503721067950E+03
              0.436166490512751E+02
              0.160878171885593E+02
             -0.134353847980375E+03
              0.488064911904949E+02
             -0.419611612505273E+02
              0.578038014386867E+03
              0.159403329673442E+03
             -0.265292710794975E+03
              0.802570513860747E+02
              0.371204847914250E+03
             -0.237857750007530E+03
             -0.634717563518616E+02
             -0.210527261367892E+03
              0.168024655277207E+03
              0.714445423168102E+02
              0.111566856733073E+03
              0.857091969522821E+01
              0.416807177559948E+03
             -0.233152426936606E+03
             -0.176996706675700E+03
             -0.195302681035979E+03
              0.167924594613453E+03
              0.400971182189478E+03
             -0.506847452402018E+02
              0.165655453669801E+03
             -0.224152072500882E+03
              0.224901678972706E+02
             -0.664062942697270E+02
             -0.223674638096215E+02
             -0.954701395552182E+02
             -0.878925910975056E+02
             -0.648156154293257E+02
              0.693335002237288E+02
              0.116771152144995E+03
             -0.269047484450930E+03
              0.195516802247690E+03
             -0.316014374445139E+03
              0.235996449492810E+03
             -0.274069883623877E+03
              0.414622804178537E+03
              0.221036894289907E+03
              0.246628472403052E+03
              0.564627099209156E+02
              0.633334469458036E+02
             -0.556350265519080E+03
              0.954677480757826E+02
              0.252792193227629E+02
              0.436715537928776E+02
             -0.829702245903176E+02
              0.432878230577972E+03
             -0.131662729105714E+03
             -0.170989996971212E+03
             -0.429293439947773E+03
             -0.142901817756977E+03
             -0.194949768605736E+03
             -0.172878167522452E+03
             -0.473495715953341E+02
             -0.904950257505411E+02
             -0.119900758189375E+03
             -0.180334548033153E+03
              0.134435115328032E+03
              0.444160499308959E+03
              0.378741315063225E+03
             -0.753913569696233E+02
             -0.464803887454439E+03
             -0.195444349906040E+03
              0.896430306023776E+02
              0.992248379139662E+02
              0.143647578614592E+03
              0.111852288515880E+03
              0.364555774735420E+02
              0.430035085364865E+03
             -0.106697302434347E+03
              0.218237455321081E+03
              0.100148869300414E+03
             -0.140847694115347E+03
             -0.885772875093373E+02
              0.198834101586293E+03
             -0.115123943559840E+03
             -0.817664876229639E+02
             -0.530284757080858E+02
              0.248486702771704E+03
             -0.332945530763393E+03
             -0.367512548569657E+02
             -0.272617885993335E+03
             -0.589468978690681E+03
              0.220355344354607E+01
             -0.729602764892442E+02
              0.202473975182068E+03
              0.240664968666330E+03
              0.330167526811223E+03
             -0.217182036888622E+03
              0.353248157139691E+03
              0.923575716388648E+02
             -0.105291677933850E+03
              0.638126917717203E+02
             -0.112230481944170E+03
             -0.784503684179826E+02
              0.179875435051167E+03
             -0.175401246150484E+03
              0.426679156352309E+03
             -0.109069377633684E+03
             -0.228195419854814E+03
              0.434263285105192E+03
             -0.243965617410255E+03
             -0.361253453424379E+02
              0.443325466524027E+02
              0.134694963555362E+03
             -0.198910940362593E+03
             -0.149001765977022E+03
              0.226441379887352E+03
             -0.367281377989047E+03
              0.269712410427374E+03
              0.353096784997873E+02
              0.210698013310840E+03
              0.292074233526030E+03
              0.734961989560874E+02
             -0.384357197508871E+03
             -0.169806690798236E+03
             -0.284175966967979E+03
             -0.178202444296810E+03
             -0.587230010393632E+02
              0.698152498790963E+02
             -0.133290356637806E+03
              0.939146996944055E+01
             -0.432345408281302E+03
              0.107194622756127E+02
             -0.273195341964403E+03
              0.268383463116778E+03
             -0.144234814823165E+03
             -0.283784929626253E+02
              0.193158082683587E+03
              0.207661657416289E+02
              0.192315521988761E+03
             -0.344523821846498E+03
              0.755586881591430E+02
              0.238130413364066E+02
              0.138457512935920E+03
              0.248712966697286E+03
             -0.434596881175341E+02
             -0.272813822498277E+03
             -0.156099388151960E+03
             -0.107884873087386E+03
             -0.525130658632615E+02
              0.257293948761513E+03
              0.158398378629314E+03
             -0.165443930328600E+03
             -0.150942540159249E+03
              0.124690286132898E+03
              0.122049998436395E+03
             -0.338208073699085E+03
              0.947440077383453E+02
              0.248213233080695E+03
             -0.121850310190570E+02
              0.290797891971030E+03
              0.147556492077756E+03
              0.232409102625641E+03
              0.352903623062124E+03
              0.578553318322558E+02
             -0.493607783271646E+03
              0.506968475680657E+02
              0.547448427890269E+03
              0.393856576707499E+03
             -0.264069779061517E+03
              0.263038045949325E+02
              0.342674441314982E+03
              0.311529483280667E+03
              0.148154444600097E+03
             -0.785586776979492E+02
              0.141967562975042E+03
              0.298331530644187E+03
             -0.133355123609849E+03
             -0.954499529192775E+02
              0.186203698708158E+03
             -0.133964806611302E+02
              0.174688221329927E+03
             -0.436697704637749E+02
              0.360404645802890E+03
             -0.137322011377012E+03
              0.821612528502719E+02
             -0.167970062526011E+03
              0.170268245181536E+03
             -0.225146681961885E+02
              0.268960755360779E+03
              0.188123077402195E+02
              0.106160697961618E+03
             -0.178503841655724E+03
             -0.109844865132564E+03
             -0.518425225435030E+02
             -0.446035596644916E+02
              0.282465425508522E+03
              0.117006094448039E+03
              0.362594550313277E+03
              0.301521392185278E+03
              0.674480198755637E+02
              0.261269931740173E+01
              0.354226743556440E+03
              0.186436145410594E+03
              0.502933907082206E+01
              0.314711654089781E+03
             -0.282388163720119E+03
              0.926897470068673E+02
             -0.177522505862250E+03
             -0.711911352730103E+02
              0.453139686722100E+03
             -0.694067003404398E+02
             -0.334029908916909E+01
             -0.596833321487406E+02
              0.376609540580340E+03
             -0.878724714845587E+02
             -0.104532285681942E+02
              0.760376745541937E+03
             -0.245682819387685E+03
             -0.262320655009559E+03
             -0.275339761627565E+03
             -0.161433629181046E+03
              0.160709597308706E+03
             -0.686924430581848E+02
              0.445053202432980E+02
             -0.139035106911601E+02
              0.961934091219800E+02
              0.156855108051033E+03
              0.180675991152329E+03
              0.266006364089086E+03
              0.146833475248946E+03
              0.186734301206902E+03
             -0.301653623400092E+03
             -0.288623298945911E+03
             -0.730922997937528E+02
             -0.282990871654782E+03
              0.453188440615947E+03
              0.388404109573297E+03
              0.185580571919831E+03
              0.502496053002223E+03
             -0.261528025696026E+03
             -0.106635310053265E+03
             -0.148249993206646E+03
              0.415579714711944E+03
 
 BEEF-vdW xc energy contributions
            1 :    -3809.605783373457     
            2 :     3431.291542245390     
            3 :    -2797.388027637996     
            4 :     2093.319185679206     
            5 :    -1482.333907683118     
            6 :     1043.467042929885     
            7 :    -762.6605115239422     
            8 :     572.9262326601615     
            9 :    -411.1874972516957     
           10 :     254.8729450777350     
           11 :    -120.7361795962793     
           12 :     36.02770326518112     
           13 :    -8.546466782863263     
           14 :     17.72967355418450     
           15 :    -29.81860400368214     
           16 :     21.86919352881660     
           17 :     5.023936821040934     
           18 :    -32.09587877062995     
           19 :     41.60702941396767     
           20 :    -31.99173074681448     
           21 :     18.11477701702324     
           22 :    -18.06750934700040     
           23 :     38.28161503218462     
           24 :    -68.90820158261931     
           25 :     92.25609768036747     
           26 :    -96.60219937361990     
           27 :     84.17178923065740     
           28 :    -67.65575380315522     
           29 :     59.11467003973439     
           30 :    -60.72844726485300     
           31 :    -326.6892044105339     
           32 :    -223.8727591221204     

     Writing all to output data dir ./GaN.save/
 
     init_run     :      4.91s CPU     10.05s WALL (       1 calls)
     electrons    :   1555.90s CPU   1574.27s WALL (       1 calls)
     forces       :     10.07s CPU     10.27s WALL (       1 calls)
     stress       :    170.44s CPU    172.42s WALL (       1 calls)

     Called by init_run:
     wfcinit      :      2.22s CPU      7.10s WALL (       1 calls)
     potinit      :      1.00s CPU      1.18s WALL (       1 calls)
     hinit0       :      0.78s CPU      0.82s WALL (       1 calls)

     Called by electrons:
     c_bands      :   1534.00s CPU   1551.29s WALL (       5 calls)
     sum_band     :     16.94s CPU     17.40s WALL (       5 calls)
     v_of_rho     :      2.74s CPU      2.94s WALL (       5 calls)
     v_h          :      0.02s CPU      0.03s WALL (       5 calls)
     v_xc         :     23.83s CPU     24.40s WALL (      41 calls)
     newd         :      0.60s CPU      0.60s WALL (       5 calls)
     PAW_pot      :      1.37s CPU      1.39s WALL (       5 calls)
     mix_rho      :      0.08s CPU      0.08s WALL (       5 calls)
     vdW_kernel   :      0.16s CPU      0.17s WALL (       1 calls)

     Called by c_bands:
     init_us_2    :      0.59s CPU      0.62s WALL (      10 calls)
     init_us_2:cp :      0.59s CPU      0.62s WALL (      10 calls)
     cegterg      :   1050.57s CPU   1063.27s WALL (       5 calls)

     Called by sum_band:
     sum_band:wei :      0.02s CPU      0.02s WALL (       5 calls)
     sum_band:loo :     15.82s CPU     15.99s WALL (       5 calls)
     sum_band:buf :      0.00s CPU      0.00s WALL (       5 calls)
     sum_band:ini :      0.53s CPU      0.55s WALL (       5 calls)
     sum_band:cal :      9.52s CPU      9.60s WALL (       5 calls)
     sum_band:bec :      0.12s CPU      0.12s WALL (       5 calls)
     addusdens    :      0.55s CPU      0.64s WALL (       5 calls)
     addusd:skk   :      0.06s CPU      0.09s WALL (      10 calls)
     addusd:dgemm :      0.19s CPU      0.25s WALL (      10 calls)
     addusd:qvan2 :      0.08s CPU      0.08s WALL (      10 calls)

     Called by *egterg:
     cdiaghg      :    851.34s CPU    857.32s WALL (      55 calls)
     cegterg:over :     39.08s CPU     40.48s WALL (      52 calls)
     cegterg:upda :     25.16s CPU     25.66s WALL (      52 calls)
     cegterg:last :     10.49s CPU     10.57s WALL (       5 calls)
     h_psi        :     86.65s CPU     88.24s WALL (      57 calls)
     s_psi        :     26.54s CPU     27.05s WALL (      57 calls)
     g_psi        :      0.09s CPU      0.09s WALL (      52 calls)

     Called by h_psi:
     h_psi:calbec :     28.38s CPU     28.61s WALL (      57 calls)
     vloc_psi     :     31.20s CPU     31.58s WALL (      57 calls)
     add_vuspsi   :     26.60s CPU     27.19s WALL (      57 calls)

     General routines
     calbec       :     47.45s CPU     47.83s WALL (      67 calls)
     fft          :     10.94s CPU     11.18s WALL (    2421 calls)
     ffts         :      0.03s CPU      0.03s WALL (      10 calls)
     fftw         :     34.32s CPU     34.73s WALL (   34275 calls)
     interpolate  :      0.04s CPU      0.04s WALL (       5 calls)
 
     Parallel routines

     PAW routines
     PAW_pot      :      1.37s CPU      1.39s WALL (       5 calls)
     PAW_symme    :      0.02s CPU      0.02s WALL (       9 calls)
 
     PWSCF        :  29m23.82s CPU  29m56.75s WALL

 
   This run was terminated on:  11: 5:25  13Feb2024            

=------------------------------------------------------------------------------=
   JOB DONE.
=------------------------------------------------------------------------------=
