
     Program PWSCF v.7.1 starts on 27Mar2024 at 21:33: 2 

     This program is part of the open-source Quantum ESPRESSO suite
     for quantum simulation of materials; please cite
         "P. Giannozzi et al., J. Phys.:Condens. Matter 21 395502 (2009);
         "P. Giannozzi et al., J. Phys.:Condens. Matter 29 465901 (2017);
         "P. Giannozzi et al., J. Chem. Phys. 152 154105 (2020);
          URL http://www.quantum-espresso.org", 
     in publications or presentations arising from this work. More details at
     http://www.quantum-espresso.org/quote

     Parallel version (MPI & OpenMP), running on      20 processor cores
     Number of MPI processes:                20
     Threads/MPI process:                     1

     MPI processes distributed on     1 nodes
     1990450 MiB available memory on the printing compute node when the environment starts
 
     Reading input from espresso.pwi
Warning: card &CELL ignored
Warning: card    CELL_DYNAMICS    = 'BFGS' ignored
Warning: card / ignored

     Current dimensions of program PWSCF are:
     Max number of different atomic species (ntypx) = 10
     Max number of k-points (npk) =  40000
     Max angular momentum in pseudopotentials (lmaxx) =  4
     file Pb.pbe-dn-kjpaw_psl.1.0.0.UPF: wavefunction(s)  6S 6P 5D renormalized
     file I.pbe-dn-kjpaw_psl.1.0.0.UPF: wavefunction(s)  5S 5P renormalized

     **************************************************************************
     Initializing libbeef V0.1.2 with the BEEF-vdW functional.
     Citation: Wellendorff et al., PRB 85, 235149 (2012).
     **************************************************************************


     IMPORTANT: XC functional enforced from input :
     Exchange-correlation= BEEF-VDW
                           (   1   4  43  14   2   0   0)
     Any further DFT definition will be discarded
     Please, verify this is what you really want

 
     R & G space division:  proc/nbgrp/npool/nimage =      20
     Subspace diagonalization in iterative solution of the eigenvalue problem:
     a serial algorithm will be used

 
     Parallelization info
     --------------------
     sticks:   dense  smooth     PW     G-vecs:    dense   smooth      PW
     Min         381     306     80                42326    30292    4074
     Max         383     307     81                42331    30298    4079
     Sum        7639    6121   1615               846533   605897   81527
 
     Using Slab Decomposition
 


     bravais-lattice index     =            4
     lattice parameter (alat)  =      17.8060  a.u.
     unit-cell volume          =    7656.2263 (a.u.)^3
     number of atoms/cell      =           24
     number of atomic types    =            2
     number of electrons       =       381.00
     number of Kohn-Sham states=          229
     kinetic-energy cutoff     =      70.0000  Ry
     charge density cutoff     =     350.0000  Ry
     scf convergence threshold =      1.0E-07
     mixing beta               =       0.7000
     number of iterations used =            8  plain     mixing
     energy convergence thresh.=      1.0E-04
     force convergence thresh. =      1.0E-03
     Exchange-correlation= BEEF-VDW
                           (   1   4  43  14   2   0   0)
     nstep                     =           50


     celldm(1)=  17.806016  celldm(2)=   0.000000  celldm(3)=   1.565971
     celldm(4)=   0.000000  celldm(5)=   0.000000  celldm(6)=   0.000000

     crystal axes: (cart. coord. in units of alat)
               a(1) = (   1.000000   0.000000   0.000000 )  
               a(2) = (  -0.500000   0.866025   0.000000 )  
               a(3) = (   0.000000   0.000000   1.565971 )  

     reciprocal axes: (cart. coord. in units 2 pi/alat)
               b(1) = (  1.000000  0.577350 -0.000000 )  
               b(2) = (  0.000000  1.154701  0.000000 )  
               b(3) = (  0.000000 -0.000000  0.638581 )  


     PseudoPot. # 1 for Pb read from file:
     /trace/group/acmegroup/atimmins/packages/espresso/pseudo/psl_1.0.0/pslibrary.1.0.0/pbe/PSEUDOPOTENTIALS/Pb.pbe-dn-kjpaw_psl.1.0.0.UPF
     MD5 check sum: 39ab5b8a6bbd56b7735ad9f188aac93a
     Pseudo is Projector augmented-wave + core cor, Zval = 14.0
     Generated using 'atomic' code by A. Dal Corso  v.7.1
     Shape of augmentation charge: PSQ
     Using radial grid of 1281 points,  6 beta functions with: 
                l(1) =   0
                l(2) =   0
                l(3) =   1
                l(4) =   1
                l(5) =   2
                l(6) =   2
     Q(r) pseudized with 0 coefficients 


     PseudoPot. # 2 for I  read from file:
     /trace/group/acmegroup/atimmins/packages/espresso/pseudo/psl_1.0.0/pslibrary.1.0.0/pbe/PSEUDOPOTENTIALS/I.pbe-dn-kjpaw_psl.1.0.0.UPF
     MD5 check sum: bfa8781bc1224d19af3f3980e3fab11e
     Pseudo is Projector augmented-wave + core cor, Zval = 17.0
     Generated using 'atomic' code by A. Dal Corso  v.7.1
     Shape of augmentation charge: PSQ
     Using radial grid of 1247 points,  6 beta functions with: 
                l(1) =   0
                l(2) =   0
                l(3) =   1
                l(4) =   1
                l(5) =   2
                l(6) =   2
     Q(r) pseudized with 0 coefficients 


     atomic species   valence    mass     pseudopotential
        Pb            14.00   207.20000     Pb( 1.00)
        I             17.00   126.90447     I ( 1.00)

     No symmetry found


                                    s                        frac. trans.

      isym =  1     identity                                     

 cryst.   s( 1) = (     1          0          0      )
                  (     0          1          0      )
                  (     0          0          1      )

 cart.    s( 1) = (  1.0000000  0.0000000  0.0000000 )
                  (  0.0000000  1.0000000  0.0000000 )
                  (  0.0000000  0.0000000  1.0000000 )


     point group C_1 (1)    
     there are  1 classes
     the character table:

       E    
A      1.00

     the symmetry operations in each class and the name of the first element:

     E        1
          identity                                               

   Cartesian axes

     site n.     atom                  positions (alat units)
         1           Pb  tau(   1) = (   0.2500170   0.4329745   1.5659650  )
         2           Pb  tau(   2) = (   0.2500068   0.4329836   0.7829793  )
         3           Pb  tau(   3) = (   0.0000153   0.8659852   1.5659567  )
         4           Pb  tau(   4) = (   0.0000051   0.8659943   0.7829710  )
         5           Pb  tau(   5) = (   0.7500170   0.4329726   1.5659715  )
         6           Pb  tau(   6) = (   0.7500068   0.4329816   0.7829858  )
         7           Pb  tau(   7) = (   0.5000153   0.8659833   1.5659633  )
         8           Pb  tau(   8) = (   0.5000051   0.8659923   0.7829776  )
         9           I   tau(   9) = (   0.2500209   0.1443009   1.3648506  )
        10           I   tau(  10) = (   0.0000091   0.5773207   0.5818567  )
        11           I   tau(  11) = (   0.0000193   0.5773116   1.3648424  )
        12           I   tau(  12) = (   0.7500107   0.1443080   0.5818714  )
        13           I   tau(  13) = (   0.7500209   0.1442990   1.3648571  )
        14           I   tau(  14) = (   0.5000091   0.5773187   0.5818632  )
        15           I   tau(  15) = (   0.5000193   0.5773097   1.3648489  )
        16           I   tau(  16) = (  -0.0000034   0.2886595   0.2011110  )
        17           I   tau(  17) = (   0.0000068   0.2886504   0.9840967  )
        18           I   tau(  18) = (  -0.2500051   0.7216702   0.2011027  )
        19           I   tau(  19) = (  -0.2499949   0.7216611   0.9840884  )
        20           I   tau(  20) = (   0.4999966   0.2886575   0.2011175  )
        21           I   tau(  21) = (   0.5000068   0.2886485   0.9841032  )
        22           I   tau(  22) = (   0.2499949   0.7216682   0.2011092  )
        23           I   tau(  23) = (   0.2500051   0.7216592   0.9840949  )
        24           Pb  tau(  24) = (   0.2500107   0.1443099   0.5818649  )

   Crystallographic axes

     site n.     atom                  positions (cryst. coord.)
         1           Pb  tau(   1) = (  0.4999949  0.4999559  0.9999959  )
         2           Pb  tau(   2) = (  0.4999900  0.4999663  0.4999959  )
         3           Pb  tau(   3) = (  0.4999921  0.9999536  0.9999906  )
         4           Pb  tau(   4) = (  0.4999871  0.9999640  0.4999906  )
         5           Pb  tau(   5) = (  0.9999938  0.4999537  1.0000001  )
         6           Pb  tau(   6) = (  0.9999888  0.4999641  0.5000001  )
         7           Pb  tau(   7) = (  0.9999910  0.9999514  0.9999948  )
         8           Pb  tau(   8) = (  0.9999860  0.9999618  0.4999948  )
         9           I   tau(   9) = (  0.3333331  0.1666243  0.8715680  )
        10           I   tau(  10) = (  0.3333253  0.6666325  0.3715628  )
        11           I   tau(  11) = (  0.3333303  0.6666220  0.8715628  )
        12           I   tau(  12) = (  0.8333270  0.1666326  0.3715722  )
        13           I   tau(  13) = (  0.8333320  0.1666221  0.8715722  )
        14           I   tau(  14) = (  0.8333242  0.6666303  0.3715669  )
        15           I   tau(  15) = (  0.8333292  0.6666198  0.8715669  )
        16           I   tau(  16) = (  0.1666542  0.3333152  0.1284257  )
        17           I   tau(  17) = (  0.1666592  0.3333048  0.6284257  )
        18           I   tau(  18) = (  0.1666514  0.8333129  0.1284204  )
        19           I   tau(  19) = (  0.1666564  0.8333025  0.6284204  )
        20           I   tau(  20) = (  0.6666531  0.3333130  0.1284299  )
        21           I   tau(  21) = (  0.6666581  0.3333026  0.6284299  )
        22           I   tau(  22) = (  0.6666503  0.8333107  0.1284246  )
        23           I   tau(  23) = (  0.6666553  0.8333003  0.6284246  )
        24           Pb  tau(  24) = (  0.3333281  0.1666348  0.3715680  )

     number of k points=     4  Gaussian smearing, width (Ry)=  0.0100
                       cart. coord. in units 2pi/alat
        k(    1) = (   0.0000000   0.0000000   0.0000000), wk =   0.5000000
        k(    2) = (   0.0000000  -0.5773503   0.0000000), wk =   0.5000000
        k(    3) = (   0.5000000  -0.2886751   0.0000000), wk =   0.5000000
        k(    4) = (  -0.5000000  -0.2886751   0.0000000), wk =   0.5000000

                       cryst. coord.
        k(    1) = (   0.0000000   0.0000000   0.0000000), wk =   0.5000000
        k(    2) = (   0.0000000  -0.5000000   0.0000000), wk =   0.5000000
        k(    3) = (   0.5000000  -0.5000000   0.0000000), wk =   0.5000000
        k(    4) = (  -0.5000000  -0.0000000   0.0000000), wk =   0.5000000

     Dense  grid:   846533 G-vectors     FFT dimensions: ( 108, 108, 180)

     Smooth grid:   605897 G-vectors     FFT dimensions: (  96,  96, 150)

     Dynamical RAM for                 wfc:      13.23 MB

     Dynamical RAM for     wfc (w. buffer):      66.15 MB

     Dynamical RAM for           str. fact:       1.29 MB

     Dynamical RAM for           local pot:       0.00 MB

     Dynamical RAM for          nlocal pot:      24.96 MB

     Dynamical RAM for                qrad:       3.00 MB

     Dynamical RAM for          rho,v,vnew:       4.34 MB

     Dynamical RAM for               rhoin:       1.45 MB

     Dynamical RAM for            rho*nmix:      10.33 MB

     Dynamical RAM for           G-vectors:       2.65 MB

     Dynamical RAM for          h,s,v(r/c):      38.41 MB

     Dynamical RAM for          <psi|beta>:       1.51 MB

     Dynamical RAM for                 psi:      52.92 MB

     Dynamical RAM for                hpsi:      52.92 MB

     Dynamical RAM for                spsi:      52.92 MB

     Dynamical RAM for      wfcinit/wfcrot:      27.66 MB

     Dynamical RAM for           addusdens:     129.83 MB

     Dynamical RAM for          addusforce:     148.30 MB

     Dynamical RAM for         addusstress:     129.83 MB

     Estimated static dynamical RAM per process >     109.78 MB

     Estimated max dynamical RAM per process >     318.78 MB

     Estimated total dynamical RAM >       6.23 GB

     Check: negative core charge=   -0.000001

     Initial potential from superposition of free atoms

     starting charge     380.9777, renormalised to     381.0000


     %%%%%%%%%%%%%%%%%%%%%%%%%%%%%%%%%%%%%%%%%%%%%%%%%%%%%%%%%%%%%%%%%%%%%%%%
     %                                                                      %
     % You are using vdW-DF, which was implemented by the Thonhauser group. %
     % Please cite the following two papers that made this development      %
     % possible and the two reviews that describe the various versions:     %
     %                                                                      %
     %   T. Thonhauser et al., PRL 115, 136402 (2015).                      %
     %   T. Thonhauser et al., PRB 76, 125112 (2007).                       %
     %   K. Berland et al., Rep. Prog. Phys. 78, 066501 (2015).             %
     %   D.C. Langreth et al., J. Phys.: Condens. Matter 21, 084203 (2009). %
     %                                                                      %
     % If you are calculating stress with vdW-DF, please also cite:         %
     %                                                                      %
     %   R. Sabatini et al., J. Phys.: Condens. Matter 24, 424209 (2012).   %
     %                                                                      %
     %%%%%%%%%%%%%%%%%%%%%%%%%%%%%%%%%%%%%%%%%%%%%%%%%%%%%%%%%%%%%%%%%%%%%%%%

     %%%%%%%%%%%%%%%%%%%%%%%%%%%%%%%%%%%%%%%%%%%%%%%%%%%%%%%%%%%%%%%%%%%%%%%%
     %                                                                      %
     %  vdW-DF NEWS:                                                        %
     %                                                                      %
     %  * vdW-DF3 is now available. DOI: 10.1021/acs.jctc.0c00471           %
     %    use with input_dft = 'vdW-DF3-opt1' or 'vdW-DF3-opt2'             %
     %                                                                      %
     %  * Unscreened and range-separated vdW-DF hybrid functionals          %
     %    DOI: 10.1063/1.4986522 and 10.1088/1361-648X/ac2ad2               %
     %    use with input_dft = 'vdW-DF-cx0' (etc) and 'vdW-DF-ahcx'         %
     %                                                                      %
     %%%%%%%%%%%%%%%%%%%%%%%%%%%%%%%%%%%%%%%%%%%%%%%%%%%%%%%%%%%%%%%%%%%%%%%%


     Carrying out vdW-DF run using the following parameters:
     Nqs    =  20  Npoints =  1024  r_max =  100.000
     q_mesh =  0.00001000  0.04494208  0.09755937  0.15916263
               0.23128650  0.31572767  0.41458969  0.53033537
               0.66584808  0.82450364  1.01025438  1.22772762
               1.48234092  1.78043706  2.12944203  2.53805004
               3.01644009  3.57652955  4.23227104  5.00000000


     -----------------------------------------------
     Non-local corr. energy    =      11.13930355 Ry
     -----------------------------------------------

     Starting wfcs are  216 randomized atomic wfcs +   13 random wfcs
     Checking if some PAW data can be deallocated... 
       PAW data deallocated on   15 nodes for type:  1
       PAW data deallocated on    5 nodes for type:  2

     total cpu time spent up to now is        9.0 secs

     Self-consistent Calculation

     iteration #  1     ecut=    70.00 Ry     beta= 0.70
     Davidson diagonalization with overlap

---- Real-time Memory Report at c_bands before calling an iterative solver
           352 MiB given to the printing process from OS
             0 MiB allocation reported by mallinfo(arena+hblkhd)
       1988777 MiB available memory on the node where the printing process lives
------------------
     ethr =  1.00E-02,  avg # of iterations =  8.3

     Threshold (ethr) on eigenvalues was too large:
     Diagonalizing with lowered threshold

     Davidson diagonalization with overlap

---- Real-time Memory Report at c_bands before calling an iterative solver
           454 MiB given to the printing process from OS
             0 MiB allocation reported by mallinfo(arena+hblkhd)
       1987579 MiB available memory on the node where the printing process lives
------------------
     ethr =  1.95E-04,  avg # of iterations = 10.5


     -----------------------------------------------
     Non-local corr. energy    =      11.22112740 Ry
     -----------------------------------------------


     total cpu time spent up to now is       61.3 secs

     total energy              =  -16521.22935636 Ry
     estimated scf accuracy    <       0.69280606 Ry

     iteration #  2     ecut=    70.00 Ry     beta= 0.70
     Davidson diagonalization with overlap

---- Real-time Memory Report at c_bands before calling an iterative solver
           477 MiB given to the printing process from OS
             0 MiB allocation reported by mallinfo(arena+hblkhd)
       1985759 MiB available memory on the node where the printing process lives
------------------
     ethr =  1.82E-04,  avg # of iterations = 13.5


     -----------------------------------------------
     Non-local corr. energy    =      11.19364680 Ry
     -----------------------------------------------


     total cpu time spent up to now is       96.7 secs

     total energy              =  -16521.18417522 Ry
     estimated scf accuracy    <       1.42501107 Ry

     iteration #  3     ecut=    70.00 Ry     beta= 0.70
     Davidson diagonalization with overlap

---- Real-time Memory Report at c_bands before calling an iterative solver
           477 MiB given to the printing process from OS
             0 MiB allocation reported by mallinfo(arena+hblkhd)
       1984196 MiB available memory on the node where the printing process lives
------------------
     ethr =  1.82E-04,  avg # of iterations = 11.0


     -----------------------------------------------
     Non-local corr. energy    =      11.18908567 Ry
     -----------------------------------------------


     total cpu time spent up to now is      127.0 secs

     total energy              =  -16521.43318482 Ry
     estimated scf accuracy    <       0.63015395 Ry

     iteration #  4     ecut=    70.00 Ry     beta= 0.70
     Davidson diagonalization with overlap

---- Real-time Memory Report at c_bands before calling an iterative solver
           477 MiB given to the printing process from OS
             0 MiB allocation reported by mallinfo(arena+hblkhd)
       1986041 MiB available memory on the node where the printing process lives
------------------
     ethr =  1.65E-04,  avg # of iterations = 10.5


     -----------------------------------------------
     Non-local corr. energy    =      11.18677116 Ry
     -----------------------------------------------


     total cpu time spent up to now is      153.3 secs

     total energy              =  -16521.52172700 Ry
     estimated scf accuracy    <       0.05068358 Ry

     iteration #  5     ecut=    70.00 Ry     beta= 0.70
     Davidson diagonalization with overlap

---- Real-time Memory Report at c_bands before calling an iterative solver
           477 MiB given to the printing process from OS
             0 MiB allocation reported by mallinfo(arena+hblkhd)
       1985354 MiB available memory on the node where the printing process lives
------------------
     ethr =  1.33E-05,  avg # of iterations = 14.3


     -----------------------------------------------
     Non-local corr. energy    =      11.18894928 Ry
     -----------------------------------------------


     total cpu time spent up to now is      187.8 secs

     total energy              =  -16521.53015655 Ry
     estimated scf accuracy    <       0.00339118 Ry

     iteration #  6     ecut=    70.00 Ry     beta= 0.70
     Davidson diagonalization with overlap

---- Real-time Memory Report at c_bands before calling an iterative solver
           477 MiB given to the printing process from OS
             0 MiB allocation reported by mallinfo(arena+hblkhd)
       1987309 MiB available memory on the node where the printing process lives
------------------
     ethr =  8.90E-07,  avg # of iterations =  9.8


     -----------------------------------------------
     Non-local corr. energy    =      11.19061012 Ry
     -----------------------------------------------


     total cpu time spent up to now is      223.9 secs

     total energy              =  -16521.53138960 Ry
     estimated scf accuracy    <       0.00192155 Ry

     iteration #  7     ecut=    70.00 Ry     beta= 0.70
     Davidson diagonalization with overlap

---- Real-time Memory Report at c_bands before calling an iterative solver
           499 MiB given to the printing process from OS
             0 MiB allocation reported by mallinfo(arena+hblkhd)
       1987892 MiB available memory on the node where the printing process lives
------------------
     ethr =  5.04E-07,  avg # of iterations =  7.8


     -----------------------------------------------
     Non-local corr. energy    =      11.19167672 Ry
     -----------------------------------------------


     total cpu time spent up to now is      247.7 secs

     total energy              =  -16521.53170732 Ry
     estimated scf accuracy    <       0.00018426 Ry

     iteration #  8     ecut=    70.00 Ry     beta= 0.70
     Davidson diagonalization with overlap

---- Real-time Memory Report at c_bands before calling an iterative solver
           499 MiB given to the printing process from OS
             0 MiB allocation reported by mallinfo(arena+hblkhd)
       1985091 MiB available memory on the node where the printing process lives
------------------
     ethr =  4.84E-08,  avg # of iterations =  9.3


     -----------------------------------------------
     Non-local corr. energy    =      11.19205761 Ry
     -----------------------------------------------


     total cpu time spent up to now is      277.7 secs

     total energy              =  -16521.53174205 Ry
     estimated scf accuracy    <       0.00007055 Ry

     iteration #  9     ecut=    70.00 Ry     beta= 0.70
     Davidson diagonalization with overlap

---- Real-time Memory Report at c_bands before calling an iterative solver
           499 MiB given to the printing process from OS
             0 MiB allocation reported by mallinfo(arena+hblkhd)
       1987107 MiB available memory on the node where the printing process lives
------------------
     ethr =  1.85E-08,  avg # of iterations =  9.5


     -----------------------------------------------
     Non-local corr. energy    =      11.19205476 Ry
     -----------------------------------------------


     total cpu time spent up to now is      304.9 secs

     total energy              =  -16521.53175094 Ry
     estimated scf accuracy    <       0.00007600 Ry

     iteration # 10     ecut=    70.00 Ry     beta= 0.70
     Davidson diagonalization with overlap

---- Real-time Memory Report at c_bands before calling an iterative solver
           499 MiB given to the printing process from OS
             0 MiB allocation reported by mallinfo(arena+hblkhd)
       1986900 MiB available memory on the node where the printing process lives
------------------
     ethr =  1.85E-08,  avg # of iterations =  6.0


     -----------------------------------------------
     Non-local corr. energy    =      11.19201954 Ry
     -----------------------------------------------


     total cpu time spent up to now is      324.7 secs

     total energy              =  -16521.53176135 Ry
     estimated scf accuracy    <       0.00001517 Ry

     iteration # 11     ecut=    70.00 Ry     beta= 0.70
     Davidson diagonalization with overlap

---- Real-time Memory Report at c_bands before calling an iterative solver
           499 MiB given to the printing process from OS
             0 MiB allocation reported by mallinfo(arena+hblkhd)
       1984571 MiB available memory on the node where the printing process lives
------------------
     ethr =  3.98E-09,  avg # of iterations =  8.3


     -----------------------------------------------
     Non-local corr. energy    =      11.19201959 Ry
     -----------------------------------------------


     total cpu time spent up to now is      348.7 secs

     total energy              =  -16521.53176366 Ry
     estimated scf accuracy    <       0.00000112 Ry

     iteration # 12     ecut=    70.00 Ry     beta= 0.70
     Davidson diagonalization with overlap

---- Real-time Memory Report at c_bands before calling an iterative solver
           499 MiB given to the printing process from OS
             0 MiB allocation reported by mallinfo(arena+hblkhd)
       1983704 MiB available memory on the node where the printing process lives
------------------
     ethr =  2.95E-10,  avg # of iterations =  8.3


     -----------------------------------------------
     Non-local corr. energy    =      11.19202419 Ry
     -----------------------------------------------


     total cpu time spent up to now is      383.8 secs

     total energy              =  -16521.53176454 Ry
     estimated scf accuracy    <       0.00000031 Ry

     iteration # 13     ecut=    70.00 Ry     beta= 0.70
     Davidson diagonalization with overlap

---- Real-time Memory Report at c_bands before calling an iterative solver
           521 MiB given to the printing process from OS
             0 MiB allocation reported by mallinfo(arena+hblkhd)
       1988539 MiB available memory on the node where the printing process lives
------------------
     ethr =  8.04E-11,  avg # of iterations = 11.0


     -----------------------------------------------
     Non-local corr. energy    =      11.19203526 Ry
     -----------------------------------------------


     total cpu time spent up to now is      412.5 secs

     End of self-consistent calculation

          k = 0.0000 0.0000 0.0000 ( 75645 PWs)   bands (ev):

   -40.8502 -40.8502 -40.8501 -40.8483 -40.8483 -40.8482 -40.8479 -40.8479
   -40.8478 -40.8431 -40.8431 -40.8430 -40.8426 -40.8425 -40.8424 -40.7927
   -40.7927 -40.7927 -40.7923 -40.7922 -40.7922 -40.7920 -40.7919 -40.7919
   -40.7910 -40.7910 -40.7909 -40.7906 -40.7906 -40.7905 -40.7876 -40.7875
   -40.7873 -40.7868 -40.7868 -40.7798 -40.7798 -40.7798 -40.7788 -40.7788
   -40.6933 -40.6933 -40.6835 -40.6834 -40.6832 -40.6827 -40.6826 -40.6825
   -40.6822 -40.6821 -40.6820 -40.6785 -40.6785 -40.6782 -40.6781 -40.6780
   -40.6779 -40.6778 -40.6777 -40.6734 -40.6199 -40.6198 -40.6198 -40.6190
   -40.6190 -40.6189 -40.6183 -40.6182 -40.6181 -40.6175 -40.6174 -40.6174
   -40.6166 -40.6165 -40.6165 -12.9877 -12.9877 -12.9783 -12.9664 -12.9664
   -12.9663 -12.9643 -12.9643 -12.9561 -12.9554 -12.9554 -12.9548 -12.9512
   -12.9511 -12.9511 -12.9483 -12.9482 -12.9441 -12.9441 -12.9418 -12.8125
   -12.8125 -12.7983 -12.7971 -12.7971 -12.6391 -12.6390 -12.6232 -12.6200
   -12.6168 -12.6168 -12.6123 -12.6123 -12.6007 -12.5877 -12.5866 -12.5866
   -12.5735 -12.5734 -12.5719 -12.1852 -12.1777 -12.1777 -12.1659 -12.1659
    -8.0998  -7.8659  -7.6903  -7.6559  -7.6558  -7.6179  -7.5410  -7.5408
    -7.5229  -7.4885  -7.4815  -7.4814  -7.4166  -7.3657  -7.3656  -3.9243
    -3.6752  -3.6646  -3.6645  -3.3721  -3.3720  -3.3526  -3.1969  -2.2073
     0.9064   0.9070   0.9071   1.2751   1.2817   1.2818   1.7697   1.7698
     1.8301   1.9235   1.9389   1.9390   2.1421   2.2110   2.2111   2.2227
     2.2943   2.2943   2.3912   2.5125   2.5126   2.5376   2.6317   2.6317
     2.6852   2.6935   2.6938   2.7650   2.7811   2.7812   2.7963   2.8936
     2.8936   2.9287   2.9287   3.0313   3.0539   3.0540   3.0568   3.0752
     3.0752   3.1826   3.2502   3.2503   3.4774   5.1165   5.1481   5.1482
     5.9737   6.2868   6.6091   6.6092   6.6539   6.7976   6.7980   6.9305
     6.9307   7.0857   7.0858   7.3231   7.3437   7.3438   7.4312   7.4814
     7.4815   7.5135   7.6575   7.8590   7.8591   8.4845   8.6576   8.6577
     9.2172   9.2173   9.2656   9.8415   9.8416   9.8613   9.9735  10.4822
    11.2879  11.2880  11.3432  11.3433  11.3443

     occupation numbers 
     1.0000   1.0000   1.0000   1.0000   1.0000   1.0000   1.0000   1.0000
     1.0000   1.0000   1.0000   1.0000   1.0000   1.0000   1.0000   1.0000
     1.0000   1.0000   1.0000   1.0000   1.0000   1.0000   1.0000   1.0000
     1.0000   1.0000   1.0000   1.0000   1.0000   1.0000   1.0000   1.0000
     1.0000   1.0000   1.0000   1.0000   1.0000   1.0000   1.0000   1.0000
     1.0000   1.0000   1.0000   1.0000   1.0000   1.0000   1.0000   1.0000
     1.0000   1.0000   1.0000   1.0000   1.0000   1.0000   1.0000   1.0000
     1.0000   1.0000   1.0000   1.0000   1.0000   1.0000   1.0000   1.0000
     1.0000   1.0000   1.0000   1.0000   1.0000   1.0000   1.0000   1.0000
     1.0000   1.0000   1.0000   1.0000   1.0000   1.0000   1.0000   1.0000
     1.0000   1.0000   1.0000   1.0000   1.0000   1.0000   1.0000   1.0000
     1.0000   1.0000   1.0000   1.0000   1.0000   1.0000   1.0000   1.0000
     1.0000   1.0000   1.0000   1.0000   1.0000   1.0000   1.0000   1.0000
     1.0000   1.0000   1.0000   1.0000   1.0000   1.0000   1.0000   1.0000
     1.0000   1.0000   1.0000   1.0000   1.0000   1.0000   1.0000   1.0000
     1.0000   1.0000   1.0000   1.0000   1.0000   1.0000   1.0000   1.0000
     1.0000   1.0000   1.0000   1.0000   1.0000   1.0000   1.0000   1.0000
     1.0000   1.0000   1.0000   1.0000   1.0000   1.0000   1.0000   1.0000
     1.0000   1.0000   1.0000   1.0000   1.0000   1.0000   1.0000   1.0000
     1.0000   1.0000   1.0000   1.0000   1.0000   1.0000   1.0000   1.0000
     1.0000   1.0000   1.0000   1.0000   1.0000   1.0000   1.0000   1.0000
     1.0000   1.0000   1.0000   1.0000   1.0000   1.0000   1.0000   1.0000
     1.0000   1.0000   1.0000   1.0000   1.0000   1.0000   1.0000   1.0000
     1.0000   1.0000   1.0000   1.0000   1.0000   0.3948   0.2755   0.2754
     0.0000   0.0000   0.0000   0.0000   0.0000   0.0000   0.0000   0.0000
     0.0000   0.0000   0.0000   0.0000   0.0000   0.0000   0.0000   0.0000
     0.0000   0.0000   0.0000   0.0000   0.0000   0.0000   0.0000   0.0000
     0.0000   0.0000   0.0000   0.0000   0.0000   0.0000   0.0000   0.0000
     0.0000   0.0000   0.0000   0.0000   0.0000

          k = 0.0000-0.5774 0.0000 ( 75730 PWs)   bands (ev):

   -40.8502 -40.8502 -40.8501 -40.8483 -40.8483 -40.8482 -40.8479 -40.8479
   -40.8478 -40.8431 -40.8431 -40.8430 -40.8425 -40.8425 -40.8424 -40.7927
   -40.7927 -40.7927 -40.7923 -40.7922 -40.7922 -40.7920 -40.7919 -40.7919
   -40.7910 -40.7910 -40.7909 -40.7906 -40.7906 -40.7905 -40.7876 -40.7875
   -40.7873 -40.7868 -40.7868 -40.7798 -40.7798 -40.7798 -40.7788 -40.7788
   -40.6933 -40.6933 -40.6835 -40.6834 -40.6832 -40.6827 -40.6826 -40.6825
   -40.6822 -40.6821 -40.6820 -40.6785 -40.6785 -40.6782 -40.6781 -40.6780
   -40.6779 -40.6778 -40.6777 -40.6734 -40.6199 -40.6198 -40.6198 -40.6190
   -40.6190 -40.6189 -40.6182 -40.6182 -40.6181 -40.6175 -40.6174 -40.6174
   -40.6166 -40.6165 -40.6165 -12.9833 -12.9807 -12.9721 -12.9686 -12.9675
   -12.9651 -12.9646 -12.9614 -12.9611 -12.9606 -12.9546 -12.9532 -12.9516
   -12.9507 -12.9500 -12.9498 -12.9485 -12.9484 -12.9475 -12.9438 -12.8121
   -12.8119 -12.7982 -12.7970 -12.7969 -12.6395 -12.6335 -12.6287 -12.6222
   -12.6190 -12.6178 -12.6170 -12.6123 -12.5905 -12.5862 -12.5835 -12.5827
   -12.5780 -12.5770 -12.5730 -12.1851 -12.1779 -12.1776 -12.1666 -12.1659
    -7.9130  -7.9006  -7.7291  -7.6710  -7.6671  -7.6444  -7.5992  -7.5865
    -7.5264  -7.5118  -7.4947  -7.4439  -7.4194  -7.3827  -7.3521  -3.9797
    -3.6602  -3.6531  -3.4137  -3.4072  -3.4011  -3.3600  -3.1522  -2.2450
     1.2180   1.2378   1.3812   1.4051   1.4699   1.5327   1.5492   1.5748
     1.6061   1.7130   1.7703   1.7944   1.8402   1.8817   2.0784   2.1053
     2.1267   2.2320   2.2500   2.2801   2.3565   2.3571   2.4045   2.4318
     2.5043   2.6256   2.6321   2.6900   2.7436   2.7983   2.8741   2.8807
     2.9399   2.9498   2.9801   3.0380   3.0930   3.0939   3.1906   3.2051
     3.2356   3.2706   3.3709   3.4062   3.4416   5.0397   5.0921   5.0937
     6.5122   6.5382   6.7949   6.9493   7.0153   7.0383   7.1543   7.1721
     7.2592   7.2700   7.2801   7.3129   7.3646   7.4638   7.4718   7.4852
     7.5473   7.5819   7.5838   7.6314   7.7736   8.4466   8.6032   8.6182
     9.8784   9.9153  10.0916  10.1323  10.1455  10.2099  10.3984  10.4390
    10.5592  10.6031  10.8796  10.9140  10.9937

     occupation numbers 
     1.0000   1.0000   1.0000   1.0000   1.0000   1.0000   1.0000   1.0000
     1.0000   1.0000   1.0000   1.0000   1.0000   1.0000   1.0000   1.0000
     1.0000   1.0000   1.0000   1.0000   1.0000   1.0000   1.0000   1.0000
     1.0000   1.0000   1.0000   1.0000   1.0000   1.0000   1.0000   1.0000
     1.0000   1.0000   1.0000   1.0000   1.0000   1.0000   1.0000   1.0000
     1.0000   1.0000   1.0000   1.0000   1.0000   1.0000   1.0000   1.0000
     1.0000   1.0000   1.0000   1.0000   1.0000   1.0000   1.0000   1.0000
     1.0000   1.0000   1.0000   1.0000   1.0000   1.0000   1.0000   1.0000
     1.0000   1.0000   1.0000   1.0000   1.0000   1.0000   1.0000   1.0000
     1.0000   1.0000   1.0000   1.0000   1.0000   1.0000   1.0000   1.0000
     1.0000   1.0000   1.0000   1.0000   1.0000   1.0000   1.0000   1.0000
     1.0000   1.0000   1.0000   1.0000   1.0000   1.0000   1.0000   1.0000
     1.0000   1.0000   1.0000   1.0000   1.0000   1.0000   1.0000   1.0000
     1.0000   1.0000   1.0000   1.0000   1.0000   1.0000   1.0000   1.0000
     1.0000   1.0000   1.0000   1.0000   1.0000   1.0000   1.0000   1.0000
     1.0000   1.0000   1.0000   1.0000   1.0000   1.0000   1.0000   1.0000
     1.0000   1.0000   1.0000   1.0000   1.0000   1.0000   1.0000   1.0000
     1.0000   1.0000   1.0000   1.0000   1.0000   1.0000   1.0000   1.0000
     1.0000   1.0000   1.0000   1.0000   1.0000   1.0000   1.0000   1.0000
     1.0000   1.0000   1.0000   1.0000   1.0000   1.0000   1.0000   1.0000
     1.0000   1.0000   1.0000   1.0000   1.0000   1.0000   1.0000   1.0000
     1.0000   1.0000   1.0000   1.0000   1.0000   1.0000   1.0000   1.0000
     1.0000   1.0000   1.0000   1.0000   1.0000   1.0000   1.0000   1.0000
     1.0000   1.0000   1.0000   1.0000   1.0000   0.7023   0.4945   0.4880
     0.0000   0.0000   0.0000   0.0000   0.0000   0.0000   0.0000   0.0000
     0.0000   0.0000   0.0000   0.0000   0.0000   0.0000   0.0000   0.0000
     0.0000   0.0000   0.0000   0.0000   0.0000   0.0000   0.0000   0.0000
     0.0000   0.0000   0.0000   0.0000   0.0000   0.0000   0.0000   0.0000
     0.0000   0.0000   0.0000   0.0000   0.0000

          k = 0.5000-0.2887 0.0000 ( 75730 PWs)   bands (ev):

   -40.8502 -40.8502 -40.8501 -40.8483 -40.8483 -40.8482 -40.8479 -40.8479
   -40.8478 -40.8431 -40.8431 -40.8430 -40.8425 -40.8425 -40.8424 -40.7927
   -40.7927 -40.7927 -40.7923 -40.7923 -40.7922 -40.7920 -40.7919 -40.7919
   -40.7910 -40.7910 -40.7909 -40.7906 -40.7906 -40.7905 -40.7876 -40.7875
   -40.7873 -40.7868 -40.7868 -40.7798 -40.7798 -40.7798 -40.7788 -40.7788
   -40.6933 -40.6933 -40.6835 -40.6834 -40.6832 -40.6827 -40.6826 -40.6825
   -40.6822 -40.6821 -40.6820 -40.6785 -40.6785 -40.6782 -40.6781 -40.6780
   -40.6779 -40.6778 -40.6777 -40.6734 -40.6199 -40.6198 -40.6198 -40.6190
   -40.6189 -40.6189 -40.6183 -40.6182 -40.6182 -40.6175 -40.6174 -40.6174
   -40.6166 -40.6165 -40.6165 -12.9834 -12.9807 -12.9721 -12.9686 -12.9675
   -12.9651 -12.9646 -12.9614 -12.9611 -12.9607 -12.9546 -12.9532 -12.9516
   -12.9506 -12.9501 -12.9498 -12.9485 -12.9484 -12.9475 -12.9438 -12.8121
   -12.8119 -12.7982 -12.7970 -12.7969 -12.6395 -12.6334 -12.6287 -12.6222
   -12.6190 -12.6178 -12.6170 -12.6123 -12.5905 -12.5862 -12.5835 -12.5827
   -12.5780 -12.5770 -12.5730 -12.1851 -12.1779 -12.1776 -12.1666 -12.1659
    -7.9130  -7.9005  -7.7291  -7.6711  -7.6671  -7.6443  -7.5992  -7.5865
    -7.5265  -7.5118  -7.4948  -7.4438  -7.4194  -7.3827  -7.3521  -3.9797
    -3.6602  -3.6530  -3.4137  -3.4073  -3.4011  -3.3600  -3.1522  -2.2450
     1.2180   1.2379   1.3812   1.4052   1.4699   1.5325   1.5491   1.5748
     1.6061   1.7130   1.7703   1.7944   1.8401   1.8817   2.0783   2.1052
     2.1265   2.2321   2.2502   2.2800   2.3564   2.3570   2.4045   2.4318
     2.5041   2.6255   2.6322   2.6900   2.7434   2.7983   2.8741   2.8808
     2.9399   2.9498   2.9801   3.0381   3.0931   3.0939   3.1906   3.2051
     3.2357   3.2707   3.3709   3.4061   3.4416   5.0397   5.0921   5.0937
     6.5122   6.5382   6.7949   6.9493   7.0157   7.0386   7.1542   7.1719
     7.2588   7.2703   7.2803   7.3125   7.3646   7.4640   7.4720   7.4853
     7.5474   7.5818   7.5836   7.6311   7.7736   8.4465   8.6034   8.6181
     9.8782   9.9151  10.0915  10.1324  10.1455  10.2099  10.3983  10.4389
    10.5592  10.6030  10.8794  10.9140  10.9935

     occupation numbers 
     1.0000   1.0000   1.0000   1.0000   1.0000   1.0000   1.0000   1.0000
     1.0000   1.0000   1.0000   1.0000   1.0000   1.0000   1.0000   1.0000
     1.0000   1.0000   1.0000   1.0000   1.0000   1.0000   1.0000   1.0000
     1.0000   1.0000   1.0000   1.0000   1.0000   1.0000   1.0000   1.0000
     1.0000   1.0000   1.0000   1.0000   1.0000   1.0000   1.0000   1.0000
     1.0000   1.0000   1.0000   1.0000   1.0000   1.0000   1.0000   1.0000
     1.0000   1.0000   1.0000   1.0000   1.0000   1.0000   1.0000   1.0000
     1.0000   1.0000   1.0000   1.0000   1.0000   1.0000   1.0000   1.0000
     1.0000   1.0000   1.0000   1.0000   1.0000   1.0000   1.0000   1.0000
     1.0000   1.0000   1.0000   1.0000   1.0000   1.0000   1.0000   1.0000
     1.0000   1.0000   1.0000   1.0000   1.0000   1.0000   1.0000   1.0000
     1.0000   1.0000   1.0000   1.0000   1.0000   1.0000   1.0000   1.0000
     1.0000   1.0000   1.0000   1.0000   1.0000   1.0000   1.0000   1.0000
     1.0000   1.0000   1.0000   1.0000   1.0000   1.0000   1.0000   1.0000
     1.0000   1.0000   1.0000   1.0000   1.0000   1.0000   1.0000   1.0000
     1.0000   1.0000   1.0000   1.0000   1.0000   1.0000   1.0000   1.0000
     1.0000   1.0000   1.0000   1.0000   1.0000   1.0000   1.0000   1.0000
     1.0000   1.0000   1.0000   1.0000   1.0000   1.0000   1.0000   1.0000
     1.0000   1.0000   1.0000   1.0000   1.0000   1.0000   1.0000   1.0000
     1.0000   1.0000   1.0000   1.0000   1.0000   1.0000   1.0000   1.0000
     1.0000   1.0000   1.0000   1.0000   1.0000   1.0000   1.0000   1.0000
     1.0000   1.0000   1.0000   1.0000   1.0000   1.0000   1.0000   1.0000
     1.0000   1.0000   1.0000   1.0000   1.0000   1.0000   1.0000   1.0000
     1.0000   1.0000   1.0000   1.0000   1.0000   0.7023   0.4945   0.4879
     0.0000   0.0000   0.0000   0.0000   0.0000   0.0000   0.0000   0.0000
     0.0000   0.0000   0.0000   0.0000   0.0000   0.0000   0.0000   0.0000
     0.0000   0.0000   0.0000   0.0000   0.0000   0.0000   0.0000   0.0000
     0.0000   0.0000   0.0000   0.0000   0.0000   0.0000   0.0000   0.0000
     0.0000   0.0000   0.0000   0.0000   0.0000

          k =-0.5000-0.2887 0.0000 ( 75730 PWs)   bands (ev):

   -40.8502 -40.8502 -40.8501 -40.8483 -40.8483 -40.8482 -40.8479 -40.8479
   -40.8478 -40.8431 -40.8431 -40.8430 -40.8425 -40.8425 -40.8424 -40.7927
   -40.7927 -40.7927 -40.7923 -40.7922 -40.7922 -40.7920 -40.7919 -40.7919
   -40.7910 -40.7910 -40.7909 -40.7906 -40.7906 -40.7905 -40.7876 -40.7875
   -40.7873 -40.7868 -40.7868 -40.7798 -40.7798 -40.7798 -40.7788 -40.7788
   -40.6933 -40.6933 -40.6835 -40.6834 -40.6832 -40.6827 -40.6826 -40.6825
   -40.6822 -40.6821 -40.6820 -40.6785 -40.6785 -40.6782 -40.6781 -40.6780
   -40.6779 -40.6778 -40.6777 -40.6734 -40.6199 -40.6198 -40.6198 -40.6190
   -40.6189 -40.6189 -40.6183 -40.6182 -40.6182 -40.6175 -40.6174 -40.6174
   -40.6166 -40.6165 -40.6165 -12.9833 -12.9807 -12.9721 -12.9686 -12.9675
   -12.9651 -12.9646 -12.9614 -12.9611 -12.9606 -12.9546 -12.9532 -12.9516
   -12.9507 -12.9500 -12.9498 -12.9485 -12.9484 -12.9475 -12.9438 -12.8121
   -12.8119 -12.7982 -12.7970 -12.7969 -12.6395 -12.6335 -12.6287 -12.6222
   -12.6190 -12.6179 -12.6170 -12.6123 -12.5905 -12.5862 -12.5835 -12.5827
   -12.5780 -12.5770 -12.5730 -12.1851 -12.1779 -12.1776 -12.1667 -12.1659
    -7.9131  -7.9005  -7.7292  -7.6712  -7.6671  -7.6443  -7.5992  -7.5865
    -7.5265  -7.5117  -7.4948  -7.4438  -7.4194  -7.3826  -7.3522  -3.9797
    -3.6603  -3.6530  -3.4137  -3.4073  -3.4011  -3.3599  -3.1522  -2.2450
     1.2179   1.2379   1.3811   1.4052   1.4699   1.5326   1.5492   1.5748
     1.6061   1.7130   1.7704   1.7944   1.8401   1.8818   2.0784   2.1053
     2.1265   2.2319   2.2501   2.2801   2.3565   2.3571   2.4045   2.4318
     2.5042   2.6256   2.6322   2.6900   2.7435   2.7983   2.8741   2.8807
     2.9399   2.9498   2.9801   3.0380   3.0931   3.0939   3.1906   3.2051
     3.2356   3.2706   3.3709   3.4061   3.4416   5.0397   5.0921   5.0937
     6.5122   6.5382   6.7949   6.9493   7.0155   7.0383   7.1544   7.1720
     7.2593   7.2700   7.2801   7.3127   7.3647   7.4639   7.4717   7.4853
     7.5474   7.5819   7.5838   7.6313   7.7736   8.4466   8.6032   8.6182
     9.8783   9.9153  10.0916  10.1323  10.1455  10.2099  10.3984  10.4390
    10.5592  10.6031  10.8794  10.9141  10.9936

     occupation numbers 
     1.0000   1.0000   1.0000   1.0000   1.0000   1.0000   1.0000   1.0000
     1.0000   1.0000   1.0000   1.0000   1.0000   1.0000   1.0000   1.0000
     1.0000   1.0000   1.0000   1.0000   1.0000   1.0000   1.0000   1.0000
     1.0000   1.0000   1.0000   1.0000   1.0000   1.0000   1.0000   1.0000
     1.0000   1.0000   1.0000   1.0000   1.0000   1.0000   1.0000   1.0000
     1.0000   1.0000   1.0000   1.0000   1.0000   1.0000   1.0000   1.0000
     1.0000   1.0000   1.0000   1.0000   1.0000   1.0000   1.0000   1.0000
     1.0000   1.0000   1.0000   1.0000   1.0000   1.0000   1.0000   1.0000
     1.0000   1.0000   1.0000   1.0000   1.0000   1.0000   1.0000   1.0000
     1.0000   1.0000   1.0000   1.0000   1.0000   1.0000   1.0000   1.0000
     1.0000   1.0000   1.0000   1.0000   1.0000   1.0000   1.0000   1.0000
     1.0000   1.0000   1.0000   1.0000   1.0000   1.0000   1.0000   1.0000
     1.0000   1.0000   1.0000   1.0000   1.0000   1.0000   1.0000   1.0000
     1.0000   1.0000   1.0000   1.0000   1.0000   1.0000   1.0000   1.0000
     1.0000   1.0000   1.0000   1.0000   1.0000   1.0000   1.0000   1.0000
     1.0000   1.0000   1.0000   1.0000   1.0000   1.0000   1.0000   1.0000
     1.0000   1.0000   1.0000   1.0000   1.0000   1.0000   1.0000   1.0000
     1.0000   1.0000   1.0000   1.0000   1.0000   1.0000   1.0000   1.0000
     1.0000   1.0000   1.0000   1.0000   1.0000   1.0000   1.0000   1.0000
     1.0000   1.0000   1.0000   1.0000   1.0000   1.0000   1.0000   1.0000
     1.0000   1.0000   1.0000   1.0000   1.0000   1.0000   1.0000   1.0000
     1.0000   1.0000   1.0000   1.0000   1.0000   1.0000   1.0000   1.0000
     1.0000   1.0000   1.0000   1.0000   1.0000   1.0000   1.0000   1.0000
     1.0000   1.0000   1.0000   1.0000   1.0000   0.7023   0.4945   0.4879
     0.0000   0.0000   0.0000   0.0000   0.0000   0.0000   0.0000   0.0000
     0.0000   0.0000   0.0000   0.0000   0.0000   0.0000   0.0000   0.0000
     0.0000   0.0000   0.0000   0.0000   0.0000   0.0000   0.0000   0.0000
     0.0000   0.0000   0.0000   0.0000   0.0000   0.0000   0.0000   0.0000
     0.0000   0.0000   0.0000   0.0000   0.0000

     the Fermi energy is     5.0908 ev

!    total energy              =  -16521.53176457 Ry
     total all-electron energy =   -589787.002806 Ry
     estimated scf accuracy    <       0.00000006 Ry
     smearing contrib. (-TS)   =      -0.01585804 Ry
     internal energy E=F+TS    =  -16521.51590653 Ry

     The total energy is F=E-TS. E is the sum of the following terms:
     one-electron contribution =   -2884.01547525 Ry
     hartree contribution      =    1621.91419786 Ry
     xc contribution           =   -1113.84327999 Ry
     ewald contribution        =   -2434.09035852 Ry
     one-center paw contrib.   =  -11711.48099062 Ry
      -> PAW hartree energy AE =     192.36126241 Ry
      -> PAW hartree energy PS =    -192.83978840 Ry
      -> PAW xc energy AE      =   -1596.89255804 Ry
      -> PAW xc energy PS      =      66.65332702 Ry
      -> total E_H with PAW    =    1621.43567187 Ry
      -> total E_XC with PAW   =   -2644.08251101 Ry

     convergence has been achieved in  13 iterations


     -----------------------------------------------
     Non-local corr. energy    =      11.19203526 Ry
     -----------------------------------------------


     Forces acting on atoms (cartesian axes, Ry/au):

     atom    1 type  1   force =    -0.00001598    0.00089347   -0.00182467
     atom    2 type  1   force =    -0.00000024   -0.00211988    0.00172586
     atom    3 type  1   force =     0.00077732   -0.00045479   -0.00181392
     atom    4 type  1   force =    -0.00182685    0.00105241    0.00172413
     atom    5 type  1   force =     0.00001285   -0.00000511   -0.00297739
     atom    6 type  1   force =     0.00000843   -0.00000252    0.00237898
     atom    7 type  1   force =    -0.00077807   -0.00043383   -0.00182550
     atom    8 type  1   force =     0.00183535    0.00105862    0.00172759
     atom    9 type  2   force =    -0.00001577    0.00000851    0.00184292
     atom   10 type  2   force =    -0.00043262   -0.00023268   -0.00043571
     atom   11 type  2   force =    -0.00022877   -0.00012456    0.00217288
     atom   12 type  2   force =    -0.00001035    0.00048809   -0.00043929
     atom   13 type  2   force =    -0.00000429    0.00025911    0.00214774
     atom   14 type  2   force =     0.00043227   -0.00024620   -0.00045119
     atom   15 type  2   force =     0.00021478   -0.00011312    0.00216232
     atom   16 type  2   force =     0.00093862   -0.00054794    0.00125540
     atom   17 type  2   force =    -0.00217224    0.00124790    0.00066583
     atom   18 type  2   force =     0.00001135    0.00110054    0.00122569
     atom   19 type  2   force =     0.00000076   -0.00250751    0.00066260
     atom   20 type  2   force =    -0.00093648   -0.00056121    0.00121366
     atom   21 type  2   force =     0.00217868    0.00124065    0.00066145
     atom   22 type  2   force =     0.00001499   -0.00000669   -0.00127769
     atom   23 type  2   force =    -0.00000115    0.00000901    0.00497944
     atom   24 type  1   force =    -0.00000259   -0.00000229   -0.01550113
     The non-local contrib.  to forces
     atom    1 type  1   force =     0.00002226    0.00127120   -0.00295928
     atom    2 type  1   force =    -0.00000721    0.00229181   -0.00132750
     atom    3 type  1   force =     0.00116444   -0.00070634   -0.00298561
     atom    4 type  1   force =     0.00198328   -0.00116362   -0.00135551
     atom    5 type  1   force =     0.00004460   -0.00004929   -0.00699819
     atom    6 type  1   force =    -0.00000039   -0.00001076    0.00363124
     atom    7 type  1   force =    -0.00110985   -0.00069831   -0.00296635
     atom    8 type  1   force =    -0.00200411   -0.00116660   -0.00132827
     atom    9 type  2   force =    -0.00000531    0.00000715    0.25399015
     atom   10 type  2   force =    -0.00188432   -0.00105534    0.23476703
     atom   11 type  2   force =    -0.00032049   -0.00014522    0.25542894
     atom   12 type  2   force =    -0.00001224    0.00216648    0.23476517
     atom   13 type  2   force =    -0.00001898    0.00036129    0.25541677
     atom   14 type  2   force =     0.00188000   -0.00107291    0.23475584
     atom   15 type  2   force =     0.00028964   -0.00014718    0.25543100
     atom   16 type  2   force =     0.00969881   -0.00558987   -0.23286080
     atom   17 type  2   force =    -0.00499232    0.00288553   -0.23640624
     atom   18 type  2   force =    -0.00002017    0.01126104   -0.23289123
     atom   19 type  2   force =    -0.00000582   -0.00575448   -0.23640902
     atom   20 type  2   force =    -0.00974274   -0.00559282   -0.23289284
     atom   21 type  2   force =     0.00499234    0.00288383   -0.23640696
     atom   22 type  2   force =     0.00000431    0.00001135   -0.24971817
     atom   23 type  2   force =     0.00000643    0.00001611   -0.16145236
     atom   24 type  1   force =     0.00000882    0.00000282    0.11903120
     The ionic contribution  to forces
     atom    1 type  1   force =    -0.00073265   -0.10226319    0.51675655
     atom    2 type  1   force =     0.00004888   -1.36992009   -1.36024182
     atom    3 type  1   force =    -0.08965194    0.05240417    0.51700243
     atom    4 type  1   force =    -1.18619419    0.68528737   -1.35996886
     atom    5 type  1   force =    -0.00064293    0.00081256    0.41982668
     atom    6 type  1   force =     0.00010832    0.00013533   -0.60109459
     atom    7 type  1   force =     0.08857603    0.05262926    0.51680177
     atom    8 type  1   force =     1.18653088    0.68542535   -1.36010808
     atom    9 type  2   force =    -0.00078895   -0.00000803  -14.07766388
     atom   10 type  2   force =    -0.00051809   -0.00035606  -14.07709177
     atom   11 type  2   force =    -0.00059434   -0.00029400  -14.07715678
     atom   12 type  2   force =     0.00008830    0.00036079  -14.07817875
     atom   13 type  2   force =     0.00002300    0.00041844  -14.07812499
     atom   14 type  2   force =     0.00025366    0.00003962  -14.07760536
     atom   15 type  2   force =     0.00020577    0.00013739  -14.07761795
     atom   16 type  2   force =     0.43763936   -0.25370262   15.35946159
     atom   17 type  2   force =     0.37554553   -0.21759485   12.86506176
     atom   18 type  2   force =     0.00110033    0.50383238   15.36021036
     atom   19 type  2   force =     0.00025940    0.43382847   12.86569275
     atom   20 type  2   force =    -0.43585210   -0.25375289   15.35910649
     atom   21 type  2   force =    -0.37535133   -0.21759489   12.86459316
     atom   22 type  2   force =     0.00067372   -0.00024129   14.91933271
     atom   23 type  2   force =    -0.00013660    0.00047623   13.25437792
     atom   24 type  1   force =    -0.00059005   -0.00005945  -11.59337135
     The local contribution  to forces
     atom    1 type  1   force =     0.00070407    0.10196075   -0.51570299
     atom    2 type  1   force =    -0.00003923    1.36709642    1.36447438
     atom    3 type  1   force =     0.08931594   -0.05217989   -0.51591405
     atom    4 type  1   force =     1.18375650   -0.68385681    1.36424208
     atom    5 type  1   force =     0.00059816   -0.00076475   -0.41611049
     atom    6 type  1   force =    -0.00010340   -0.00012528    0.59993368
     atom    7 type  1   force =    -0.08830385   -0.05240493   -0.51573855
     atom    8 type  1   force =    -1.18406811   -0.68398594    1.36433934
     atom    9 type  2   force =     0.00079335    0.00000661   13.83117456
     atom   10 type  2   force =     0.00179738    0.00104447   13.84699740
     atom   11 type  2   force =     0.00068449    0.00032513   13.82947948
     atom   12 type  2   force =    -0.00007191   -0.00181098   13.84806445
     atom   13 type  2   force =    -0.00002404   -0.00051401   13.83045658
     atom   14 type  2   force =    -0.00153247    0.00067910   13.84752720
     atom   15 type  2   force =    -0.00028000   -0.00011840   13.82993427
     atom   16 type  2   force =    -0.44598115    0.25850438  -15.13015769
     atom   17 type  2   force =    -0.37281690    0.21602377  -12.63341038
     atom   18 type  2   force =    -0.00106502   -0.51357135  -15.13083270
     atom   19 type  2   force =    -0.00024907   -0.43070015  -12.63402111
     atom   20 type  2   force =     0.44426837    0.25856504  -15.12974181
     atom   21 type  2   force =     0.37262763    0.21603433  -12.63294720
     atom   22 type  2   force =    -0.00066464    0.00021856  -14.67611545
     atom   23 type  2   force =     0.00013908   -0.00050287  -13.09138772
     atom   24 type  1   force =     0.00057307    0.00007268   11.45603083
     The core correction contribution to forces
     atom    1 type  1   force =    -0.00000035   -0.00011586    0.00023799
     atom    2 type  1   force =    -0.00000004   -0.00172893   -0.00136704
     atom    3 type  1   force =    -0.00010097    0.00005837    0.00023809
     atom    4 type  1   force =    -0.00149770    0.00086484   -0.00136697
     atom    5 type  1   force =    -0.00000002    0.00000003    0.00043230
     atom    6 type  1   force =     0.00000030    0.00000016   -0.00030410
     atom    7 type  1   force =     0.00010045    0.00005865    0.00023801
     atom    8 type  1   force =     0.00149787    0.00086520   -0.00136732
     atom    9 type  2   force =    -0.00000128    0.00000262   -0.00567500
     atom   10 type  2   force =     0.00003853    0.00002402   -0.00524357
     atom   11 type  2   force =     0.00001436    0.00001093   -0.00571858
     atom   12 type  2   force =    -0.00000011   -0.00004254   -0.00524165
     atom   13 type  2   force =    -0.00000074   -0.00001480   -0.00571577
     atom   14 type  2   force =    -0.00003964    0.00002504   -0.00524210
     atom   15 type  2   force =    -0.00001608    0.00001107   -0.00571771
     atom   16 type  2   force =    -0.00021723    0.00012697    0.00513113
     atom   17 type  2   force =     0.00016789   -0.00009525    0.00526021
     atom   18 type  2   force =     0.00000051   -0.00025143    0.00513198
     atom   19 type  2   force =    -0.00000045    0.00019692    0.00525927
     atom   20 type  2   force =     0.00021851    0.00012756    0.00513397
     atom   21 type  2   force =    -0.00016925   -0.00009471    0.00526099
     atom   22 type  2   force =    -0.00000021    0.00000175    0.00555719
     atom   23 type  2   force =    -0.00000043    0.00000203    0.00345479
     atom   24 type  1   force =    -0.00000005   -0.00000011    0.00288141
     The Hubbard contrib.    to forces
     atom    1 type  1   force =     0.00000000    0.00000000    0.00000000
     atom    2 type  1   force =     0.00000000    0.00000000    0.00000000
     atom    3 type  1   force =     0.00000000    0.00000000    0.00000000
     atom    4 type  1   force =     0.00000000    0.00000000    0.00000000
     atom    5 type  1   force =     0.00000000    0.00000000    0.00000000
     atom    6 type  1   force =     0.00000000    0.00000000    0.00000000
     atom    7 type  1   force =     0.00000000    0.00000000    0.00000000
     atom    8 type  1   force =     0.00000000    0.00000000    0.00000000
     atom    9 type  2   force =     0.00000000    0.00000000    0.00000000
     atom   10 type  2   force =     0.00000000    0.00000000    0.00000000
     atom   11 type  2   force =     0.00000000    0.00000000    0.00000000
     atom   12 type  2   force =     0.00000000    0.00000000    0.00000000
     atom   13 type  2   force =     0.00000000    0.00000000    0.00000000
     atom   14 type  2   force =     0.00000000    0.00000000    0.00000000
     atom   15 type  2   force =     0.00000000    0.00000000    0.00000000
     atom   16 type  2   force =     0.00000000    0.00000000    0.00000000
     atom   17 type  2   force =     0.00000000    0.00000000    0.00000000
     atom   18 type  2   force =     0.00000000    0.00000000    0.00000000
     atom   19 type  2   force =     0.00000000    0.00000000    0.00000000
     atom   20 type  2   force =     0.00000000    0.00000000    0.00000000
     atom   21 type  2   force =     0.00000000    0.00000000    0.00000000
     atom   22 type  2   force =     0.00000000    0.00000000    0.00000000
     atom   23 type  2   force =     0.00000000    0.00000000    0.00000000
     atom   24 type  1   force =     0.00000000    0.00000000    0.00000000
     The SCF correction term to forces
     atom    1 type  1   force =    -0.00001254    0.00004477   -0.00014581
     atom    2 type  1   force =    -0.00000587    0.00014511    0.00019897
     atom    3 type  1   force =     0.00004662   -0.00002689   -0.00014363
     atom    4 type  1   force =     0.00012203   -0.00007517    0.00018454
     atom    5 type  1   force =     0.00000981    0.00000055   -0.00011655
     atom    6 type  1   force =     0.00000037    0.00000224    0.00022389
     atom    7 type  1   force =    -0.00004408   -0.00001429   -0.00014924
     atom    8 type  1   force =    -0.00012441   -0.00007519    0.00020306
     atom    9 type  2   force =    -0.00001681    0.00000437    0.00002823
     atom   10 type  2   force =     0.00013065    0.00011444    0.00014634
     atom   11 type  2   force =    -0.00001601   -0.00001719    0.00015096
     atom   12 type  2   force =    -0.00001763   -0.00018145    0.00016263
     atom   13 type  2   force =     0.00001323    0.00001240    0.00012629
     atom   14 type  2   force =    -0.00013251    0.00008716    0.00012437
     atom   15 type  2   force =     0.00001222    0.00000821    0.00014386
     atom   16 type  2   force =    -0.00020440    0.00011740   -0.00030769
     atom   17 type  2   force =    -0.00007967    0.00003290    0.00017161
     atom   18 type  2   force =    -0.00000752   -0.00016590   -0.00038158
     atom   19 type  2   force =    -0.00000653   -0.00007407    0.00015185
     atom   20 type  2   force =     0.00016824    0.00009610   -0.00038100
     atom   21 type  2   force =     0.00007607    0.00001629    0.00017260
     atom   22 type  2   force =    -0.00000143    0.00000715   -0.00032283
     atom   23 type  2   force =    -0.00001286    0.00002171   -0.00000204
     atom   24 type  1   force =     0.00000238   -0.00001401   -0.00006207

     Total force =     0.019057     Total SCF correction =     0.001115


     Computing stress (Cartesian axis) and pressure



     -----------------------------------------------
     Non-local corr. energy    =      11.19203526 Ry
     -----------------------------------------------

          total   stress  (Ry/bohr**3)                   (kbar)     P=        1.66
   0.00001017  -0.00000002   0.00000004            1.50       -0.00        0.01
  -0.00000002   0.00001013  -0.00000004           -0.00        1.49       -0.01
   0.00000004  -0.00000004   0.00001364            0.01       -0.01        2.01

     kinetic stress (kbar)  15285.29     -0.00      0.00
                               -0.00  15285.29     -0.00
                                0.00     -0.00  15295.72

     local   stress (kbar)  -7248.32      0.49     -0.44
                                0.49  -7247.47      0.35
                               -0.44      0.35   1419.51

     nonloc. stress (kbar)  -1503.71     -0.00      0.00
                               -0.00  -1503.71     -0.00
                                0.00     -0.00  -1508.45

     hartree stress (kbar)  11693.22     -0.19      0.17
                               -0.19  11692.90     -0.13
                                0.17     -0.13   7776.98

     exc-cor stress (kbar)   6800.82     -0.00      0.00
                               -0.00   6800.82     -0.00
                                0.00     -0.00   6799.88

     corecor stress (kbar) -11103.32      0.00     -0.00
                                0.00 -11103.32      0.00
                               -0.00      0.00 -11103.34

     ewald   stress (kbar) -14003.49     -0.31      0.27
                               -0.31 -14004.03     -0.22
                                0.27     -0.22 -18760.57

     hubbard stress (kbar)      0.00      0.00      0.00
                                0.00      0.00      0.00
                                0.00      0.00      0.00

     DFT-D   stress (kbar)      0.00      0.00      0.00
                                0.00      0.00      0.00
                                0.00      0.00      0.00

     XDM     stress (kbar)      0.00      0.00      0.00
                                0.00      0.00      0.00
                                0.00      0.00      0.00

     dft-nl  stress (kbar)     81.01      0.00     -0.00
                                0.00     81.01      0.00
                               -0.00      0.00     82.26

     TS-vdW  stress (kbar)      0.00      0.00      0.00
                                0.00      0.00      0.00
                                0.00      0.00      0.00

     MDB     stress (kbar)      0.00      0.00      0.00
                                0.00      0.00      0.00
                                0.00      0.00      0.00

     3D-RISM stress (kbar)      0.00      0.00      0.00
                                0.00      0.00      0.00
                                0.00      0.00      0.00


     BFGS Geometry Optimization
     Energy error            =      0.0E+00 Ry
     Gradient error          =      1.6E-02 Ry/Bohr

     number of scf cycles    =   1
     number of bfgs steps    =   0

     energy             new  =  -16521.5317645687 Ry

     new trust radius        =       0.0155011319 bohr
     new conv_thr            =       0.0000001000 Ry


ATOMIC_POSITIONS (angstrom)
Pb            2.3557862181        4.0801916518       14.7543991191
Pb            2.3556982988        4.0786822106        7.3785654738
Pb            0.0005557947        8.1595380839       14.7543271148
Pb           -0.0009185261        8.1604208088        7.3784868686
Pb            7.0670704925        4.0796979995       14.7538504830
Pb            7.0669719074        4.0797845215        7.3789724478
Pb            4.7110017330        8.1595310288       14.7543823466
Pb            4.7122884487        8.1604059490        7.3785500577
I             2.3558234974        1.3596853521       12.8613320955
I            -0.0001435619        5.4397027650        5.4823361038
I             0.0000605640        5.4396748334       12.8614290142
I             7.0669991354        1.3600061367        5.4824732580
I             7.0670985912        1.3597998154       12.8615547588
I             4.7115831409        5.4396774675        5.4823892692
I             4.7115643001        5.4396627403       12.8614847838
I             0.0004645812        2.7196148220        1.8956400664
I            -0.0010853659        2.7204799919        9.2730405817
I            -2.3556763350        6.8005470606        1.8955466506
I            -2.3555856884        6.7985526086        9.2729611813
I             4.7107413361        2.7195896544        1.8956793399
I             4.7124860599        2.7204580098        9.2730996265
I             2.3555946099        6.7999429930        1.8942832785
I             2.3556823212        6.7998661501        9.2753069160
Pb            2.3557342237        1.3597647884        5.4744415163



     Writing config-only to output data dir ./PbI2.save/
     NEW-OLD atomic charge density approx. for the potential

     Check: negative core charge=   -0.000001


     -----------------------------------------------
     Non-local corr. energy    =      11.19207396 Ry
     -----------------------------------------------


     total cpu time spent up to now is      463.8 secs

     Self-consistent Calculation

     iteration #  1     ecut=    70.00 Ry     beta= 0.70
     Davidson diagonalization with overlap

---- Real-time Memory Report at c_bands before calling an iterative solver
           521 MiB given to the printing process from OS
             0 MiB allocation reported by mallinfo(arena+hblkhd)
       1984290 MiB available memory on the node where the printing process lives
------------------
     ethr =  1.00E-06,  avg # of iterations =  4.0

     Threshold (ethr) on eigenvalues was too large:
     Diagonalizing with lowered threshold

     Davidson diagonalization with overlap

---- Real-time Memory Report at c_bands before calling an iterative solver
           521 MiB given to the printing process from OS
             0 MiB allocation reported by mallinfo(arena+hblkhd)
       1985132 MiB available memory on the node where the printing process lives
------------------
     ethr =  1.10E-08,  avg # of iterations =  9.3


     -----------------------------------------------
     Non-local corr. energy    =      11.19202040 Ry
     -----------------------------------------------


     total cpu time spent up to now is      517.7 secs

     total energy              =  -16521.53211817 Ry
     estimated scf accuracy    <       0.00004195 Ry

     iteration #  2     ecut=    70.00 Ry     beta= 0.70
     Davidson diagonalization with overlap

---- Real-time Memory Report at c_bands before calling an iterative solver
           521 MiB given to the printing process from OS
             0 MiB allocation reported by mallinfo(arena+hblkhd)
       1985910 MiB available memory on the node where the printing process lives
------------------
     ethr =  1.10E-08,  avg # of iterations = 11.8


     -----------------------------------------------
     Non-local corr. energy    =      11.19202526 Ry
     -----------------------------------------------


     total cpu time spent up to now is      551.9 secs

     total energy              =  -16521.53211011 Ry
     estimated scf accuracy    <       0.00010499 Ry

     iteration #  3     ecut=    70.00 Ry     beta= 0.70
     Davidson diagonalization with overlap

---- Real-time Memory Report at c_bands before calling an iterative solver
           521 MiB given to the printing process from OS
             0 MiB allocation reported by mallinfo(arena+hblkhd)
       1986727 MiB available memory on the node where the printing process lives
------------------
     ethr =  1.10E-08,  avg # of iterations = 12.8


     -----------------------------------------------
     Non-local corr. energy    =      11.19202184 Ry
     -----------------------------------------------


     total cpu time spent up to now is      584.1 secs

     total energy              =  -16521.53212280 Ry
     estimated scf accuracy    <       0.00003906 Ry

     iteration #  4     ecut=    70.00 Ry     beta= 0.70
     Davidson diagonalization with overlap

---- Real-time Memory Report at c_bands before calling an iterative solver
           521 MiB given to the printing process from OS
             0 MiB allocation reported by mallinfo(arena+hblkhd)
       1988193 MiB available memory on the node where the printing process lives
------------------
     ethr =  1.03E-08,  avg # of iterations = 12.5


     -----------------------------------------------
     Non-local corr. energy    =      11.19203042 Ry
     -----------------------------------------------


     total cpu time spent up to now is      611.7 secs

     total energy              =  -16521.53212525 Ry
     estimated scf accuracy    <       0.00000181 Ry

     iteration #  5     ecut=    70.00 Ry     beta= 0.70
     Davidson diagonalization with overlap

---- Real-time Memory Report at c_bands before calling an iterative solver
           521 MiB given to the printing process from OS
             0 MiB allocation reported by mallinfo(arena+hblkhd)
       1986350 MiB available memory on the node where the printing process lives
------------------
     ethr =  4.76E-10,  avg # of iterations = 10.8


     -----------------------------------------------
     Non-local corr. energy    =      11.19204404 Ry
     -----------------------------------------------


     total cpu time spent up to now is      641.0 secs

     total energy              =  -16521.53212448 Ry
     estimated scf accuracy    <       0.00000013 Ry

     iteration #  6     ecut=    70.00 Ry     beta= 0.70
     Davidson diagonalization with overlap

---- Real-time Memory Report at c_bands before calling an iterative solver
           521 MiB given to the printing process from OS
             0 MiB allocation reported by mallinfo(arena+hblkhd)
       1989549 MiB available memory on the node where the printing process lives
------------------
     ethr =  3.42E-11,  avg # of iterations =  8.3


     -----------------------------------------------
     Non-local corr. energy    =      11.19207597 Ry
     -----------------------------------------------


     total cpu time spent up to now is      679.4 secs

     End of self-consistent calculation

          k = 0.0000 0.0000 0.0000 ( 75645 PWs)   bands (ev):

   -40.8457 -40.8457 -40.8456 -40.8438 -40.8437 -40.8437 -40.8435 -40.8434
   -40.8434 -40.8385 -40.8384 -40.8384 -40.8380 -40.8379 -40.8378 -40.7967
   -40.7966 -40.7965 -40.7961 -40.7960 -40.7960 -40.7958 -40.7957 -40.7957
   -40.7951 -40.7950 -40.7949 -40.7946 -40.7945 -40.7945 -40.7867 -40.7866
   -40.7864 -40.7859 -40.7859 -40.7811 -40.7810 -40.7809 -40.7802 -40.7802
   -40.6914 -40.6914 -40.6814 -40.6813 -40.6813 -40.6807 -40.6806 -40.6806
   -40.6801 -40.6800 -40.6799 -40.6765 -40.6765 -40.6761 -40.6759 -40.6759
   -40.6757 -40.6756 -40.6756 -40.6714 -40.6223 -40.6222 -40.6221 -40.6214
   -40.6213 -40.6212 -40.6206 -40.6205 -40.6204 -40.6198 -40.6197 -40.6196
   -40.6190 -40.6189 -40.6188 -12.9872 -12.9872 -12.9776 -12.9661 -12.9660
   -12.9659 -12.9637 -12.9636 -12.9554 -12.9546 -12.9546 -12.9540 -12.9505
   -12.9503 -12.9503 -12.9475 -12.9475 -12.9433 -12.9433 -12.9410 -12.8109
   -12.8109 -12.7966 -12.7954 -12.7954 -12.6405 -12.6404 -12.6246 -12.6215
   -12.6184 -12.6182 -12.6130 -12.6129 -12.6019 -12.5891 -12.5881 -12.5880
   -12.5750 -12.5749 -12.5734 -12.1837 -12.1792 -12.1792 -12.1691 -12.1691
    -8.0994  -7.8645  -7.6904  -7.6533  -7.6532  -7.6180  -7.5432  -7.5431
    -7.5233  -7.4882  -7.4801  -7.4799  -7.4149  -7.3668  -7.3667  -3.9199
    -3.6747  -3.6644  -3.6643  -3.3714  -3.3712  -3.3512  -3.1961  -2.2125
     0.9065   0.9070   0.9070   1.2754   1.2827   1.2828   1.7700   1.7701
     1.8303   1.9237   1.9387   1.9388   2.1428   2.2120   2.2121   2.2230
     2.2961   2.2962   2.3924   2.5123   2.5124   2.5375   2.6316   2.6317
     2.6854   2.6942   2.6946   2.7648   2.7814   2.7815   2.7964   2.8928
     2.8928   2.9300   2.9300   3.0311   3.0537   3.0537   3.0580   3.0747
     3.0747   3.1825   3.2500   3.2500   3.4769   5.1142   5.1502   5.1503
     5.9736   6.2878   6.6094   6.6095   6.6548   6.7981   6.7985   6.9307
     6.9309   7.0859   7.0860   7.3238   7.3447   7.3448   7.4330   7.4815
     7.4816   7.5153   7.6568   7.8586   7.8587   8.4813   8.6474   8.6476
     9.2168   9.2169   9.2644   9.8407   9.8408   9.8604   9.9736  10.4813
    11.2880  11.2881  11.3424  11.3425  11.3438

     occupation numbers 
     1.0000   1.0000   1.0000   1.0000   1.0000   1.0000   1.0000   1.0000
     1.0000   1.0000   1.0000   1.0000   1.0000   1.0000   1.0000   1.0000
     1.0000   1.0000   1.0000   1.0000   1.0000   1.0000   1.0000   1.0000
     1.0000   1.0000   1.0000   1.0000   1.0000   1.0000   1.0000   1.0000
     1.0000   1.0000   1.0000   1.0000   1.0000   1.0000   1.0000   1.0000
     1.0000   1.0000   1.0000   1.0000   1.0000   1.0000   1.0000   1.0000
     1.0000   1.0000   1.0000   1.0000   1.0000   1.0000   1.0000   1.0000
     1.0000   1.0000   1.0000   1.0000   1.0000   1.0000   1.0000   1.0000
     1.0000   1.0000   1.0000   1.0000   1.0000   1.0000   1.0000   1.0000
     1.0000   1.0000   1.0000   1.0000   1.0000   1.0000   1.0000   1.0000
     1.0000   1.0000   1.0000   1.0000   1.0000   1.0000   1.0000   1.0000
     1.0000   1.0000   1.0000   1.0000   1.0000   1.0000   1.0000   1.0000
     1.0000   1.0000   1.0000   1.0000   1.0000   1.0000   1.0000   1.0000
     1.0000   1.0000   1.0000   1.0000   1.0000   1.0000   1.0000   1.0000
     1.0000   1.0000   1.0000   1.0000   1.0000   1.0000   1.0000   1.0000
     1.0000   1.0000   1.0000   1.0000   1.0000   1.0000   1.0000   1.0000
     1.0000   1.0000   1.0000   1.0000   1.0000   1.0000   1.0000   1.0000
     1.0000   1.0000   1.0000   1.0000   1.0000   1.0000   1.0000   1.0000
     1.0000   1.0000   1.0000   1.0000   1.0000   1.0000   1.0000   1.0000
     1.0000   1.0000   1.0000   1.0000   1.0000   1.0000   1.0000   1.0000
     1.0000   1.0000   1.0000   1.0000   1.0000   1.0000   1.0000   1.0000
     1.0000   1.0000   1.0000   1.0000   1.0000   1.0000   1.0000   1.0000
     1.0000   1.0000   1.0000   1.0000   1.0000   1.0000   1.0000   1.0000
     1.0000   1.0000   1.0000   1.0000   1.0000   0.4022   0.2670   0.2668
     0.0000   0.0000   0.0000   0.0000   0.0000   0.0000   0.0000   0.0000
     0.0000   0.0000   0.0000   0.0000   0.0000   0.0000   0.0000   0.0000
     0.0000   0.0000   0.0000   0.0000   0.0000   0.0000   0.0000   0.0000
     0.0000   0.0000   0.0000   0.0000   0.0000   0.0000   0.0000   0.0000
     0.0000   0.0000   0.0000   0.0000   0.0000

          k = 0.0000-0.5774 0.0000 ( 75730 PWs)   bands (ev):

   -40.8457 -40.8457 -40.8456 -40.8438 -40.8437 -40.8437 -40.8435 -40.8434
   -40.8434 -40.8385 -40.8384 -40.8384 -40.8380 -40.8379 -40.8378 -40.7967
   -40.7966 -40.7965 -40.7961 -40.7961 -40.7960 -40.7958 -40.7957 -40.7957
   -40.7951 -40.7950 -40.7949 -40.7946 -40.7945 -40.7945 -40.7867 -40.7866
   -40.7864 -40.7859 -40.7859 -40.7811 -40.7810 -40.7809 -40.7802 -40.7802
   -40.6914 -40.6914 -40.6814 -40.6813 -40.6813 -40.6807 -40.6806 -40.6806
   -40.6801 -40.6800 -40.6799 -40.6765 -40.6765 -40.6761 -40.6759 -40.6759
   -40.6757 -40.6756 -40.6756 -40.6714 -40.6223 -40.6222 -40.6221 -40.6214
   -40.6213 -40.6212 -40.6206 -40.6205 -40.6204 -40.6198 -40.6197 -40.6196
   -40.6190 -40.6189 -40.6188 -12.9829 -12.9804 -12.9713 -12.9679 -12.9671
   -12.9648 -12.9643 -12.9607 -12.9604 -12.9600 -12.9539 -12.9525 -12.9508
   -12.9499 -12.9493 -12.9491 -12.9478 -12.9476 -12.9467 -12.9430 -12.8105
   -12.8102 -12.7965 -12.7953 -12.7952 -12.6410 -12.6347 -12.6302 -12.6228
   -12.6206 -12.6192 -12.6186 -12.6131 -12.5918 -12.5877 -12.5850 -12.5841
   -12.5795 -12.5785 -12.5746 -12.1836 -12.1793 -12.1791 -12.1699 -12.1691
    -7.9117  -7.9006  -7.7273  -7.6690  -7.6660  -7.6440  -7.5996  -7.5871
    -7.5282  -7.5125  -7.4935  -7.4442  -7.4182  -7.3826  -7.3530  -3.9748
    -3.6599  -3.6529  -3.4130  -3.4066  -3.4004  -3.3593  -3.1522  -2.2498
     1.2182   1.2375   1.3813   1.4050   1.4704   1.5329   1.5491   1.5754
     1.6071   1.7142   1.7704   1.7960   1.8406   1.8818   2.0785   2.1055
     2.1272   2.2325   2.2495   2.2812   2.3569   2.3575   2.4051   2.4329
     2.5047   2.6256   2.6333   2.6911   2.7437   2.7982   2.8740   2.8803
     2.9402   2.9495   2.9800   3.0381   3.0933   3.0942   3.1908   3.2052
     3.2363   3.2705   3.3703   3.4061   3.4421   5.0392   5.0892   5.0950
     6.5129   6.5386   6.7952   6.9497   7.0157   7.0390   7.1549   7.1732
     7.2600   7.2707   7.2809   7.3150   7.3652   7.4635   7.4733   7.4847
     7.5461   7.5809   7.5844   7.6320   7.7735   8.4397   8.5948   8.6064
     9.8785   9.9155  10.0922  10.1324  10.1461  10.2080  10.3983  10.4393
    10.5587  10.6042  10.8794  10.9135  10.9937

     occupation numbers 
     1.0000   1.0000   1.0000   1.0000   1.0000   1.0000   1.0000   1.0000
     1.0000   1.0000   1.0000   1.0000   1.0000   1.0000   1.0000   1.0000
     1.0000   1.0000   1.0000   1.0000   1.0000   1.0000   1.0000   1.0000
     1.0000   1.0000   1.0000   1.0000   1.0000   1.0000   1.0000   1.0000
     1.0000   1.0000   1.0000   1.0000   1.0000   1.0000   1.0000   1.0000
     1.0000   1.0000   1.0000   1.0000   1.0000   1.0000   1.0000   1.0000
     1.0000   1.0000   1.0000   1.0000   1.0000   1.0000   1.0000   1.0000
     1.0000   1.0000   1.0000   1.0000   1.0000   1.0000   1.0000   1.0000
     1.0000   1.0000   1.0000   1.0000   1.0000   1.0000   1.0000   1.0000
     1.0000   1.0000   1.0000   1.0000   1.0000   1.0000   1.0000   1.0000
     1.0000   1.0000   1.0000   1.0000   1.0000   1.0000   1.0000   1.0000
     1.0000   1.0000   1.0000   1.0000   1.0000   1.0000   1.0000   1.0000
     1.0000   1.0000   1.0000   1.0000   1.0000   1.0000   1.0000   1.0000
     1.0000   1.0000   1.0000   1.0000   1.0000   1.0000   1.0000   1.0000
     1.0000   1.0000   1.0000   1.0000   1.0000   1.0000   1.0000   1.0000
     1.0000   1.0000   1.0000   1.0000   1.0000   1.0000   1.0000   1.0000
     1.0000   1.0000   1.0000   1.0000   1.0000   1.0000   1.0000   1.0000
     1.0000   1.0000   1.0000   1.0000   1.0000   1.0000   1.0000   1.0000
     1.0000   1.0000   1.0000   1.0000   1.0000   1.0000   1.0000   1.0000
     1.0000   1.0000   1.0000   1.0000   1.0000   1.0000   1.0000   1.0000
     1.0000   1.0000   1.0000   1.0000   1.0000   1.0000   1.0000   1.0000
     1.0000   1.0000   1.0000   1.0000   1.0000   1.0000   1.0000   1.0000
     1.0000   1.0000   1.0000   1.0000   1.0000   1.0000   1.0000   1.0000
     1.0000   1.0000   1.0000   1.0000   1.0000   0.7024   0.5048   0.4809
     0.0000   0.0000   0.0000   0.0000   0.0000   0.0000   0.0000   0.0000
     0.0000   0.0000   0.0000   0.0000   0.0000   0.0000   0.0000   0.0000
     0.0000   0.0000   0.0000   0.0000   0.0000   0.0000   0.0000   0.0000
     0.0000   0.0000   0.0000   0.0000   0.0000   0.0000   0.0000   0.0000
     0.0000   0.0000   0.0000   0.0000   0.0000

          k = 0.5000-0.2887 0.0000 ( 75730 PWs)   bands (ev):

   -40.8457 -40.8457 -40.8456 -40.8438 -40.8437 -40.8437 -40.8435 -40.8434
   -40.8434 -40.8385 -40.8384 -40.8384 -40.8380 -40.8379 -40.8378 -40.7967
   -40.7966 -40.7965 -40.7961 -40.7960 -40.7960 -40.7958 -40.7957 -40.7957
   -40.7951 -40.7950 -40.7949 -40.7946 -40.7945 -40.7945 -40.7867 -40.7866
   -40.7864 -40.7859 -40.7859 -40.7811 -40.7810 -40.7809 -40.7802 -40.7802
   -40.6914 -40.6914 -40.6814 -40.6813 -40.6813 -40.6807 -40.6806 -40.6806
   -40.6801 -40.6799 -40.6799 -40.6765 -40.6765 -40.6761 -40.6759 -40.6759
   -40.6757 -40.6756 -40.6756 -40.6714 -40.6223 -40.6222 -40.6221 -40.6214
   -40.6213 -40.6212 -40.6206 -40.6205 -40.6204 -40.6198 -40.6197 -40.6196
   -40.6190 -40.6189 -40.6188 -12.9829 -12.9804 -12.9713 -12.9679 -12.9671
   -12.9648 -12.9643 -12.9606 -12.9605 -12.9600 -12.9539 -12.9525 -12.9508
   -12.9499 -12.9493 -12.9490 -12.9478 -12.9476 -12.9467 -12.9430 -12.8105
   -12.8102 -12.7965 -12.7953 -12.7952 -12.6409 -12.6349 -12.6301 -12.6228
   -12.6205 -12.6194 -12.6185 -12.6129 -12.5918 -12.5876 -12.5850 -12.5842
   -12.5795 -12.5785 -12.5745 -12.1836 -12.1793 -12.1792 -12.1699 -12.1691
    -7.9117  -7.9006  -7.7274  -7.6690  -7.6659  -7.6439  -7.5996  -7.5871
    -7.5282  -7.5125  -7.4936  -7.4441  -7.4182  -7.3826  -7.3530  -3.9748
    -3.6598  -3.6528  -3.4130  -3.4067  -3.4004  -3.3592  -3.1523  -2.2498
     1.2182   1.2376   1.3814   1.4052   1.4704   1.5327   1.5490   1.5754
     1.6072   1.7143   1.7704   1.7961   1.8405   1.8817   2.0784   2.1055
     2.1271   2.2326   2.2497   2.2812   2.3568   2.3575   2.4051   2.4329
     2.5046   2.6256   2.6334   2.6911   2.7436   2.7981   2.8740   2.8804
     2.9402   2.9495   2.9800   3.0381   3.0934   3.0941   3.1908   3.2053
     3.2364   3.2706   3.3703   3.4061   3.4421   5.0392   5.0892   5.0950
     6.5129   6.5386   6.7952   6.9497   7.0161   7.0393   7.1547   7.1730
     7.2597   7.2710   7.2812   7.3146   7.3652   7.4637   7.4735   7.4848
     7.5462   7.5808   7.5842   7.6317   7.7735   8.4396   8.5948   8.6063
     9.8783   9.9153  10.0922  10.1325  10.1462  10.2080  10.3982  10.4391
    10.5587  10.6042  10.8793  10.9134  10.9935

     occupation numbers 
     1.0000   1.0000   1.0000   1.0000   1.0000   1.0000   1.0000   1.0000
     1.0000   1.0000   1.0000   1.0000   1.0000   1.0000   1.0000   1.0000
     1.0000   1.0000   1.0000   1.0000   1.0000   1.0000   1.0000   1.0000
     1.0000   1.0000   1.0000   1.0000   1.0000   1.0000   1.0000   1.0000
     1.0000   1.0000   1.0000   1.0000   1.0000   1.0000   1.0000   1.0000
     1.0000   1.0000   1.0000   1.0000   1.0000   1.0000   1.0000   1.0000
     1.0000   1.0000   1.0000   1.0000   1.0000   1.0000   1.0000   1.0000
     1.0000   1.0000   1.0000   1.0000   1.0000   1.0000   1.0000   1.0000
[...]
     atom    2 type  1   force =    -0.00000760   -0.02499593    0.03604264
     atom    3 type  1   force =     0.00421534   -0.00247520   -0.00706127
     atom    4 type  1   force =    -0.01875025    0.01116322    0.03823101
     atom    5 type  1   force =    -0.00004164    0.00022124   -0.01055942
     atom    6 type  1   force =     0.00001779    0.00013304   -0.07360233
     atom    7 type  1   force =    -0.00421076   -0.00247079   -0.00700041
     atom    8 type  1   force =     0.01880543    0.01121317    0.03817152
     atom    9 type  2   force =     0.00002220   -0.00002124    0.25520939
     atom   10 type  2   force =    -0.04740933   -0.02752917    0.20752334
     atom   11 type  2   force =    -0.00139442   -0.00074206    0.25702823
     atom   12 type  2   force =     0.00001820    0.05455677    0.20770447
     atom   13 type  2   force =    -0.00003331    0.00154568    0.25703563
     atom   14 type  2   force =     0.04739387   -0.02750669    0.20753085
     atom   15 type  2   force =     0.00141619   -0.00080524    0.25703808
     atom   16 type  2   force =     0.01798956   -0.01034395   -0.22430044
     atom   17 type  2   force =     0.04009378   -0.02353814   -0.24051843
     atom   18 type  2   force =    -0.00003369    0.02038103   -0.22481628
     atom   19 type  2   force =     0.00003551    0.04634248   -0.24035345
     atom   20 type  2   force =    -0.01796312   -0.01027763   -0.22431519
     atom   21 type  2   force =    -0.04009602   -0.02356681   -0.24051449
     atom   22 type  2   force =     0.00002540   -0.00001890   -0.25139029
     atom   23 type  2   force =    -0.00006061    0.00200350   -0.11069612
     atom   24 type  1   force =    -0.00003269    0.00112464    0.20929156
     The ionic contribution  to forces
     atom    1 type  1   force =    -0.00065211    0.17792312   -0.04815446
     atom    2 type  1   force =     0.00020989   -0.58147647   -2.47098169
     atom    3 type  1   force =     0.15340372   -0.08739112   -0.04493444
     atom    4 type  1   force =    -0.56514356    0.29726394   -2.50358535
     atom    5 type  1   force =     0.00115557   -0.00511752    0.22145676
     atom    6 type  1   force =    -0.00028067    0.01218213    0.46398552
     atom    7 type  1   force =    -0.15349108   -0.08694131   -0.04378758
     atom    8 type  1   force =     0.56456405    0.29651094   -2.50508322
     atom    9 type  2   force =    -0.00114699    0.00280092  -14.81837630
     atom   10 type  2   force =     2.18913312    1.28459004  -11.89997367
     atom   11 type  2   force =     0.36498061    0.20528419  -15.24947307
     atom   12 type  2   force =     0.00018410   -2.53418531  -11.92107812
     atom   13 type  2   force =     0.00132429   -0.41432378  -15.23730415
     atom   14 type  2   force =    -2.18918998    1.28491405  -11.89931396
     atom   15 type  2   force =    -0.36518703    0.20713657  -15.25019693
     atom   16 type  2   force =    -0.87502832    0.50023400   14.51787941
     atom   17 type  2   force =    -0.98509723    0.60361816   12.32504157
     atom   18 type  2   force =     0.00078791   -0.99843450   14.53554976
     atom   19 type  2   force =    -0.00141436   -1.15640361   12.30607535
     atom   20 type  2   force =     0.87473232    0.49895336   14.51760408
     atom   21 type  2   force =     0.98499642    0.60490879   12.32397696
     atom   22 type  2   force =    -0.00034231    0.00282252   15.77044666
     atom   23 type  2   force =     0.00170776   -0.07771895   11.43068504
     atom   24 type  1   force =    -0.00020612   -0.03715016   -4.52045815
     The local contribution  to forces
     atom    1 type  1   force =     0.00063840   -0.18233798    0.05528578
     atom    2 type  1   force =    -0.00020408    0.60797891    2.43644137
     atom    3 type  1   force =    -0.15724515    0.08965335    0.05214357
     atom    4 type  1   force =     0.58527439   -0.30921063    2.46688935
     atom    5 type  1   force =    -0.00110898    0.00489748   -0.21188609
     atom    6 type  1   force =     0.00026277   -0.01229971   -0.39102487
     atom    7 type  1   force =     0.15732555    0.08919863    0.05092877
     atom    8 type  1   force =    -0.58474562   -0.30850660    2.46845355
     atom    9 type  2   force =     0.00112169   -0.00278011   14.56903530
     atom   10 type  2   force =    -2.14308989   -1.25783324   11.69684249
     atom   11 type  2   force =    -0.36357865   -0.20453420   14.99814624
     atom   12 type  2   force =    -0.00020038    2.48117551   11.71777928
     atom   13 type  2   force =    -0.00129102    0.41276173   14.98596802
     atom   14 type  2   force =     2.14316148   -1.25817889   11.69617725
     atom   15 type  2   force =     0.36376622   -0.20632591   14.99885603
     atom   16 type  2   force =     0.85732082   -0.49005646  -14.29823377
     atom   17 type  2   force =     0.94605807   -0.58072514  -12.08990127
     atom   18 type  2   force =    -0.00075453    0.97836349  -14.31541728
     atom   19 type  2   force =     0.00137590    1.11131144  -12.07111125
     atom   20 type  2   force =    -0.85705033   -0.48884057  -14.29794557
     atom   21 type  2   force =    -0.94595771   -0.58198617  -12.08884547
     atom   22 type  2   force =     0.00031878   -0.00280255  -15.52388454
     atom   23 type  2   force =    -0.00165163    0.07581986  -11.32253999
     atom   24 type  1   force =     0.00023877    0.03601124    4.31291059
     The core correction contribution to forces
     atom    1 type  1   force =     0.00000000   -0.00011844    0.00009116
     atom    2 type  1   force =     0.00000040   -0.00134406   -0.00144755
     atom    3 type  1   force =    -0.00010268    0.00005993    0.00009113
     atom    4 type  1   force =    -0.00121297    0.00069376   -0.00147963
     atom    5 type  1   force =     0.00000017   -0.00000375    0.00021608
     atom    6 type  1   force =    -0.00000035   -0.00000319    0.00126453
     atom    7 type  1   force =     0.00010279    0.00005999    0.00009105
     atom    8 type  1   force =     0.00121194    0.00069291   -0.00147971
     atom    9 type  2   force =    -0.00000076    0.00000293   -0.00536326
     atom   10 type  2   force =     0.00116275    0.00067957   -0.00441596
     atom   11 type  2   force =     0.00001382    0.00001107   -0.00541222
     atom   12 type  2   force =    -0.00000062   -0.00134011   -0.00441882
     atom   13 type  2   force =    -0.00000013   -0.00001248   -0.00541271
     atom   14 type  2   force =    -0.00116303    0.00067873   -0.00441551
     atom   15 type  2   force =    -0.00001442    0.00001126   -0.00541289
     atom   16 type  2   force =    -0.00039797    0.00023111    0.00494014
     atom   17 type  2   force =    -0.00088010    0.00051870    0.00536734
     atom   18 type  2   force =    -0.00000004   -0.00044358    0.00495825
     atom   19 type  2   force =    -0.00000110   -0.00101550    0.00536461
     atom   20 type  2   force =     0.00039682    0.00023046    0.00494166
     atom   21 type  2   force =     0.00087853    0.00051912    0.00536997
     atom   22 type  2   force =    -0.00000057    0.00000241    0.00552953
     atom   23 type  2   force =    -0.00000006   -0.00006858    0.00259579
     atom   24 type  1   force =     0.00000011   -0.00001648   -0.00232015
     The Hubbard contrib.    to forces
     atom    1 type  1   force =     0.00000000    0.00000000    0.00000000
     atom    2 type  1   force =     0.00000000    0.00000000    0.00000000
     atom    3 type  1   force =     0.00000000    0.00000000    0.00000000
     atom    4 type  1   force =     0.00000000    0.00000000    0.00000000
     atom    5 type  1   force =     0.00000000    0.00000000    0.00000000
     atom    6 type  1   force =     0.00000000    0.00000000    0.00000000
     atom    7 type  1   force =     0.00000000    0.00000000    0.00000000
     atom    8 type  1   force =     0.00000000    0.00000000    0.00000000
     atom    9 type  2   force =     0.00000000    0.00000000    0.00000000
     atom   10 type  2   force =     0.00000000    0.00000000    0.00000000
     atom   11 type  2   force =     0.00000000    0.00000000    0.00000000
     atom   12 type  2   force =     0.00000000    0.00000000    0.00000000
     atom   13 type  2   force =     0.00000000    0.00000000    0.00000000
     atom   14 type  2   force =     0.00000000    0.00000000    0.00000000
     atom   15 type  2   force =     0.00000000    0.00000000    0.00000000
     atom   16 type  2   force =     0.00000000    0.00000000    0.00000000
     atom   17 type  2   force =     0.00000000    0.00000000    0.00000000
     atom   18 type  2   force =     0.00000000    0.00000000    0.00000000
     atom   19 type  2   force =     0.00000000    0.00000000    0.00000000
     atom   20 type  2   force =     0.00000000    0.00000000    0.00000000
     atom   21 type  2   force =     0.00000000    0.00000000    0.00000000
     atom   22 type  2   force =     0.00000000    0.00000000    0.00000000
     atom   23 type  2   force =     0.00000000    0.00000000    0.00000000
     atom   24 type  1   force =     0.00000000    0.00000000    0.00000000
     The SCF correction term to forces
     atom    1 type  1   force =     0.00000026    0.00000297   -0.00000112
     atom    2 type  1   force =     0.00000013   -0.00000803   -0.00000360
     atom    3 type  1   force =     0.00000148   -0.00000244   -0.00000091
     atom    4 type  1   force =    -0.00001096    0.00001082   -0.00000215
     atom    5 type  1   force =    -0.00000017    0.00000156   -0.00000986
     atom    6 type  1   force =    -0.00000018   -0.00000147    0.00000112
     atom    7 type  1   force =    -0.00000110   -0.00000255   -0.00000069
     atom    8 type  1   force =     0.00001069    0.00001057   -0.00000224
     atom    9 type  2   force =     0.00000012    0.00000261   -0.00001168
     atom   10 type  2   force =     0.00000744   -0.00002000   -0.00000319
     atom   11 type  2   force =    -0.00000395   -0.00000638   -0.00000261
     atom   12 type  2   force =     0.00000052    0.00001480   -0.00000878
     atom   13 type  2   force =    -0.00000022    0.00000873   -0.00000043
     atom   14 type  2   force =    -0.00000731   -0.00001946   -0.00000290
     atom   15 type  2   force =     0.00000438   -0.00000680   -0.00000282
     atom   16 type  2   force =     0.00000290    0.00000273    0.00000341
     atom   17 type  2   force =     0.00000929    0.00001576    0.00000105
     atom   18 type  2   force =    -0.00000000    0.00000090    0.00000234
     atom   19 type  2   force =    -0.00000056   -0.00001227    0.00001397
     atom   20 type  2   force =    -0.00000262    0.00000293    0.00000341
     atom   21 type  2   force =    -0.00000947    0.00001663    0.00000150
     atom   22 type  2   force =     0.00000004   -0.00000504   -0.00000213
     atom   23 type  2   force =     0.00000069   -0.00002510    0.00001036
     atom   24 type  1   force =    -0.00000022    0.00001401    0.00000641

     Total force =     0.001756     Total SCF correction =     0.000066


     Computing stress (Cartesian axis) and pressure



     -----------------------------------------------
     Non-local corr. energy    =      11.19258526 Ry
     -----------------------------------------------

          total   stress  (Ry/bohr**3)                   (kbar)     P=       -0.40
  -0.00000948   0.00000000  -0.00000001           -1.39        0.00       -0.00
   0.00000000  -0.00000933   0.00000010            0.00       -1.37        0.02
  -0.00000001   0.00000010   0.00001061           -0.00        0.02        1.56

     kinetic stress (kbar)  15280.79      0.00     -0.00
                                0.00  15280.99      0.12
                               -0.00      0.12  15301.03

     local   stress (kbar)  -6853.86     -0.06      0.00
                               -0.06  -6849.69     -0.08
                                0.00     -0.08    918.38

     nonloc. stress (kbar)  -1508.42      0.00     -0.00
                                0.00  -1508.31      0.08
                               -0.00      0.08  -1503.85

     hartree stress (kbar)  11515.02      0.03      0.00
                                0.03  11513.50      0.12
                                0.00      0.12   7991.74

     exc-cor stress (kbar)   6800.93      0.00     -0.00
                                0.00   6800.93      0.00
                               -0.00      0.00   6800.82

     corecor stress (kbar) -11103.21     -0.00      0.00
                               -0.00 -11103.22     -0.00
                                0.00     -0.00 -11103.47

     ewald   stress (kbar) -14213.75      0.03      0.00
                                0.03 -14216.69     -0.21
                                0.00     -0.21 -18485.09

     hubbard stress (kbar)      0.00      0.00      0.00
                                0.00      0.00      0.00
                                0.00      0.00      0.00

     DFT-D   stress (kbar)      0.00      0.00      0.00
                                0.00      0.00      0.00
                                0.00      0.00      0.00

     XDM     stress (kbar)      0.00      0.00      0.00
                                0.00      0.00      0.00
                                0.00      0.00      0.00

     dft-nl  stress (kbar)     81.12     -0.00      0.00
                               -0.00     81.12     -0.00
                                0.00     -0.00     82.02

     TS-vdW  stress (kbar)      0.00      0.00      0.00
                                0.00      0.00      0.00
                                0.00      0.00      0.00

     MDB     stress (kbar)      0.00      0.00      0.00
                                0.00      0.00      0.00
                                0.00      0.00      0.00

     3D-RISM stress (kbar)      0.00      0.00      0.00
                                0.00      0.00      0.00
                                0.00      0.00      0.00

     Energy error            =      2.5E-05 Ry
     Gradient error          =      9.1E-04 Ry/Bohr

     bfgs converged in  29 scf cycles and  28 bfgs steps
     (criteria: energy <  1.0E-04 Ry, force <  1.0E-03 Ry/Bohr)

     End of BFGS Geometry Optimization

     Final energy             =  -16521.5545205221 Ry

     File ./PbI2.bfgs deleted, as requested
Begin final coordinates

ATOMIC_POSITIONS (angstrom)
Pb            2.3556586318        4.0829794899       14.7638968734
Pb            2.3558336771        3.8534301924        7.4630651441
Pb            0.0028162894        8.1581852068       14.7634850156
Pb           -0.1908721508        8.2708230753        7.4668129181
Pb            7.0668201607        4.0800317020       14.7643369012
Pb            7.0670351001        4.0801449197        7.2828601537
Pb            4.7085657878        8.1582877531       14.7638057942
Pb            4.9025037143        8.2708906024        7.4664010131
I             2.3556719262        1.3598522896       12.8953329974
I            -0.0162798762        5.4301031177        5.5202622880
I             0.0018666115        5.4407766832       12.8958706166
I             7.0669179561        1.3789413486        5.5200973192
I             7.0669865085        1.3577019685       12.8960134826
I             4.7278302727        5.4300251599        5.5201253813
I             4.7093907160        5.4409054387       12.8959906661
I             0.0036388332        2.7177531578        1.9217495097
I            -0.0113978312        2.7263851156        9.3494740774
I            -2.3555606187        6.8036306993        1.9211885370
I            -2.3555689767        6.7867186490        9.3496573267
I             4.7076738772        2.7176692902        1.9216505117
I             4.7229651276        2.7264357735        9.3497060357
I             2.3556244591        6.7999302121        1.8958776535
I             2.3557814258        6.8023604338        9.1227562077
Pb            2.3558941553        1.3613151638        4.8641159284
End final coordinates



     Writing all to output data dir ./PbI2.save/
 
     init_run     :      8.07s CPU      8.38s WALL (       1 calls)
     electrons    :   9296.94s CPU   9526.84s WALL (      29 calls)
     update_pot   :     56.63s CPU     57.68s WALL (      28 calls)
     forces       :    112.36s CPU    116.37s WALL (      29 calls)
     stress       :   1153.46s CPU   1165.99s WALL (      29 calls)

     Called by init_run:
     wfcinit      :      4.13s CPU      4.26s WALL (       1 calls)
     wfcinit:atom :      0.03s CPU      0.06s WALL (       4 calls)
     wfcinit:wfcr :      4.00s CPU      4.06s WALL (       4 calls)
     potinit      :      2.65s CPU      2.73s WALL (       1 calls)
     hinit0       :      0.41s CPU      0.43s WALL (       1 calls)

     Called by electrons:
     c_bands      :   8005.85s CPU   8144.52s WALL (     366 calls)
     sum_band     :    759.30s CPU    804.85s WALL (     366 calls)
     v_of_rho     :    210.74s CPU    220.24s WALL (     380 calls)
     v_h          :      2.42s CPU      2.44s WALL (     380 calls)
     v_xc         :    240.60s CPU    251.43s WALL (     438 calls)
     newd         :    148.51s CPU    183.71s WALL (     380 calls)
     PAW_pot      :    216.13s CPU    217.66s WALL (     408 calls)
     mix_rho      :     10.06s CPU     10.30s WALL (     366 calls)
     vdW_kernel   :      1.27s CPU      1.28s WALL (       1 calls)

     Called by c_bands:
     init_us_2    :     47.27s CPU     47.71s WALL (    3276 calls)
     init_us_2:cp :     47.23s CPU     47.70s WALL (    3276 calls)
     cegterg      :   7855.18s CPU   7991.48s WALL (    1464 calls)

     Called by sum_band:
     sum_band:wei :      0.20s CPU      0.21s WALL (     366 calls)
     sum_band:loo :    582.69s CPU    587.81s WALL (     366 calls)
     sum_band:buf :     16.89s CPU     17.12s WALL (    1464 calls)
     sum_band:ini :     21.52s CPU     21.69s WALL (    1464 calls)
     sum_band:cal :    152.23s CPU    153.29s WALL (    1576 calls)
     sum_band:bec :      1.24s CPU      1.26s WALL (    1576 calls)
     addusdens    :    128.80s CPU    168.89s WALL (     366 calls)
     addusd:skk   :      2.44s CPU      2.64s WALL (     732 calls)
     addusd:dgemm :     56.01s CPU     94.66s WALL (     732 calls)
     addusd:qvan2 :     66.16s CPU     66.62s WALL (     732 calls)

     Called by *egterg:
     cdiaghg      :   2403.47s CPU   2418.07s WALL (   12368 calls)
     cegterg:over :    889.15s CPU    895.95s WALL (   11076 calls)
     cegterg:upda :    540.80s CPU    559.68s WALL (   11076 calls)
     cegterg:last :    232.82s CPU    234.43s WALL (    1540 calls)
     h_psi        :   3011.21s CPU   3063.33s WALL (   12544 calls)
     s_psi        :    431.14s CPU    434.19s WALL (   12544 calls)
     g_psi        :      6.21s CPU      6.29s WALL (   11076 calls)

     Called by h_psi:
     h_psi:calbec :    476.95s CPU    480.40s WALL (   12544 calls)
     vloc_psi     :   2083.66s CPU   2105.03s WALL (   12544 calls)
     add_vuspsi   :    422.63s CPU    425.84s WALL (   12544 calls)

     General routines
     calbec       :    885.75s CPU    891.72s WALL (   14700 calls)
     fft          :    177.71s CPU    179.17s WALL (   28826 calls)
     ffts         :      2.35s CPU      2.38s WALL (     746 calls)
     fftw         :   2292.74s CPU   2315.84s WALL ( 2181810 calls)
     interpolate  :      3.37s CPU      3.40s WALL (     380 calls)
 
     Parallel routines

     PAW routines
     PAW_pot      :    216.13s CPU    217.66s WALL (     408 calls)
 
     PWSCF        :      2h57m CPU      3h 2m WALL

 
   This run was terminated on:   0:35: 7  28Mar2024            

=------------------------------------------------------------------------------=
   JOB DONE.
=------------------------------------------------------------------------------=
