
     Program PWSCF v.7.1 starts on 28Mar2024 at 14:23:49 

     This program is part of the open-source Quantum ESPRESSO suite
     for quantum simulation of materials; please cite
         "P. Giannozzi et al., J. Phys.:Condens. Matter 21 395502 (2009);
         "P. Giannozzi et al., J. Phys.:Condens. Matter 29 465901 (2017);
         "P. Giannozzi et al., J. Chem. Phys. 152 154105 (2020);
          URL http://www.quantum-espresso.org", 
     in publications or presentations arising from this work. More details at
     http://www.quantum-espresso.org/quote

     Parallel version (MPI & OpenMP), running on      20 processor cores
     Number of MPI processes:                20
     Threads/MPI process:                     1

     MPI processes distributed on     1 nodes
     1891413 MiB available memory on the printing compute node when the environment starts
 
     Reading input from espresso.pwi
Warning: card &CELL ignored
Warning: card    CELL_DYNAMICS    = 'BFGS' ignored
Warning: card / ignored

     Current dimensions of program PWSCF are:
     Max number of different atomic species (ntypx) = 10
     Max number of k-points (npk) =  40000
     Max angular momentum in pseudopotentials (lmaxx) =  4
     file Pb.pbe-dn-kjpaw_psl.1.0.0.UPF: wavefunction(s)  6S 6P 5D renormalized
     file I.pbe-dn-kjpaw_psl.1.0.0.UPF: wavefunction(s)  5S 5P renormalized

     **************************************************************************
     Initializing libbeef V0.1.2 with the BEEF-vdW functional.
     Citation: Wellendorff et al., PRB 85, 235149 (2012).
     **************************************************************************


     IMPORTANT: XC functional enforced from input :
     Exchange-correlation= BEEF-VDW
                           (   1   4  43  14   2   0   0)
     Any further DFT definition will be discarded
     Please, verify this is what you really want

 
     R & G space division:  proc/nbgrp/npool/nimage =      20
     Subspace diagonalization in iterative solution of the eigenvalue problem:
     a serial algorithm will be used

 
     Parallelization info
     --------------------
     sticks:   dense  smooth     PW     G-vecs:    dense   smooth      PW
     Min         381     306     80                42326    30292    4074
     Max         383     307     81                42331    30298    4079
     Sum        7639    6121   1615               846533   605897   81527
 
     Using Slab Decomposition
 


     bravais-lattice index     =            4
     lattice parameter (alat)  =      17.8060  a.u.
     unit-cell volume          =    7656.2263 (a.u.)^3
     number of atoms/cell      =           24
     number of atomic types    =            2
     number of electrons       =       381.00
     number of Kohn-Sham states=          229
     kinetic-energy cutoff     =      70.0000  Ry
     charge density cutoff     =     350.0000  Ry
     scf convergence threshold =      1.0E-07
     mixing beta               =       0.7000
     number of iterations used =            8  plain     mixing
     Exchange-correlation= BEEF-VDW
                           (   1   4  43  14   2   0   0)

     celldm(1)=  17.806016  celldm(2)=   0.000000  celldm(3)=   1.565971
     celldm(4)=   0.000000  celldm(5)=   0.000000  celldm(6)=   0.000000

     crystal axes: (cart. coord. in units of alat)
               a(1) = (   1.000000   0.000000   0.000000 )  
               a(2) = (  -0.500000   0.866025   0.000000 )  
               a(3) = (   0.000000   0.000000   1.565971 )  

     reciprocal axes: (cart. coord. in units 2 pi/alat)
               b(1) = (  1.000000  0.577350 -0.000000 )  
               b(2) = (  0.000000  1.154701  0.000000 )  
               b(3) = (  0.000000 -0.000000  0.638581 )  


     PseudoPot. # 1 for Pb read from file:
     /trace/group/acmegroup/atimmins/packages/espresso/pseudo/psl_1.0.0/pslibrary.1.0.0/pbe/PSEUDOPOTENTIALS/Pb.pbe-dn-kjpaw_psl.1.0.0.UPF
     MD5 check sum: 39ab5b8a6bbd56b7735ad9f188aac93a
     Pseudo is Projector augmented-wave + core cor, Zval = 14.0
     Generated using 'atomic' code by A. Dal Corso  v.7.1
     Shape of augmentation charge: PSQ
     Using radial grid of 1281 points,  6 beta functions with: 
                l(1) =   0
                l(2) =   0
                l(3) =   1
                l(4) =   1
                l(5) =   2
                l(6) =   2
     Q(r) pseudized with 0 coefficients 


     PseudoPot. # 2 for I  read from file:
     /trace/group/acmegroup/atimmins/packages/espresso/pseudo/psl_1.0.0/pslibrary.1.0.0/pbe/PSEUDOPOTENTIALS/I.pbe-dn-kjpaw_psl.1.0.0.UPF
     MD5 check sum: bfa8781bc1224d19af3f3980e3fab11e
     Pseudo is Projector augmented-wave + core cor, Zval = 17.0
     Generated using 'atomic' code by A. Dal Corso  v.7.1
     Shape of augmentation charge: PSQ
     Using radial grid of 1247 points,  6 beta functions with: 
                l(1) =   0
                l(2) =   0
                l(3) =   1
                l(4) =   1
                l(5) =   2
                l(6) =   2
     Q(r) pseudized with 0 coefficients 


     atomic species   valence    mass     pseudopotential
        Pb            14.00   207.20000     Pb( 1.00)
        I             17.00   126.90447     I ( 1.00)

     No symmetry found


                                    s                        frac. trans.

      isym =  1     identity                                     

 cryst.   s( 1) = (     1          0          0      )
                  (     0          1          0      )
                  (     0          0          1      )

 cart.    s( 1) = (  1.0000000  0.0000000  0.0000000 )
                  (  0.0000000  1.0000000  0.0000000 )
                  (  0.0000000  0.0000000  1.0000000 )


     point group C_1 (1)    
     there are  1 classes
     the character table:

       E    
A      1.00

     the symmetry operations in each class and the name of the first element:

     E        1
          identity                                               

   Cartesian axes

     site n.     atom                  positions (alat units)
         1           Pb  tau(   1) = (   0.2500170   0.4329745   1.5659650  )
         2           Pb  tau(   2) = (   0.2500068   0.4329836   0.7829793  )
         3           Pb  tau(   3) = (   0.0000153   0.8659852   1.5659567  )
         4           Pb  tau(   4) = (   0.0000051   0.8659943   0.7829710  )
         5           Pb  tau(   5) = (   0.7500170   0.4329726   1.5659715  )
         6           Pb  tau(   6) = (   0.7500068   0.4329816   0.7829858  )
         7           Pb  tau(   7) = (   0.5000153   0.8659833   1.5659633  )
         8           Pb  tau(   8) = (   0.5000051   0.8659923   0.7829776  )
         9           I   tau(   9) = (   0.2500209   0.1443009   1.3648506  )
        10           I   tau(  10) = (   0.0000091   0.5773207   0.5818567  )
        11           I   tau(  11) = (   0.0000193   0.5773116   1.3648424  )
        12           I   tau(  12) = (   0.7500107   0.1443080   0.5818714  )
        13           I   tau(  13) = (   0.7500209   0.1442990   1.3648571  )
        14           I   tau(  14) = (   0.5000091   0.5773187   0.5818632  )
        15           I   tau(  15) = (   0.5000193   0.5773097   1.3648489  )
        16           I   tau(  16) = (  -0.0000034   0.2886595   0.2011110  )
        17           I   tau(  17) = (   0.0000068   0.2886504   0.9840967  )
        18           I   tau(  18) = (  -0.2500051   0.7216702   0.2011027  )
        19           I   tau(  19) = (  -0.2499949   0.7216611   0.9840884  )
        20           I   tau(  20) = (   0.4999966   0.2886575   0.2011175  )
        21           I   tau(  21) = (   0.5000068   0.2886485   0.9841032  )
        22           I   tau(  22) = (   0.2499949   0.7216682   0.2011092  )
        23           I   tau(  23) = (   0.2500051   0.7216592   0.9840949  )
        24           Pb  tau(  24) = (   0.2500107   0.1443099   0.5818649  )

   Crystallographic axes

     site n.     atom                  positions (cryst. coord.)
         1           Pb  tau(   1) = (  0.4999949  0.4999559  0.9999959  )
         2           Pb  tau(   2) = (  0.4999900  0.4999663  0.4999959  )
         3           Pb  tau(   3) = (  0.4999921  0.9999536  0.9999906  )
         4           Pb  tau(   4) = (  0.4999871  0.9999640  0.4999906  )
         5           Pb  tau(   5) = (  0.9999938  0.4999537  1.0000001  )
         6           Pb  tau(   6) = (  0.9999888  0.4999641  0.5000001  )
         7           Pb  tau(   7) = (  0.9999910  0.9999514  0.9999948  )
         8           Pb  tau(   8) = (  0.9999860  0.9999618  0.4999948  )
         9           I   tau(   9) = (  0.3333331  0.1666243  0.8715680  )
        10           I   tau(  10) = (  0.3333253  0.6666325  0.3715628  )
        11           I   tau(  11) = (  0.3333303  0.6666220  0.8715628  )
        12           I   tau(  12) = (  0.8333270  0.1666326  0.3715722  )
        13           I   tau(  13) = (  0.8333320  0.1666221  0.8715722  )
        14           I   tau(  14) = (  0.8333242  0.6666303  0.3715669  )
        15           I   tau(  15) = (  0.8333292  0.6666198  0.8715669  )
        16           I   tau(  16) = (  0.1666542  0.3333152  0.1284257  )
        17           I   tau(  17) = (  0.1666592  0.3333048  0.6284257  )
        18           I   tau(  18) = (  0.1666514  0.8333129  0.1284204  )
        19           I   tau(  19) = (  0.1666564  0.8333025  0.6284204  )
        20           I   tau(  20) = (  0.6666531  0.3333130  0.1284299  )
        21           I   tau(  21) = (  0.6666581  0.3333026  0.6284299  )
        22           I   tau(  22) = (  0.6666503  0.8333107  0.1284246  )
        23           I   tau(  23) = (  0.6666553  0.8333003  0.6284246  )
        24           Pb  tau(  24) = (  0.3333281  0.1666348  0.3715680  )

     number of k points=     4  Gaussian smearing, width (Ry)=  0.0100
                       cart. coord. in units 2pi/alat
        k(    1) = (   0.0000000   0.0000000   0.0000000), wk =   0.5000000
        k(    2) = (   0.0000000  -0.5773503   0.0000000), wk =   0.5000000
        k(    3) = (   0.5000000  -0.2886751   0.0000000), wk =   0.5000000
        k(    4) = (  -0.5000000  -0.2886751   0.0000000), wk =   0.5000000

                       cryst. coord.
        k(    1) = (   0.0000000   0.0000000   0.0000000), wk =   0.5000000
        k(    2) = (   0.0000000  -0.5000000   0.0000000), wk =   0.5000000
        k(    3) = (   0.5000000  -0.5000000   0.0000000), wk =   0.5000000
        k(    4) = (  -0.5000000  -0.0000000   0.0000000), wk =   0.5000000

     Dense  grid:   846533 G-vectors     FFT dimensions: ( 108, 108, 180)

     Smooth grid:   605897 G-vectors     FFT dimensions: (  96,  96, 150)

     Dynamical RAM for                 wfc:      13.23 MB

     Dynamical RAM for     wfc (w. buffer):      66.15 MB

     Dynamical RAM for           str. fact:       1.29 MB

     Dynamical RAM for           local pot:       0.00 MB

     Dynamical RAM for          nlocal pot:      24.96 MB

     Dynamical RAM for                qrad:       3.00 MB

     Dynamical RAM for          rho,v,vnew:       4.34 MB

     Dynamical RAM for               rhoin:       1.45 MB

     Dynamical RAM for            rho*nmix:      10.33 MB

     Dynamical RAM for           G-vectors:       2.65 MB

     Dynamical RAM for          h,s,v(r/c):      38.41 MB

     Dynamical RAM for          <psi|beta>:       1.51 MB

     Dynamical RAM for                 psi:      52.92 MB

     Dynamical RAM for                hpsi:      52.92 MB

     Dynamical RAM for                spsi:      52.92 MB

     Dynamical RAM for      wfcinit/wfcrot:      27.66 MB

     Dynamical RAM for           addusdens:     129.83 MB

     Dynamical RAM for          addusforce:     148.30 MB

     Dynamical RAM for         addusstress:     129.83 MB

     Estimated static dynamical RAM per process >     109.78 MB

     Estimated max dynamical RAM per process >     318.78 MB

     Estimated total dynamical RAM >       6.23 GB

     Atomic positions and unit cell read from directory:
     ./PbI2.save/
     Atomic positions from file used, from input discarded
 

     Check: negative core charge=   -0.000001

     The initial density is read from file :
     ./PbI2.save/charge-density



     %%%%%%%%%%%%%%%%%%%%%%%%%%%%%%%%%%%%%%%%%%%%%%%%%%%%%%%%%%%%%%%%%%%%%%%%
     %                                                                      %
     % You are using vdW-DF, which was implemented by the Thonhauser group. %
     % Please cite the following two papers that made this development      %
     % possible and the two reviews that describe the various versions:     %
     %                                                                      %
     %   T. Thonhauser et al., PRL 115, 136402 (2015).                      %
     %   T. Thonhauser et al., PRB 76, 125112 (2007).                       %
     %   K. Berland et al., Rep. Prog. Phys. 78, 066501 (2015).             %
     %   D.C. Langreth et al., J. Phys.: Condens. Matter 21, 084203 (2009). %
     %                                                                      %
     % If you are calculating stress with vdW-DF, please also cite:         %
     %                                                                      %
     %   R. Sabatini et al., J. Phys.: Condens. Matter 24, 424209 (2012).   %
     %                                                                      %
     %%%%%%%%%%%%%%%%%%%%%%%%%%%%%%%%%%%%%%%%%%%%%%%%%%%%%%%%%%%%%%%%%%%%%%%%

     %%%%%%%%%%%%%%%%%%%%%%%%%%%%%%%%%%%%%%%%%%%%%%%%%%%%%%%%%%%%%%%%%%%%%%%%
     %                                                                      %
     %  vdW-DF NEWS:                                                        %
     %                                                                      %
     %  * vdW-DF3 is now available. DOI: 10.1021/acs.jctc.0c00471           %
     %    use with input_dft = 'vdW-DF3-opt1' or 'vdW-DF3-opt2'             %
     %                                                                      %
     %  * Unscreened and range-separated vdW-DF hybrid functionals          %
     %    DOI: 10.1063/1.4986522 and 10.1088/1361-648X/ac2ad2               %
     %    use with input_dft = 'vdW-DF-cx0' (etc) and 'vdW-DF-ahcx'         %
     %                                                                      %
     %%%%%%%%%%%%%%%%%%%%%%%%%%%%%%%%%%%%%%%%%%%%%%%%%%%%%%%%%%%%%%%%%%%%%%%%


     Carrying out vdW-DF run using the following parameters:
     Nqs    =  20  Npoints =  1024  r_max =  100.000
     q_mesh =  0.00001000  0.04494208  0.09755937  0.15916263
               0.23128650  0.31572767  0.41458969  0.53033537
               0.66584808  0.82450364  1.01025438  1.22772762
               1.48234092  1.78043706  2.12944203  2.53805004
               3.01644009  3.57652955  4.23227104  5.00000000


     -----------------------------------------------
     Non-local corr. energy    =      11.19258526 Ry
     -----------------------------------------------

     Starting wfcs from file
     Checking if some PAW data can be deallocated... 
       PAW data deallocated on   15 nodes for type:  1
       PAW data deallocated on    5 nodes for type:  2

     total cpu time spent up to now is        7.9 secs

     Self-consistent Calculation

     iteration #  1     ecut=    70.00 Ry     beta= 0.70
     Davidson diagonalization with overlap

---- Real-time Memory Report at c_bands before calling an iterative solver
           364 MiB given to the printing process from OS
             0 MiB allocation reported by mallinfo(arena+hblkhd)
       1887711 MiB available memory on the node where the printing process lives
------------------
     ethr =  1.00E-05,  avg # of iterations =  1.0

     Threshold (ethr) on eigenvalues was too large:
     Diagonalizing with lowered threshold

     Davidson diagonalization with overlap

---- Real-time Memory Report at c_bands before calling an iterative solver
           464 MiB given to the printing process from OS
             0 MiB allocation reported by mallinfo(arena+hblkhd)
       1887154 MiB available memory on the node where the printing process lives
------------------
     ethr =  5.21E-13,  avg # of iterations =  7.8


     -----------------------------------------------
     Non-local corr. energy    =      11.19258462 Ry
     -----------------------------------------------


     total cpu time spent up to now is       38.4 secs

     End of self-consistent calculation

          k = 0.0000 0.0000 0.0000 ( 75645 PWs)   bands (ev):

   -40.9024 -40.9024 -40.9015 -40.8985 -40.8985 -40.8977 -40.8977 -40.8976
   -40.8968 -40.8864 -40.8864 -40.8858 -40.8858 -40.8856 -40.8851 -40.8749
   -40.8748 -40.8747 -40.8746 -40.8740 -40.8738 -40.8728 -40.8727 -40.8727
   -40.8726 -40.8720 -40.8718 -40.8717 -40.8716 -40.8708 -40.8405 -40.8405
   -40.8383 -40.8383 -40.8371 -40.8235 -40.8235 -40.8229 -40.8229 -40.8228
   -40.6976 -40.6975 -40.6970 -40.6970 -40.6969 -40.6969 -40.6816 -40.6811
   -40.6811 -40.6726 -40.6718 -40.6718 -40.6700 -40.6693 -40.6693 -40.5416
   -40.5407 -40.5399 -40.5398 -40.5390 -40.5389 -40.5165 -40.5146 -40.5146
   -40.5103 -40.5083 -40.5083 -40.5035 -40.5014 -40.5014 -40.3021 -40.3021
   -40.2652 -40.2641 -40.2517 -13.0175 -13.0174 -13.0136 -12.9961 -12.9961
   -12.9929 -12.9925 -12.9920 -12.9920 -12.9902 -12.9901 -12.9894 -12.9852
   -12.9852 -12.9835 -12.9826 -12.9825 -12.9778 -12.9777 -12.9762 -12.7291
   -12.7290 -12.7121 -12.7116 -12.7115 -12.5904 -12.5901 -12.5655 -12.5621
   -12.5444 -12.5440 -12.5405 -12.5355 -12.5065 -12.5065 -12.5020 -12.4957
   -12.4892 -12.4879 -12.4816 -12.4776 -12.4761 -12.3893 -12.3869 -12.3467
    -8.1621  -7.7988  -7.7447  -7.7134  -7.7130  -7.6709  -7.6142  -7.6137
    -7.5744  -7.4730  -7.4727  -7.4275  -7.2679  -7.2667  -7.0502  -3.7284
    -3.7147  -3.7145  -3.6716  -3.2710  -3.2369  -3.2048  -3.1994  -2.5339
     0.8543   0.8544   0.8649   1.3434   1.3882   1.3885   1.7330   1.7334
     1.8100   1.8654   1.8713   1.8713   2.2012   2.2167   2.2170   2.2349
     2.4151   2.4155   2.4785   2.5055   2.5071   2.6060   2.6064   2.6095
     2.6389   2.6391   2.6801   2.7167   2.7321   2.7324   2.7360   2.8339
     2.8339   3.0617   3.0622   3.0707   3.0829   3.0859   3.1353   3.1491
     3.1494   3.2753   3.2760   3.3120   3.4745   4.8693   5.4040   5.4071
     5.9303   6.3977   6.5792   6.5797   6.6341   6.7581   6.7582   6.9868
     6.9880   7.2032   7.2037   7.2722   7.2992   7.3139   7.3142   7.4381
     7.4393   7.7125   7.7236   7.8221   7.8228   8.1358   8.1887   8.1908
     9.2231   9.2235   9.2642   9.9227   9.9231   9.9636  10.0321  10.4072
    11.0787  11.2441  11.2443  11.2678  11.2680

     occupation numbers 
     1.0000   1.0000   1.0000   1.0000   1.0000   1.0000   1.0000   1.0000
     1.0000   1.0000   1.0000   1.0000   1.0000   1.0000   1.0000   1.0000
     1.0000   1.0000   1.0000   1.0000   1.0000   1.0000   1.0000   1.0000
     1.0000   1.0000   1.0000   1.0000   1.0000   1.0000   1.0000   1.0000
     1.0000   1.0000   1.0000   1.0000   1.0000   1.0000   1.0000   1.0000
     1.0000   1.0000   1.0000   1.0000   1.0000   1.0000   1.0000   1.0000
     1.0000   1.0000   1.0000   1.0000   1.0000   1.0000   1.0000   1.0000
     1.0000   1.0000   1.0000   1.0000   1.0000   1.0000   1.0000   1.0000
     1.0000   1.0000   1.0000   1.0000   1.0000   1.0000   1.0000   1.0000
     1.0000   1.0000   1.0000   1.0000   1.0000   1.0000   1.0000   1.0000
     1.0000   1.0000   1.0000   1.0000   1.0000   1.0000   1.0000   1.0000
     1.0000   1.0000   1.0000   1.0000   1.0000   1.0000   1.0000   1.0000
     1.0000   1.0000   1.0000   1.0000   1.0000   1.0000   1.0000   1.0000
     1.0000   1.0000   1.0000   1.0000   1.0000   1.0000   1.0000   1.0000
     1.0000   1.0000   1.0000   1.0000   1.0000   1.0000   1.0000   1.0000
     1.0000   1.0000   1.0000   1.0000   1.0000   1.0000   1.0000   1.0000
     1.0000   1.0000   1.0000   1.0000   1.0000   1.0000   1.0000   1.0000
     1.0000   1.0000   1.0000   1.0000   1.0000   1.0000   1.0000   1.0000
     1.0000   1.0000   1.0000   1.0000   1.0000   1.0000   1.0000   1.0000
     1.0000   1.0000   1.0000   1.0000   1.0000   1.0000   1.0000   1.0000
     1.0000   1.0000   1.0000   1.0000   1.0000   1.0000   1.0000   1.0000
     1.0000   1.0000   1.0000   1.0000   1.0000   1.0000   1.0000   1.0000
     1.0000   1.0000   1.0000   1.0000   1.0000   1.0000   1.0000   1.0000
     1.0000   1.0000   1.0000   1.0000   1.0000   0.9994   0.0107   0.0098
     0.0000   0.0000   0.0000   0.0000   0.0000   0.0000   0.0000   0.0000
     0.0000   0.0000   0.0000   0.0000   0.0000   0.0000   0.0000   0.0000
     0.0000   0.0000   0.0000   0.0000   0.0000   0.0000   0.0000   0.0000
     0.0000   0.0000   0.0000   0.0000   0.0000   0.0000   0.0000   0.0000
     0.0000   0.0000   0.0000   0.0000   0.0000

          k = 0.0000-0.5774 0.0000 ( 75730 PWs)   bands (ev):

   -40.9024 -40.9024 -40.9015 -40.8985 -40.8985 -40.8977 -40.8977 -40.8976
   -40.8968 -40.8864 -40.8864 -40.8858 -40.8858 -40.8856 -40.8851 -40.8749
   -40.8748 -40.8747 -40.8746 -40.8740 -40.8738 -40.8728 -40.8727 -40.8727
   -40.8726 -40.8720 -40.8718 -40.8717 -40.8716 -40.8708 -40.8405 -40.8405
   -40.8383 -40.8383 -40.8371 -40.8235 -40.8235 -40.8229 -40.8229 -40.8228
   -40.6976 -40.6975 -40.6970 -40.6970 -40.6969 -40.6969 -40.6815 -40.6811
   -40.6811 -40.6726 -40.6718 -40.6718 -40.6700 -40.6693 -40.6693 -40.5416
   -40.5407 -40.5399 -40.5398 -40.5390 -40.5389 -40.5165 -40.5146 -40.5146
   -40.5103 -40.5083 -40.5083 -40.5035 -40.5014 -40.5014 -40.3021 -40.3021
   -40.2652 -40.2641 -40.2517 -13.0112 -13.0082 -13.0062 -13.0043 -12.9976
   -12.9967 -12.9939 -12.9913 -12.9897 -12.9886 -12.9885 -12.9880 -12.9866
   -12.9865 -12.9847 -12.9844 -12.9828 -12.9819 -12.9818 -12.9781 -12.7286
   -12.7285 -12.7120 -12.7115 -12.7115 -12.5905 -12.5903 -12.5660 -12.5590
   -12.5470 -12.5442 -12.5407 -12.5358 -12.5084 -12.5060 -12.4990 -12.4929
   -12.4884 -12.4877 -12.4819 -12.4796 -12.4790 -12.3893 -12.3879 -12.3465
    -7.9726  -7.9633  -7.7304  -7.7135  -7.6838  -7.6512  -7.6424  -7.6026
    -7.5980  -7.5654  -7.4791  -7.3620  -7.3409  -7.2603  -7.0509  -3.7202
    -3.7030  -3.7015  -3.4512  -3.4393  -3.3167  -3.1928  -2.9961  -2.6039
     1.1689   1.1790   1.3156   1.3454   1.4565   1.4978   1.5333   1.6271
     1.7188   1.7583   1.7854   1.8259   1.8556   1.9261   2.0486   2.0948
     2.1658   2.1799   2.1944   2.3128   2.3484   2.3559   2.4786   2.4925
     2.5345   2.6749   2.6797   2.7448   2.7814   2.8196   2.8389   2.9091
     2.9577   2.9695   3.0250   3.0917   3.1242   3.1569   3.1983   3.2261
     3.2405   3.3434   3.3601   3.4120   3.4919   4.9276   5.1573   5.3307
     6.4653   6.5173   6.8731   6.9814   6.9899   7.0767   7.1030   7.1434
     7.2109   7.2332   7.2619   7.3019   7.4602   7.4681   7.4809   7.5506
     7.5868   7.5878   7.6239   7.6487   7.7224   7.9621   8.0721   8.2718
     9.8071   9.8843  10.1288  10.1309  10.1634  10.3242  10.3407  10.4032
    10.6110  10.6785  10.8797  10.9039  10.9600

     occupation numbers 
     1.0000   1.0000   1.0000   1.0000   1.0000   1.0000   1.0000   1.0000
     1.0000   1.0000   1.0000   1.0000   1.0000   1.0000   1.0000   1.0000
     1.0000   1.0000   1.0000   1.0000   1.0000   1.0000   1.0000   1.0000
     1.0000   1.0000   1.0000   1.0000   1.0000   1.0000   1.0000   1.0000
     1.0000   1.0000   1.0000   1.0000   1.0000   1.0000   1.0000   1.0000
     1.0000   1.0000   1.0000   1.0000   1.0000   1.0000   1.0000   1.0000
     1.0000   1.0000   1.0000   1.0000   1.0000   1.0000   1.0000   1.0000
     1.0000   1.0000   1.0000   1.0000   1.0000   1.0000   1.0000   1.0000
     1.0000   1.0000   1.0000   1.0000   1.0000   1.0000   1.0000   1.0000
     1.0000   1.0000   1.0000   1.0000   1.0000   1.0000   1.0000   1.0000
     1.0000   1.0000   1.0000   1.0000   1.0000   1.0000   1.0000   1.0000
     1.0000   1.0000   1.0000   1.0000   1.0000   1.0000   1.0000   1.0000
     1.0000   1.0000   1.0000   1.0000   1.0000   1.0000   1.0000   1.0000
     1.0000   1.0000   1.0000   1.0000   1.0000   1.0000   1.0000   1.0000
     1.0000   1.0000   1.0000   1.0000   1.0000   1.0000   1.0000   1.0000
     1.0000   1.0000   1.0000   1.0000   1.0000   1.0000   1.0000   1.0000
     1.0000   1.0000   1.0000   1.0000   1.0000   1.0000   1.0000   1.0000
     1.0000   1.0000   1.0000   1.0000   1.0000   1.0000   1.0000   1.0000
     1.0000   1.0000   1.0000   1.0000   1.0000   1.0000   1.0000   1.0000
     1.0000   1.0000   1.0000   1.0000   1.0000   1.0000   1.0000   1.0000
     1.0000   1.0000   1.0000   1.0000   1.0000   1.0000   1.0000   1.0000
     1.0000   1.0000   1.0000   1.0000   1.0000   1.0000   1.0000   1.0000
     1.0000   1.0000   1.0000   1.0000   1.0000   1.0000   1.0000   1.0000
     1.0000   1.0000   1.0000   1.0000   1.0000   0.9960   0.6041   0.0619
     0.0000   0.0000   0.0000   0.0000   0.0000   0.0000   0.0000   0.0000
     0.0000   0.0000   0.0000   0.0000   0.0000   0.0000   0.0000   0.0000
     0.0000   0.0000   0.0000   0.0000   0.0000   0.0000   0.0000   0.0000
     0.0000   0.0000   0.0000   0.0000   0.0000   0.0000   0.0000   0.0000
     0.0000   0.0000   0.0000   0.0000   0.0000

          k = 0.5000-0.2887 0.0000 ( 75730 PWs)   bands (ev):

   -40.9024 -40.9024 -40.9015 -40.8985 -40.8985 -40.8977 -40.8976 -40.8976
   -40.8968 -40.8864 -40.8864 -40.8858 -40.8858 -40.8856 -40.8851 -40.8749
   -40.8748 -40.8747 -40.8746 -40.8740 -40.8738 -40.8728 -40.8727 -40.8727
   -40.8726 -40.8720 -40.8718 -40.8717 -40.8716 -40.8708 -40.8405 -40.8405
   -40.8383 -40.8383 -40.8371 -40.8235 -40.8235 -40.8229 -40.8229 -40.8228
   -40.6976 -40.6975 -40.6970 -40.6970 -40.6969 -40.6969 -40.6816 -40.6811
   -40.6811 -40.6726 -40.6718 -40.6718 -40.6700 -40.6693 -40.6693 -40.5416
   -40.5407 -40.5399 -40.5398 -40.5390 -40.5390 -40.5165 -40.5146 -40.5146
   -40.5103 -40.5083 -40.5083 -40.5035 -40.5014 -40.5014 -40.3021 -40.3021
   -40.2652 -40.2641 -40.2517 -13.0110 -13.0083 -13.0062 -13.0044 -12.9977
   -12.9965 -12.9937 -12.9911 -12.9899 -12.9888 -12.9885 -12.9881 -12.9868
   -12.9866 -12.9845 -12.9844 -12.9825 -12.9820 -12.9816 -12.9782 -12.7287
   -12.7284 -12.7120 -12.7115 -12.7114 -12.5906 -12.5901 -12.5642 -12.5612
   -12.5466 -12.5439 -12.5410 -12.5358 -12.5085 -12.5056 -12.4985 -12.4926
   -12.4892 -12.4874 -12.4845 -12.4799 -12.4767 -12.3901 -12.3871 -12.3465
    -7.9726  -7.9633  -7.7301  -7.7139  -7.6839  -7.6512  -7.6425  -7.6022
    -7.5976  -7.5656  -7.4793  -7.3625  -7.3393  -7.2612  -7.0510  -3.7204
    -3.7031  -3.7014  -3.4509  -3.4395  -3.3173  -3.1887  -2.9995  -2.6035
     1.1690   1.1789   1.3159   1.3451   1.4566   1.4976   1.5323   1.6269
     1.7191   1.7591   1.7853   1.8266   1.8551   1.9274   2.0488   2.0947
     2.1660   2.1801   2.1948   2.3121   2.3484   2.3561   2.4766   2.4910
     2.5336   2.6726   2.6803   2.7444   2.7841   2.8200   2.8388   2.9091
     2.9582   2.9701   3.0248   3.0912   3.1242   3.1570   3.1986   3.2268
     3.2403   3.3439   3.3602   3.4118   3.4921   4.9282   5.1585   5.3294
     6.4655   6.5174   6.8723   6.9810   6.9903   7.0778   7.1034   7.1431
     7.2113   7.2328   7.2616   7.3020   7.4591   7.4683   7.4814   7.5507
     7.5871   7.5889   7.6254   7.6471   7.7217   7.9603   8.0747   8.2695
     9.8075   9.8842  10.1291  10.1305  10.1637  10.3242  10.3413  10.4032
    10.6103  10.6777  10.8799  10.9026  10.9600

     occupation numbers 
     1.0000   1.0000   1.0000   1.0000   1.0000   1.0000   1.0000   1.0000
     1.0000   1.0000   1.0000   1.0000   1.0000   1.0000   1.0000   1.0000
     1.0000   1.0000   1.0000   1.0000   1.0000   1.0000   1.0000   1.0000
     1.0000   1.0000   1.0000   1.0000   1.0000   1.0000   1.0000   1.0000
     1.0000   1.0000   1.0000   1.0000   1.0000   1.0000   1.0000   1.0000
     1.0000   1.0000   1.0000   1.0000   1.0000   1.0000   1.0000   1.0000
     1.0000   1.0000   1.0000   1.0000   1.0000   1.0000   1.0000   1.0000
     1.0000   1.0000   1.0000   1.0000   1.0000   1.0000   1.0000   1.0000
     1.0000   1.0000   1.0000   1.0000   1.0000   1.0000   1.0000   1.0000
     1.0000   1.0000   1.0000   1.0000   1.0000   1.0000   1.0000   1.0000
     1.0000   1.0000   1.0000   1.0000   1.0000   1.0000   1.0000   1.0000
     1.0000   1.0000   1.0000   1.0000   1.0000   1.0000   1.0000   1.0000
     1.0000   1.0000   1.0000   1.0000   1.0000   1.0000   1.0000   1.0000
     1.0000   1.0000   1.0000   1.0000   1.0000   1.0000   1.0000   1.0000
     1.0000   1.0000   1.0000   1.0000   1.0000   1.0000   1.0000   1.0000
     1.0000   1.0000   1.0000   1.0000   1.0000   1.0000   1.0000   1.0000
     1.0000   1.0000   1.0000   1.0000   1.0000   1.0000   1.0000   1.0000
     1.0000   1.0000   1.0000   1.0000   1.0000   1.0000   1.0000   1.0000
     1.0000   1.0000   1.0000   1.0000   1.0000   1.0000   1.0000   1.0000
     1.0000   1.0000   1.0000   1.0000   1.0000   1.0000   1.0000   1.0000
     1.0000   1.0000   1.0000   1.0000   1.0000   1.0000   1.0000   1.0000
     1.0000   1.0000   1.0000   1.0000   1.0000   1.0000   1.0000   1.0000
     1.0000   1.0000   1.0000   1.0000   1.0000   1.0000   1.0000   1.0000
     1.0000   1.0000   1.0000   1.0000   1.0000   0.9959   0.5994   0.0637
     0.0000   0.0000   0.0000   0.0000   0.0000   0.0000   0.0000   0.0000
     0.0000   0.0000   0.0000   0.0000   0.0000   0.0000   0.0000   0.0000
     0.0000   0.0000   0.0000   0.0000   0.0000   0.0000   0.0000   0.0000
     0.0000   0.0000   0.0000   0.0000   0.0000   0.0000   0.0000   0.0000
     0.0000   0.0000   0.0000   0.0000   0.0000

          k =-0.5000-0.2887 0.0000 ( 75730 PWs)   bands (ev):

   -40.9024 -40.9024 -40.9015 -40.8985 -40.8985 -40.8977 -40.8977 -40.8976
   -40.8968 -40.8864 -40.8864 -40.8858 -40.8858 -40.8856 -40.8851 -40.8749
   -40.8748 -40.8747 -40.8746 -40.8740 -40.8738 -40.8728 -40.8727 -40.8727
   -40.8726 -40.8720 -40.8718 -40.8717 -40.8716 -40.8708 -40.8405 -40.8405
   -40.8383 -40.8383 -40.8371 -40.8235 -40.8235 -40.8229 -40.8229 -40.8228
   -40.6976 -40.6975 -40.6970 -40.6970 -40.6969 -40.6969 -40.6816 -40.6811
   -40.6811 -40.6726 -40.6718 -40.6718 -40.6700 -40.6693 -40.6693 -40.5416
   -40.5407 -40.5399 -40.5398 -40.5390 -40.5390 -40.5165 -40.5146 -40.5146
   -40.5103 -40.5083 -40.5083 -40.5035 -40.5014 -40.5014 -40.3021 -40.3021
   -40.2652 -40.2641 -40.2517 -13.0110 -13.0083 -13.0062 -13.0044 -12.9977
   -12.9965 -12.9937 -12.9912 -12.9899 -12.9888 -12.9885 -12.9881 -12.9868
   -12.9866 -12.9845 -12.9844 -12.9825 -12.9820 -12.9816 -12.9782 -12.7287
   -12.7284 -12.7120 -12.7115 -12.7114 -12.5906 -12.5902 -12.5642 -12.5612
   -12.5466 -12.5439 -12.5410 -12.5358 -12.5085 -12.5057 -12.4985 -12.4926
   -12.4892 -12.4874 -12.4845 -12.4799 -12.4767 -12.3901 -12.3871 -12.3465
    -7.9725  -7.9634  -7.7301  -7.7139  -7.6839  -7.6512  -7.6425  -7.6022
    -7.5976  -7.5656  -7.4793  -7.3625  -7.3393  -7.2612  -7.0510  -3.7204
    -3.7031  -3.7014  -3.4509  -3.4395  -3.3173  -3.1888  -2.9995  -2.6035
     1.1690   1.1790   1.3159   1.3451   1.4566   1.4976   1.5323   1.6269
     1.7191   1.7591   1.7853   1.8266   1.8551   1.9274   2.0488   2.0947
     2.1660   2.1801   2.1948   2.3122   2.3483   2.3561   2.4767   2.4910
     2.5336   2.6726   2.6803   2.7444   2.7840   2.8200   2.8388   2.9091
     2.9582   2.9701   3.0248   3.0912   3.1242   3.1570   3.1985   3.2267
     3.2403   3.3439   3.3602   3.4118   3.4921   4.9281   5.1585   5.3294
     6.4654   6.5174   6.8724   6.9810   6.9903   7.0778   7.1034   7.1431
     7.2113   7.2328   7.2616   7.3020   7.4591   7.4683   7.4815   7.5508
     7.5871   7.5889   7.6253   7.6471   7.7216   7.9605   8.0745   8.2696
     9.8075   9.8842  10.1291  10.1304  10.1637  10.3243  10.3413  10.4032
    10.6103  10.6777  10.8798  10.9026  10.9600

     occupation numbers 
     1.0000   1.0000   1.0000   1.0000   1.0000   1.0000   1.0000   1.0000
     1.0000   1.0000   1.0000   1.0000   1.0000   1.0000   1.0000   1.0000
     1.0000   1.0000   1.0000   1.0000   1.0000   1.0000   1.0000   1.0000
     1.0000   1.0000   1.0000   1.0000   1.0000   1.0000   1.0000   1.0000
     1.0000   1.0000   1.0000   1.0000   1.0000   1.0000   1.0000   1.0000
     1.0000   1.0000   1.0000   1.0000   1.0000   1.0000   1.0000   1.0000
     1.0000   1.0000   1.0000   1.0000   1.0000   1.0000   1.0000   1.0000
     1.0000   1.0000   1.0000   1.0000   1.0000   1.0000   1.0000   1.0000
     1.0000   1.0000   1.0000   1.0000   1.0000   1.0000   1.0000   1.0000
     1.0000   1.0000   1.0000   1.0000   1.0000   1.0000   1.0000   1.0000
     1.0000   1.0000   1.0000   1.0000   1.0000   1.0000   1.0000   1.0000
     1.0000   1.0000   1.0000   1.0000   1.0000   1.0000   1.0000   1.0000
     1.0000   1.0000   1.0000   1.0000   1.0000   1.0000   1.0000   1.0000
     1.0000   1.0000   1.0000   1.0000   1.0000   1.0000   1.0000   1.0000
     1.0000   1.0000   1.0000   1.0000   1.0000   1.0000   1.0000   1.0000
     1.0000   1.0000   1.0000   1.0000   1.0000   1.0000   1.0000   1.0000
     1.0000   1.0000   1.0000   1.0000   1.0000   1.0000   1.0000   1.0000
     1.0000   1.0000   1.0000   1.0000   1.0000   1.0000   1.0000   1.0000
     1.0000   1.0000   1.0000   1.0000   1.0000   1.0000   1.0000   1.0000
     1.0000   1.0000   1.0000   1.0000   1.0000   1.0000   1.0000   1.0000
     1.0000   1.0000   1.0000   1.0000   1.0000   1.0000   1.0000   1.0000
     1.0000   1.0000   1.0000   1.0000   1.0000   1.0000   1.0000   1.0000
     1.0000   1.0000   1.0000   1.0000   1.0000   1.0000   1.0000   1.0000
     1.0000   1.0000   1.0000   1.0000   1.0000   0.9959   0.5994   0.0636
     0.0000   0.0000   0.0000   0.0000   0.0000   0.0000   0.0000   0.0000
     0.0000   0.0000   0.0000   0.0000   0.0000   0.0000   0.0000   0.0000
     0.0000   0.0000   0.0000   0.0000   0.0000   0.0000   0.0000   0.0000
     0.0000   0.0000   0.0000   0.0000   0.0000   0.0000   0.0000   0.0000
     0.0000   0.0000   0.0000   0.0000   0.0000

     the Fermi energy is     5.1827 ev

!    total energy              =  -16521.55452052 Ry
     total all-electron energy =   -589787.025562 Ry
     estimated scf accuracy    <          2.2E-09 Ry
     smearing contrib. (-TS)   =      -0.00573617 Ry
     internal energy E=F+TS    =  -16521.54878435 Ry

     The total energy is F=E-TS. E is the sum of the following terms:
     one-electron contribution =   -2869.02630534 Ry
     hartree contribution      =    1614.47923327 Ry
     xc contribution           =   -1113.77127936 Ry
     ewald contribution        =   -2441.76415248 Ry
     one-center paw contrib.   =  -11711.46628044 Ry
      -> PAW hartree energy AE =     192.22268237 Ry
      -> PAW hartree energy PS =    -192.69958133 Ry
      -> PAW xc energy AE      =   -1596.88201297 Ry
      -> PAW xc energy PS      =      66.64317115 Ry
      -> total E_H with PAW    =    1614.00233431 Ry
      -> total E_XC with PAW   =   -2644.01012118 Ry

     convergence has been achieved in   1 iterations


     -----------------------------------------------
     Non-local corr. energy    =      11.19258462 Ry
     -----------------------------------------------


     Forces acting on atoms (cartesian axes, Ry/au):

     atom    1 type  1   force =    -0.00000180    0.00031401    0.00010515
     atom    2 type  1   force =    -0.00000081    0.00015655   -0.00007102
     atom    3 type  1   force =     0.00027234   -0.00015795    0.00011429
     atom    4 type  1   force =     0.00016101   -0.00008387   -0.00006897
     atom    5 type  1   force =     0.00000554   -0.00000364   -0.00090950
     atom    6 type  1   force =    -0.00000009    0.00000787    0.00050159
     atom    7 type  1   force =    -0.00027310   -0.00015845    0.00010727
     atom    8 type  1   force =    -0.00015675   -0.00008379   -0.00006212
     atom    9 type  2   force =    -0.00000338   -0.00000247    0.00037905
     atom   10 type  2   force =    -0.00020848   -0.00008356   -0.00014442
     atom   11 type  2   force =     0.00002227    0.00001828    0.00016275
     atom   12 type  2   force =     0.00000145    0.00019562   -0.00012960
     atom   13 type  2   force =     0.00000028   -0.00003419    0.00015931
     atom   14 type  2   force =     0.00020826   -0.00008396   -0.00014213
     atom   15 type  2   force =    -0.00001882    0.00001598    0.00015788
     atom   16 type  2   force =    -0.00011701    0.00005977    0.00015798
     atom   17 type  2   force =     0.00016678   -0.00013851   -0.00013123
     atom   18 type  2   force =     0.00000016   -0.00013778    0.00014713
     atom   19 type  2   force =    -0.00000318    0.00023685   -0.00015437
     atom   20 type  2   force =     0.00011782    0.00006061    0.00015776
     atom   21 type  2   force =    -0.00017005   -0.00013755   -0.00013366
     atom   22 type  2   force =     0.00000175    0.00000368    0.00057530
     atom   23 type  2   force =    -0.00000454    0.00005466   -0.00008493
     atom   24 type  1   force =     0.00000035   -0.00001816   -0.00069352
     The non-local contrib.  to forces
     atom    1 type  1   force =     0.00001118    0.00484746   -0.00699174
     atom    2 type  1   force =    -0.00000762   -0.02500009    0.03603768
     atom    3 type  1   force =     0.00421483   -0.00247500   -0.00706073
     atom    4 type  1   force =    -0.01874517    0.01115999    0.03823638
     atom    5 type  1   force =    -0.00004157    0.00022171   -0.01056314
     atom    6 type  1   force =     0.00001783    0.00013276   -0.07360010
     atom    7 type  1   force =    -0.00421006   -0.00247050   -0.00699987
     atom    8 type  1   force =     0.01880071    0.01121024    0.03817678
     atom    9 type  2   force =     0.00002214   -0.00002476    0.25521092
     atom   10 type  2   force =    -0.04741795   -0.02750769    0.20752947
     atom   11 type  2   force =    -0.00139235   -0.00073704    0.25702812
     atom   12 type  2   force =     0.00001761    0.05454110    0.20771676
     atom   13 type  2   force =    -0.00003323    0.00153943    0.25703334
     atom   14 type  2   force =     0.04740223   -0.02748588    0.20753668
     atom   15 type  2   force =     0.00141408   -0.00079997    0.25703810
     atom   16 type  2   force =     0.01798715   -0.01034767   -0.22430503
     atom   17 type  2   force =     0.04008078   -0.02355445   -0.24051441
     atom   18 type  2   force =    -0.00003369    0.02037874   -0.22482129
     atom   19 type  2   force =     0.00003617    0.04635207   -0.24036397
     atom   20 type  2   force =    -0.01796079   -0.01028144   -0.22431960
     atom   21 type  2   force =    -0.04008286   -0.02358391   -0.24051082
     atom   22 type  2   force =     0.00002535   -0.00001353   -0.25139219
     atom   23 type  2   force =    -0.00006160    0.00204279   -0.11070457
     atom   24 type  1   force =    -0.00003289    0.00113458    0.20929263
     The ionic contribution  to forces
     atom    1 type  1   force =    -0.00065211    0.17792312   -0.04815446
     atom    2 type  1   force =     0.00020989   -0.58147647   -2.47098169
     atom    3 type  1   force =     0.15340372   -0.08739112   -0.04493444
     atom    4 type  1   force =    -0.56514356    0.29726394   -2.50358535
     atom    5 type  1   force =     0.00115557   -0.00511752    0.22145676
     atom    6 type  1   force =    -0.00028067    0.01218213    0.46398552
     atom    7 type  1   force =    -0.15349108   -0.08694131   -0.04378758
     atom    8 type  1   force =     0.56456405    0.29651094   -2.50508322
     atom    9 type  2   force =    -0.00114699    0.00280092  -14.81837630
     atom   10 type  2   force =     2.18913312    1.28459004  -11.89997367
     atom   11 type  2   force =     0.36498061    0.20528419  -15.24947307
     atom   12 type  2   force =     0.00018410   -2.53418531  -11.92107812
     atom   13 type  2   force =     0.00132429   -0.41432378  -15.23730415
     atom   14 type  2   force =    -2.18918998    1.28491405  -11.89931396
     atom   15 type  2   force =    -0.36518703    0.20713657  -15.25019693
     atom   16 type  2   force =    -0.87502832    0.50023400   14.51787941
     atom   17 type  2   force =    -0.98509723    0.60361816   12.32504157
     atom   18 type  2   force =     0.00078791   -0.99843450   14.53554976
     atom   19 type  2   force =    -0.00141436   -1.15640361   12.30607535
     atom   20 type  2   force =     0.87473232    0.49895336   14.51760408
     atom   21 type  2   force =     0.98499642    0.60490879   12.32397696
     atom   22 type  2   force =    -0.00034231    0.00282252   15.77044666
     atom   23 type  2   force =     0.00170776   -0.07771895   11.43068504
     atom   24 type  1   force =    -0.00020612   -0.03715016   -4.52045815
     The local contribution  to forces
     atom    1 type  1   force =     0.00063933   -0.18233163    0.05528787
     atom    2 type  1   force =    -0.00020370    0.60795873    2.43642291
     atom    3 type  1   force =    -0.15724618    0.08964640    0.05214767
     atom    4 type  1   force =     0.58523267   -0.30916461    2.46686946
     atom    5 type  1   force =    -0.00110974    0.00490495   -0.21190621
     atom    6 type  1   force =     0.00026212   -0.01230701   -0.39102758
     atom    7 type  1   force =     0.15732733    0.08919089    0.05093321
     atom    8 type  1   force =    -0.58470511   -0.30846160    2.46843354
     atom    9 type  2   force =     0.00112208   -0.00276690   14.56902737
     atom   10 type  2   force =    -2.14305727   -1.25791158   11.69682987
     atom   11 type  2   force =    -0.36358717   -0.20455341   14.99814364
     atom   12 type  2   force =    -0.00019834    2.48123185   11.71774214
     atom   13 type  2   force =    -0.00129164    0.41278532   14.98597452
     atom   14 type  2   force =     2.14312901   -1.25825489   11.69616581
     atom   15 type  2   force =     0.36377521   -0.20634607   14.99885285
     atom   16 type  2   force =     0.85733353   -0.49004531  -14.29821557
     atom   17 type  2   force =     0.94610414   -0.58066505  -12.08991464
     atom   18 type  2   force =    -0.00075483    0.97836847  -14.31540338
     atom   19 type  2   force =     0.00137347    1.11127303  -12.07107400
     atom   20 type  2   force =    -0.85706275   -0.48882906  -14.29792782
     atom   21 type  2   force =    -0.94600407   -0.58192300  -12.08885737
     atom   22 type  2   force =     0.00031907   -0.00282151  -15.52388010
     atom   23 type  2   force =    -0.00164856    0.07570920  -11.32252424
     atom   24 type  1   force =     0.00023774    0.03607230    4.31292224
     The core correction contribution to forces
     atom    1 type  1   force =     0.00000002   -0.00011819    0.00009105
     atom    2 type  1   force =     0.00000041   -0.00134381   -0.00144702
     atom    3 type  1   force =    -0.00010254    0.00005973    0.00009104
     atom    4 type  1   force =    -0.00121391    0.00069465   -0.00148002
     atom    5 type  1   force =     0.00000016   -0.00000367    0.00021528
     atom    6 type  1   force =    -0.00000036   -0.00000326    0.00126461
     atom    7 type  1   force =     0.00010269    0.00005978    0.00009098
     atom    8 type  1   force =     0.00121284    0.00069377   -0.00148007
     atom    9 type  2   force =    -0.00000076    0.00000296   -0.00536352
     atom   10 type  2   force =     0.00116283    0.00067925   -0.00441610
     atom   11 type  2   force =     0.00001372    0.00001092   -0.00541234
     atom   12 type  2   force =    -0.00000061   -0.00133983   -0.00441900
     atom   13 type  2   force =    -0.00000014   -0.00001229   -0.00541278
     atom   14 type  2   force =    -0.00116311    0.00067841   -0.00441565
     atom   15 type  2   force =    -0.00001431    0.00001109   -0.00541302
     atom   16 type  2   force =    -0.00039798    0.00023120    0.00494017
     atom   17 type  2   force =    -0.00087999    0.00051890    0.00536743
     atom   18 type  2   force =    -0.00000003   -0.00044351    0.00495837
     atom   19 type  2   force =    -0.00000111   -0.00101566    0.00536486
     atom   20 type  2   force =     0.00039684    0.00023054    0.00494170
     atom   21 type  2   force =     0.00087840    0.00051934    0.00537006
     atom   22 type  2   force =    -0.00000057    0.00000232    0.00552952
     atom   23 type  2   force =    -0.00000003   -0.00006955    0.00259604
     atom   24 type  1   force =     0.00000012   -0.00001627   -0.00231957
     The Hubbard contrib.    to forces
     atom    1 type  1   force =     0.00000000    0.00000000    0.00000000
     atom    2 type  1   force =     0.00000000    0.00000000    0.00000000
     atom    3 type  1   force =     0.00000000    0.00000000    0.00000000
     atom    4 type  1   force =     0.00000000    0.00000000    0.00000000
     atom    5 type  1   force =     0.00000000    0.00000000    0.00000000
     atom    6 type  1   force =     0.00000000    0.00000000    0.00000000
     atom    7 type  1   force =     0.00000000    0.00000000    0.00000000
     atom    8 type  1   force =     0.00000000    0.00000000    0.00000000
     atom    9 type  2   force =     0.00000000    0.00000000    0.00000000
     atom   10 type  2   force =     0.00000000    0.00000000    0.00000000
     atom   11 type  2   force =     0.00000000    0.00000000    0.00000000
     atom   12 type  2   force =     0.00000000    0.00000000    0.00000000
     atom   13 type  2   force =     0.00000000    0.00000000    0.00000000
     atom   14 type  2   force =     0.00000000    0.00000000    0.00000000
     atom   15 type  2   force =     0.00000000    0.00000000    0.00000000
     atom   16 type  2   force =     0.00000000    0.00000000    0.00000000
     atom   17 type  2   force =     0.00000000    0.00000000    0.00000000
     atom   18 type  2   force =     0.00000000    0.00000000    0.00000000
     atom   19 type  2   force =     0.00000000    0.00000000    0.00000000
     atom   20 type  2   force =     0.00000000    0.00000000    0.00000000
     atom   21 type  2   force =     0.00000000    0.00000000    0.00000000
     atom   22 type  2   force =     0.00000000    0.00000000    0.00000000
     atom   23 type  2   force =     0.00000000    0.00000000    0.00000000
     atom   24 type  1   force =     0.00000000    0.00000000    0.00000000
     The SCF correction term to forces
     atom    1 type  1   force =    -0.00000071   -0.00000389   -0.00000305
     atom    2 type  1   force =    -0.00000029    0.00002104    0.00002163
     atom    3 type  1   force =     0.00000202    0.00000490   -0.00000473
     atom    4 type  1   force =     0.00003049   -0.00003499    0.00001508
     atom    5 type  1   force =     0.00000062   -0.00000625    0.00001232
     atom    6 type  1   force =     0.00000050    0.00000611    0.00000366
     atom    7 type  1   force =    -0.00000246    0.00000555   -0.00000495
     atom    8 type  1   force =    -0.00002973   -0.00003428    0.00001538
     atom    9 type  2   force =    -0.00000034   -0.00001183    0.00000509
     atom   10 type  2   force =    -0.00002969    0.00006928    0.00001054
     atom   11 type  2   force =     0.00000697    0.00001647    0.00000092
     atom   12 type  2   force =    -0.00000180   -0.00004933    0.00003313
     atom   13 type  2   force =     0.00000051   -0.00002002   -0.00000709
     atom   14 type  2   force =     0.00002961    0.00006722    0.00000952
     atom   15 type  2   force =    -0.00000727    0.00001721    0.00000140
     atom   16 type  2   force =    -0.00001187   -0.00000958   -0.00001648
     atom   17 type  2   force =    -0.00004141   -0.00005323    0.00001334
     atom   18 type  2   force =     0.00000031   -0.00000412   -0.00001181
     atom   19 type  2   force =     0.00000215    0.00003387   -0.00003207
     atom   20 type  2   force =     0.00001170   -0.00000992   -0.00001608
     atom   21 type  2   force =     0.00004158   -0.00005591    0.00001203
     atom   22 type  2   force =    -0.00000028    0.00001675   -0.00000407
     atom   23 type  2   force =    -0.00000259    0.00009403   -0.00001267
     atom   24 type  1   force =     0.00000101   -0.00005575   -0.00000614

     Total force =     0.001759     Total SCF correction =     0.000218
     SCF correction compared to forces is large: reduce conv_thr to get better values


     Computing stress (Cartesian axis) and pressure



     -----------------------------------------------
     Non-local corr. energy    =      11.19258462 Ry
     -----------------------------------------------

          total   stress  (Ry/bohr**3)                   (kbar)     P=       -0.40
  -0.00000946   0.00000000  -0.00000001           -1.39        0.00       -0.00
   0.00000000  -0.00000933   0.00000010            0.00       -1.37        0.01
  -0.00000001   0.00000010   0.00001061           -0.00        0.01        1.56

     kinetic stress (kbar)  15280.78      0.00     -0.00
                                0.00  15280.98      0.12
                               -0.00      0.12  15301.03

     local   stress (kbar)  -6853.86     -0.06      0.00
                               -0.06  -6849.70     -0.09
                                0.00     -0.09    918.38

     nonloc. stress (kbar)  -1508.42      0.00     -0.00
                                0.00  -1508.30      0.08
                               -0.00      0.08  -1503.85

     hartree stress (kbar)  11515.02      0.03      0.00
                                0.03  11513.50      0.12
                                0.00      0.12   7991.74

     exc-cor stress (kbar)   6800.93      0.00     -0.00
                                0.00   6800.93      0.00
                               -0.00      0.00   6800.82

     corecor stress (kbar) -11103.21     -0.00      0.00
                               -0.00 -11103.22     -0.00
                                0.00     -0.00 -11103.47

     ewald   stress (kbar) -14213.75      0.03      0.00
                                0.03 -14216.69     -0.21
                                0.00     -0.21 -18485.09

     hubbard stress (kbar)      0.00      0.00      0.00
                                0.00      0.00      0.00
                                0.00      0.00      0.00

     DFT-D   stress (kbar)      0.00      0.00      0.00
                                0.00      0.00      0.00
                                0.00      0.00      0.00

     XDM     stress (kbar)      0.00      0.00      0.00
                                0.00      0.00      0.00
                                0.00      0.00      0.00

     dft-nl  stress (kbar)     81.12     -0.00      0.00
                               -0.00     81.12     -0.00
                                0.00     -0.00     82.02

     TS-vdW  stress (kbar)      0.00      0.00      0.00
                                0.00      0.00      0.00
                                0.00      0.00      0.00

     MDB     stress (kbar)      0.00      0.00      0.00
                                0.00      0.00      0.00
                                0.00      0.00      0.00

     3D-RISM stress (kbar)      0.00      0.00      0.00
                                0.00      0.00      0.00
                                0.00      0.00      0.00



     -----------------------------------------------
     Non-local corr. energy    =      11.19258462 Ry
     -----------------------------------------------



     -----------------------------------------------
     Non-local corr. energy    =      11.19258462 Ry
     -----------------------------------------------



     -----------------------------------------------
     Non-local corr. energy    =      11.19258462 Ry
     -----------------------------------------------



     -----------------------------------------------
     Non-local corr. energy    =      11.19258462 Ry
     -----------------------------------------------



     -----------------------------------------------
     Non-local corr. energy    =      11.19258462 Ry
     -----------------------------------------------



     -----------------------------------------------
     Non-local corr. energy    =      11.19258462 Ry
     -----------------------------------------------



     -----------------------------------------------
     Non-local corr. energy    =      11.19258462 Ry
     -----------------------------------------------



     -----------------------------------------------
     Non-local corr. energy    =      11.19258462 Ry
     -----------------------------------------------



     -----------------------------------------------
     Non-local corr. energy    =      11.19258462 Ry
     -----------------------------------------------



     -----------------------------------------------
     Non-local corr. energy    =      11.19258462 Ry
     -----------------------------------------------



     -----------------------------------------------
     Non-local corr. energy    =      11.19258462 Ry
     -----------------------------------------------



     -----------------------------------------------
     Non-local corr. energy    =      11.19258462 Ry
     -----------------------------------------------



     -----------------------------------------------
     Non-local corr. energy    =      11.19258462 Ry
     -----------------------------------------------



     -----------------------------------------------
     Non-local corr. energy    =      11.19258462 Ry
     -----------------------------------------------



     -----------------------------------------------
     Non-local corr. energy    =      11.19258462 Ry
     -----------------------------------------------



     -----------------------------------------------
     Non-local corr. energy    =      11.19258462 Ry
     -----------------------------------------------



     -----------------------------------------------
     Non-local corr. energy    =      11.19258462 Ry
     -----------------------------------------------



     -----------------------------------------------
     Non-local corr. energy    =      11.19258462 Ry
     -----------------------------------------------



     -----------------------------------------------
     Non-local corr. energy    =      11.19258462 Ry
     -----------------------------------------------



     -----------------------------------------------
     Non-local corr. energy    =      11.19258462 Ry
     -----------------------------------------------



     -----------------------------------------------
     Non-local corr. energy    =      11.19258462 Ry
     -----------------------------------------------



     -----------------------------------------------
     Non-local corr. energy    =      11.19258462 Ry
     -----------------------------------------------



     -----------------------------------------------
     Non-local corr. energy    =      11.19258462 Ry
     -----------------------------------------------



     -----------------------------------------------
     Non-local corr. energy    =      11.19258462 Ry
     -----------------------------------------------



     -----------------------------------------------
     Non-local corr. energy    =      11.19258462 Ry
     -----------------------------------------------



     -----------------------------------------------
     Non-local corr. energy    =      11.19258462 Ry
     -----------------------------------------------



     -----------------------------------------------
     Non-local corr. energy    =      11.19258462 Ry
     -----------------------------------------------



     -----------------------------------------------
     Non-local corr. energy    =      11.19258462 Ry
     -----------------------------------------------



     -----------------------------------------------
     Non-local corr. energy    =      11.19258462 Ry
     -----------------------------------------------



     -----------------------------------------------
     Non-local corr. energy    =      11.19258462 Ry
     -----------------------------------------------



     -----------------------------------------------
     Non-local corr. energy    =      11.19258462 Ry
     -----------------------------------------------



     -----------------------------------------------
     Non-local corr. energy    =      11.19258462 Ry
     -----------------------------------------------



     -----------------------------------------------
     Non-local corr. energy    =      11.19258462 Ry
     -----------------------------------------------



     -----------------------------------------------
     Non-local corr. energy    =      11.19258462 Ry
     -----------------------------------------------

 BEEFens 2000 ensemble energies
             -0.949834400814291E+01
             -0.954733715669869E+02
             -0.434595737463625E+02
              0.334029713192595E+02
             -0.730698030652964E+02
             -0.893994420107429E+02
              0.459373603694060E+02
              0.937839540011396E-01
              0.772659308472082E+02
             -0.487112229517300E+01
              0.396414164637083E+02
              0.398784589852622E+01
             -0.308683529146518E+01
             -0.255361159697020E+01
              0.492425272749453E+02
             -0.372615334442365E+02
             -0.729641322555804E+02
             -0.235284553484285E+02
              0.210324898587197E+02
             -0.527645935267401E+00
              0.107556236240404E+03
              0.897277863434424E+02
             -0.552695898687834E+02
              0.191079571177516E+02
             -0.115204654617810E+03
              0.945363191564187E+02
              0.323872886729508E+02
              0.853571646335473E+02
              0.574967492371563E+02
             -0.267117794760776E+02
              0.211035254229048E+02
             -0.375093507415988E+02
              0.156804902050808E+02
              0.572299244203559E+02
              0.617343093977448E+02
             -0.266892588728355E+02
              0.135848436334241E+03
             -0.547982913661053E+02
             -0.363263454294776E+02
              0.543092459626023E+02
              0.239484568380816E+02
              0.414204026074674E+02
             -0.798287767013325E+02
             -0.519404617270538E+01
              0.765914472227680E+02
              0.100115021381917E+03
             -0.101683316387770E+03
              0.645283937382169E+01
              0.351906296557653E+02
              0.227569565012162E+02
              0.396812177235710E+02
              0.872380838966304E+02
             -0.567494818922351E+02
             -0.551020170822126E+02
             -0.765969086443456E+02
             -0.110546751797303E+02
             -0.652665147067472E+02
              0.841266088981263E+01
             -0.941166633001183E+01
             -0.518855391200568E+02
              0.845424762439000E+02
              0.857778641751528E+02
             -0.235088834038299E+02
             -0.647078104987843E+02
             -0.393158981222307E+02
             -0.244222023002672E+01
              0.623604227996017E+02
             -0.881384226758115E+01
             -0.622716293877588E+02
              0.575128685573528E+02
             -0.106971349928324E+03
              0.946227291291548E+02
             -0.109402132452539E+03
             -0.478795383928561E+02
             -0.156613459370371E+02
             -0.997805164703180E+01
              0.567869165267766E+01
              0.754466801103154E+02
              0.474901957278485E+02
             -0.795557125938606E+02
             -0.105686366573240E+03
             -0.550625553326413E+02
             -0.409184061877191E+02
              0.619473574829362E+01
             -0.130147750909148E+02
             -0.382884923035361E+02
              0.467347921025074E+02
             -0.401406834447907E+02
              0.156126703616975E+03
             -0.716060529455690E+02
              0.156569420125319E+02
              0.164163769699281E+02
              0.232797907655677E+02
              0.540893350370130E+02
              0.386401419522608E+02
              0.367276577281615E+02
             -0.601801050238716E+02
              0.357873271598999E+02
              0.876584261273842E+01
             -0.114417143221107E+01
              0.705974256496587E+02
             -0.835084735060319E+02
              0.141290906397713E+03
             -0.332082688685475E+02
             -0.150723308458206E+03
              0.817259407726129E+01
              0.138926885820716E+02
             -0.413566222228382E+02
             -0.792806203839880E+02
             -0.398495715538634E+02
             -0.294345984406438E+02
              0.103510799520768E+01
             -0.625281468787527E+02
              0.342032690416829E+01
              0.679008809828593E+01
              0.144085204276185E+02
              0.136105862998919E+03
              0.160466108303474E+02
             -0.825040910464279E+02
             -0.618760996847241E+02
             -0.195222242394221E+02
             -0.536043092200800E+02
              0.910391647089631E+02
             -0.578493209816451E+02
              0.278597746764930E+01
             -0.114320721671594E+02
              0.149740919925575E+02
              0.537021244675867E+02
             -0.584567516926626E+02
             -0.114790513168980E+03
             -0.209570913035873E+02
             -0.240595977620986E+02
             -0.174109088428800E+02
              0.580406847523862E+02
             -0.100894246163379E+03
             -0.114066663366413E+03
             -0.149363739019090E+02
             -0.249646075046213E+02
             -0.404476742374004E+01
              0.311919105299135E+02
              0.688919796031335E+02
              0.349133190143170E+02
             -0.339307762108841E+02
             -0.360722110944803E+02
             -0.104371942462938E+03
             -0.789138057957689E+01
             -0.497248426636022E+02
             -0.311662183835637E+02
              0.865610090587599E+02
             -0.667890008474467E+02
             -0.226863827202695E+02
              0.805131035744631E+02
             -0.110557778233325E+02
             -0.209841527012370E+02
              0.136204101982624E+02
              0.321305610096973E+02
             -0.516485603989666E+02
              0.302350415773568E+02
              0.202378721052151E+02
              0.474265454213788E+02
             -0.488291338800913E+02
             -0.398075219041689E+02
              0.604260701396922E+02
             -0.500973718728994E+01
             -0.235969677558627E+02
             -0.205160985203552E+02
             -0.286132400181839E+02
             -0.384026516407308E+02
             -0.901877687278354E+02
             -0.113938059181285E+03
             -0.358444287267207E+02
             -0.354977541951201E+02
             -0.414704549199223E+02
             -0.695010753366982E+02
             -0.358775367319372E+02
              0.617915008591554E+02
              0.266824342361117E+02
              0.874194039105973E+02
             -0.371998362652305E+02
              0.299842136217995E+02
              0.162307718632069E+02
             -0.922229723087789E+02
             -0.218762059910743E+02
              0.493797189180975E+02
             -0.148166498513901E+03
              0.320910796474973E+02
              0.249028781342030E+02
              0.944002244364348E+02
             -0.292367202782493E+02
              0.816680286779690E+02
              0.124930822656091E+03
              0.103715291584316E+03
             -0.583983122270992E+02
             -0.317784921872815E+02
             -0.178152272418067E+02
              0.415308586738390E+02
              0.212778563010364E+02
             -0.224839583087335E+02
              0.605779237049621E+02
              0.120244767554300E+03
             -0.420765397976402E+02
             -0.295991180255244E+02
              0.198337340172921E+02
             -0.683822232769521E+02
             -0.589763479724951E+02
              0.524978573749323E+01
              0.179144090133366E+01
             -0.110327056752299E+02
              0.103293887316130E+03
              0.325368991732740E+02
             -0.170716323258967E+02
             -0.670107245384307E+01
             -0.135898783789802E+03
             -0.145737315180839E+02
             -0.309097717372446E+02
             -0.379456561390299E+01
              0.675932982236457E+02
             -0.362622401662725E+01
              0.942227237320903E+02
             -0.610055731439968E+02
             -0.615625712649830E+02
              0.621663472257738E+02
              0.818756799054161E+02
              0.108843128072760E+03
             -0.621477621726531E+02
             -0.348798795881900E+02
              0.647330397515940E+02
              0.714012611927714E+02
             -0.800875619404432E+02
             -0.204116808341363E+02
              0.858816143268020E+02
              0.556314400210498E+02
              0.335725065120369E+02
              0.307871260810402E+02
             -0.222334857477740E+02
             -0.482217954909220E+01
              0.357467674953314E+02
             -0.376100856695990E+02
             -0.477202912448687E+02
              0.114679009951371E+02
             -0.219280550190989E+02
              0.323979434394108E+02
             -0.553245825822387E+02
              0.664963743713324E+02
             -0.971234936159300E+01
              0.654372342845249E+02
             -0.240034852971824E+02
             -0.804217701475822E+02
             -0.901516381214378E+00
              0.209878543056383E+02
              0.176703836825554E+02
              0.781797294819870E+01
              0.937462414657074E+01
              0.152875221176795E+02
              0.122758477415231E+03
             -0.904579281665684E+02
              0.200664609295942E+02
             -0.485697589198125E+01
              0.211226983767119E+01
              0.490489263009150E+02
              0.357170919104291E+02
             -0.372385751046270E+02
              0.106656713669412E+02
             -0.626262316227607E+02
             -0.204914459192959E+02
             -0.132360330066103E+01
             -0.135649261352926E+03
              0.325896115686502E+02
              0.666354872300961E+02
              0.337569008817211E+02
              0.492451583516045E+02
             -0.292114131206674E+02
              0.286473852557674E+02
              0.729462950867718E+02
             -0.559208472625767E+02
              0.328632154038622E+02
              0.911758531009748E+02
             -0.125117958613291E+02
              0.579303514628199E+02
             -0.177922224891288E+02
             -0.244960678316472E+02
             -0.542015931567144E+01
             -0.636293120847415E+02
              0.370159659809931E+02
              0.346395931556835E+02
              0.679177954984190E+02
             -0.373685050835782E+02
              0.605107077398030E+02
              0.121027799030471E+03
              0.650509533620453E+02
             -0.553509146174521E+02
             -0.212831761663215E+02
             -0.105840924957652E+03
              0.100034987139544E+02
              0.143197255214734E+02
             -0.342658625614771E+01
             -0.208427442575576E+02
              0.157920201866410E+02
              0.763008994889773E+02
             -0.874414672017565E+00
              0.352340063612349E+02
              0.343137414096767E+02
             -0.169725768014548E+02
             -0.109541284686486E+03
              0.405790030325801E+02
             -0.747898247749085E+00
              0.570028234539599E+02
             -0.153995343952687E+02
             -0.209458015366927E+02
             -0.247712839669128E+02
              0.159859705685916E+02
              0.489474743808569E+01
              0.286449915729320E+02
              0.296992243455583E+02
             -0.795426451323352E+02
              0.429790873195954E+02
              0.520346671928432E+02
              0.420720995378543E+02
              0.812926142840902E+02
              0.327117814646134E+02
              0.940690298479483E+02
             -0.282547299243813E+02
             -0.317900493845938E+02
              0.462358088465610E+02
              0.465135082208927E+02
              0.133703680439794E+01
              0.746357823031081E+01
              0.502652854776073E+02
              0.384205058487834E+02
             -0.242093532633924E+02
             -0.476522818094497E+01
             -0.825430954537268E+01
             -0.846493285744705E+01
             -0.885220284125138E+02
             -0.279746834902296E+02
              0.425913516326338E+02
              0.245318803291694E+02
              0.360458490674545E+02
             -0.676397965322140E+02
             -0.961975928237049E+02
              0.239551108093819E+02
              0.945903747477898E+02
              0.490101903537822E+02
             -0.485311454456220E+02
             -0.947016639160468E+02
             -0.509537346215177E+01
              0.310308032096617E+02
              0.313543355701016E+02
             -0.122760319818325E+02
              0.826680805330866E+02
              0.253683025040614E+02
             -0.578334001795771E+02
              0.632388939463665E+02
              0.339389445287103E+02
              0.466485085195092E+01
             -0.197648829044169E+02
             -0.418963287377624E+02
             -0.645138908480653E+02
              0.208017070266042E+02
             -0.129508113813032E+02
             -0.417142901386000E+02
              0.316414078456052E+01
             -0.386860201229906E+02
              0.235772808554228E+02
             -0.102644448769660E+03
              0.243155473637474E+02
             -0.111518746591880E+02
             -0.485140496611471E+01
              0.313516625881481E+02
              0.298411463240847E+02
              0.130918880660551E+03
              0.334288638704658E+01
             -0.425497353445883E+02
             -0.969940659794634E+02
              0.503263385818107E+02
             -0.528750259591902E+01
              0.350120014985805E+02
              0.210761657759632E+02
             -0.124177276231431E+02
              0.800301492406720E+02
              0.659878188159308E+02
             -0.166637006205057E+02
              0.695843329143677E+02
             -0.871039388313769E+02
              0.210258182921570E+02
              0.508665743254513E+02
             -0.622180238536512E+02
             -0.806768469294937E+02
             -0.883172799639266E+02
             -0.873300125317904E+02
              0.834161211156367E+02
             -0.674978444042665E+02
             -0.109959854342572E+02
              0.417099718869890E+02
             -0.338877249045025E+02
              0.134252193275643E+02
              0.211676089170523E+02
              0.467001469727819E+02
             -0.753078496436972E+02
              0.531191952482137E+02
             -0.261859296070118E+02
             -0.111217705897688E+03
              0.410238383577087E+02
             -0.268492677305541E+02
             -0.623025175377443E+02
             -0.290726249052411E+02
              0.522995789978640E+02
              0.404943038800432E+02
              0.139987305435837E+02
              0.243427658990561E+02
             -0.160518520057417E+01
              0.214671325355367E+02
             -0.683669342652097E+02
              0.125782205430580E+02
             -0.146380957317979E+02
             -0.560064624220867E+02
              0.157255083620469E+02
             -0.856036941276147E+01
              0.802389786131403E+02
              0.133339125374711E+02
              0.894163710190412E+02
              0.124393742650738E+02
              0.251496237546242E+02
             -0.242535302636988E+02
             -0.220462463469291E+02
              0.512973531008150E+02
              0.198469868706765E+02
             -0.444613841587114E+02
              0.100312477921932E+03
              0.740876737639815E+02
              0.748792235542589E+02
              0.502391988174163E+02
             -0.182073111724154E+02
             -0.124227155421839E+03
             -0.900795115656729E+01
             -0.347238371345052E+02
             -0.476074063376774E+02
              0.531292860155019E+02
             -0.116186184453043E+03
              0.495079373304191E+02
              0.400062064400888E+02
             -0.395860491549428E+02
             -0.661035150705243E+01
             -0.161671945459632E+02
             -0.354423731560704E+02
              0.377657140783500E+02
              0.465369540679053E+02
             -0.675561615699257E+01
             -0.272330399503542E+02
              0.104783619935704E+02
             -0.109446340175617E+01
             -0.727285724101894E+02
             -0.509286390145957E+02
             -0.391937829457061E+01
             -0.567059984082233E+02
             -0.304134050609164E+02
              0.187247985840276E+01
             -0.944754956636962E+02
             -0.494996508359603E+02
              0.296707627139418E+01
             -0.119721301472451E+03
              0.157472474695361E+02
             -0.114960244037587E+03
              0.624359261662091E+02
             -0.498168959745724E+02
              0.667267802725755E+02
             -0.237240059619687E+02
             -0.949326807763054E+02
             -0.527991009652389E+01
             -0.509163984735233E+02
             -0.281049288553350E+02
              0.184435836221704E+02
             -0.105840824536661E+03
              0.180322080722269E+02
              0.515005595658058E+02
             -0.101593273587896E+03
             -0.119029139589408E+02
             -0.940060225063034E+02
             -0.104736426079456E+03
             -0.671456578671549E+02
             -0.100304327639878E+02
             -0.514718104631040E+02
              0.510937580283522E+02
              0.568398464643537E+02
             -0.418312138543988E+02
              0.289018795647918E+02
             -0.406548189291711E+02
              0.362983278470219E+02
             -0.547790280989039E+02
             -0.549231147231280E+02
              0.514356482273644E+02
              0.391476755771764E+02
              0.148539890275910E+02
              0.569448131763440E+02
              0.126409740841060E+03
             -0.206239533341045E+02
              0.389523823090792E+02
             -0.111222519634019E+03
             -0.102515884763491E+03
             -0.495876775595957E+01
              0.110696782373246E+02
              0.321372386852863E+02
             -0.825235596837857E+02
              0.160613546245227E+02
              0.994220119684537E+02
             -0.786910896373743E+02
             -0.145687129669145E+02
             -0.109128834766625E+03
             -0.111712209794352E+02
              0.581349253391414E+01
             -0.756427886176347E+02
              0.232341206164820E+02
             -0.112352096541836E+03
             -0.478622598486561E+01
             -0.829222011656691E+01
              0.109381004994047E+02
             -0.685580644183058E+02
              0.511036400641550E+02
             -0.826032969478757E+01
             -0.959997368996591E+01
              0.888941888575664E+01
              0.350194085715026E+02
              0.720553127188434E+02
             -0.199220230946510E+02
              0.549191683240887E+02
              0.941164994620120E+02
              0.178617621649310E+02
             -0.378389759283857E+01
              0.288738326965545E+02
              0.868300313680737E+01
             -0.114113386275707E+02
              0.434921610993371E+02
             -0.124165881113794E+02
             -0.618372348425239E+02
              0.344393030212105E+02
             -0.439104040477964E+02
             -0.353127036795970E+02
             -0.487534430697394E+00
             -0.802975854671701E+02
             -0.204014992805879E+02
             -0.880644433317438E+02
             -0.476752663249116E+01
             -0.237722122352471E+02
              0.442729631314096E+02
             -0.937102455022356E+02
              0.866461265802627E+01
              0.271391683032431E+01
             -0.757071018139421E+02
              0.443837068318877E+02
              0.837756733369074E+02
              0.221866682489356E+02
             -0.725147963419772E+02
             -0.800669139088044E+02
              0.107747049930699E+03
              0.812981088268019E+02
              0.350778774748555E+02
             -0.268202273018847E+02
             -0.503207650053146E+02
              0.473884015044857E+02
              0.200060232906520E+02
              0.932349485162761E+02
              0.854114254859173E+02
              0.724819988151844E+02
              0.378690347195071E+02
             -0.150307647604839E+03
             -0.404435916356588E+02
              0.191376957017557E+02
             -0.317153425227948E+02
              0.869887645148301E+02
              0.373788004895544E+02
             -0.345614179972371E+02
             -0.105489864130955E+02
              0.100891104272503E+03
              0.980993298451722E+01
             -0.110105948259310E+02
             -0.170572844877117E+03
              0.417698742359746E+02
             -0.372785034993243E+02
              0.766419316904404E+02
             -0.658529695916808E+02
             -0.102060364065238E+02
              0.267137785758813E+02
             -0.578980750421338E+02
             -0.959035979187859E+02
              0.432432959454036E+01
              0.326640792945398E+02
             -0.393128782089559E+01
             -0.251757159961422E+02
             -0.139308418917739E+02
             -0.575984247996918E+02
             -0.108917500002795E+03
              0.129392616267992E+01
             -0.409030133844984E+02
             -0.100177774171081E+02
             -0.436227228581552E+02
              0.174065529858240E+03
              0.365656903078848E+02
             -0.586704069443211E+02
             -0.551086665024999E+02
              0.233405055877157E+02
              0.424096566810912E+02
              0.668376896499892E+02
             -0.478989314250090E+02
             -0.105546012966735E+03
             -0.306751550527853E+02
             -0.575144463848056E+02
              0.589283561194073E+02
              0.676429892781052E+02
              0.905029402334389E+01
              0.262051602345958E+02
              0.460325155731350E+02
              0.557140617223168E+02
             -0.106084266207884E+03
             -0.224134234333218E+02
              0.699866469958374E+01
             -0.159290481470610E+02
             -0.461649710368301E+02
              0.203894937952504E+01
             -0.177249483745355E+02
             -0.425528783573360E+02
             -0.428785231130299E+02
              0.176568192879110E+02
             -0.132978118328561E+03
             -0.677537546157450E+02
             -0.575745072018842E+02
              0.119290253816095E+03
             -0.208924206177675E+02
             -0.123888402101800E+02
              0.129011506703617E+03
             -0.633107360963230E+02
              0.783236480905482E+02
             -0.494086835223803E+02
             -0.142532913000932E+01
              0.228730330788812E+01
             -0.107720721966478E+02
             -0.592156062525233E+02
              0.167858326240548E+02
[...]
              0.543173683600255E+02
              0.246983649098592E+02
              0.401517433271465E+02
             -0.213936362491295E+01
              0.123335015012363E+03
              0.206919222621206E+02
             -0.190464566133109E+02
              0.224040538000361E+01
             -0.125849448176042E+02
              0.101359462034051E+03
             -0.589123596212909E+01
              0.218680912069721E+02
              0.730926650341927E+02
              0.160019371007035E+02
             -0.575881940538701E+02
             -0.840696414448938E+02
              0.796536924265297E+00
             -0.945438086166923E+02
              0.321373896548088E+02
             -0.190858088697788E+02
             -0.445586468377976E+02
              0.399248173697783E+02
              0.152681351928203E+02
              0.359959725578741E+02
              0.319163572716872E+01
              0.574322756644203E+02
             -0.937325920814296E+02
             -0.863223530840929E+01
             -0.818429220207854E+02
              0.147275165068921E+02
              0.443150093098207E+02
             -0.832553202503408E+01
             -0.308290695665657E+02
              0.659435154196362E+02
             -0.304416724895989E+02
              0.214958190631470E+02
             -0.190498303136411E+02
              0.470405442012130E+02
              0.568080871111636E+02
             -0.245219529621834E+02
              0.487280877475100E+02
              0.187424128407603E+02
             -0.503334307763005E+02
             -0.301265502891683E+02
              0.812692025200577E+02
              0.385532017100143E+02
             -0.373259161459615E+01
             -0.110665829137699E+02
              0.119411366939309E+03
              0.716580009145751E+02
              0.262245072944820E+02
             -0.767280219495578E+02
              0.119901680288667E+03
             -0.542592691297170E+02
             -0.672323990661484E+02
             -0.104179055459840E+03
              0.502032305108831E+02
             -0.952653780238131E+02
              0.412243685280247E+02
              0.678613937700187E+02
              0.502071685688298E+02
              0.107033065384798E+02
              0.300373971458081E+02
             -0.750336128086990E+02
             -0.266166554700328E+02
             -0.243713418334144E+02
              0.362946713664909E+02
              0.810544241242582E+02
              0.798418671691911E+02
              0.612117778868223E+02
             -0.151633814227713E+02
              0.217226247656580E+02
              0.302756859649247E+01
             -0.240237072875270E+02
              0.358204629098506E+02
              0.343649386716299E+02
             -0.488981569286911E+02
             -0.494697422057436E+02
             -0.227344606118565E+02
              0.526148891437137E+02
              0.267134428775669E+02
             -0.357271112212230E+02
             -0.624227544192372E+02
             -0.857154912936786E+02
              0.174868361447884E+01
              0.243998142695223E+02
             -0.331697472240955E+02
              0.121775363438878E+03
              0.119741735223533E+01
             -0.141562847987867E+03
              0.354982757409405E+02
              0.584214172133049E+02
             -0.211528357676140E+02
              0.219295909202194E+01
             -0.320214273496442E+02
              0.543634493883964E+02
              0.267026004282764E+02
             -0.714766719187591E+02
              0.848874763217230E+02
              0.586965025108879E+01
             -0.339520494193684E+02
             -0.417498577180885E+02
              0.170138543517469E+03
              0.761607461894491E+02
             -0.190527943952037E+02
              0.418982206966265E+02
             -0.828316126128202E+02
             -0.180400236821031E+02
             -0.736611242259784E+02
              0.284180262019111E+02
              0.528839260287052E+02
              0.582089169787860E+02
             -0.255137915154233E+02
              0.444291471126951E+01
              0.724910516385202E+02
              0.231816067445225E+02
              0.432886546034298E+02
              0.176362501221167E+02
             -0.972898010858557E+01
              0.158740890944330E+00
             -0.134419838327676E+02
              0.149848940303880E+02
              0.511055130823240E+01
             -0.657936416817149E+02
              0.100980182079493E+03
              0.389272132898937E+02
             -0.714783365685710E+02
             -0.525927151912928E+02
             -0.741797796311283E+02
             -0.320514766195274E+02
             -0.232711541533013E+02
             -0.585909235185046E+02
             -0.579179167975716E+02
              0.697876747471884E+02
              0.554966723273139E+02
             -0.774768909007298E+01
              0.832007557169444E+02
              0.119124022001413E+02
             -0.133890496907987E+03
              0.718888712506065E+02
              0.122733360761003E+02
              0.564691903944625E+02
              0.761679016385239E+01
              0.649384768981795E+01
              0.115523676625462E+02
              0.305734418632387E+02
             -0.557972823907420E+02
             -0.263454902709378E+02
             -0.529194274372291E+02
             -0.436121890476724E+02
              0.182483324024913E+02
             -0.485441616507367E+02
              0.233264215136072E+02
              0.320278061726539E+02
             -0.297805542746305E+02
             -0.190182239617063E+02
              0.131221778297001E+01
              0.832601568196297E+02
              0.125084638137567E+02
              0.799567920960545E+02
              0.287103557911620E+02
             -0.105538590571761E+03
             -0.350181805935993E+02
              0.360147523820261E+02
              0.830855151855031E+02
              0.137129132042220E+02
              0.341715991396075E+02
              0.764444443983786E+02
             -0.442742508199787E+02
             -0.680756082911047E+02
              0.942658388513423E+02
              0.551569957602771E+01
             -0.996265060881595E+02
              0.364696293309669E+02
              0.630124914472178E+02
             -0.161234109944908E+02
             -0.656531054508635E+02
              0.136025669680004E+02
              0.290102351626956E+01
             -0.318788307029989E+02
              0.121926681724942E+02
             -0.105683433010209E+02
              0.148160258723223E+03
              0.431212926903104E+02
             -0.627515921053079E+02
              0.184782034588908E+02
              0.902187625628412E+02
             -0.610241228542683E+02
             -0.160237304969530E+02
             -0.577539486600501E+02
              0.463100425367927E+02
              0.145670514690968E+02
              0.306257598724137E+02
              0.554655997456967E+01
              0.104741353490900E+03
             -0.597631218221138E+02
             -0.470816328657610E+02
             -0.454224641817513E+02
              0.399907061485360E+02
              0.104089130285646E+03
             -0.173853566623643E+02
              0.425471144411372E+02
             -0.604871973021124E+02
              0.116323091654706E+02
             -0.193185821095145E+02
              0.430627746806636E+01
             -0.235225739570195E+02
             -0.191070410351741E+02
             -0.188414176325302E+02
              0.154265245971771E+02
              0.301327708579687E+02
             -0.660850363737757E+02
              0.489136249903055E+02
             -0.786586364079856E+02
              0.592435919841934E+02
             -0.626782446434150E+02
              0.101756189211336E+03
              0.559054897403350E+02
              0.643597775844796E+02
              0.160166441249472E+02
              0.187400388333479E+02
             -0.140609636523333E+03
              0.226213720919883E+02
              0.508704868227392E+01
              0.133170723088999E+02
             -0.229226600150917E+02
              0.108647182591203E+03
             -0.252105185984560E+02
             -0.448752407750428E+02
             -0.105030531268907E+03
             -0.364577873879558E+02
             -0.504118313286876E+02
             -0.439331026698482E+02
             -0.983022989698128E+01
             -0.239724136396346E+02
             -0.306317591543069E+02
             -0.468239807355822E+02
              0.357796862151591E+02
              0.112985257723006E+03
              0.954268001716222E+02
             -0.169583037206773E+02
             -0.114652281342486E+03
             -0.489293816343511E+02
              0.234542148371575E+02
              0.234969503126632E+02
              0.374589949361580E+02
              0.263524521700787E+02
              0.460416204042951E+01
              0.111936611664464E+03
             -0.271774007467974E+02
              0.550518639282549E+02
              0.284341375333381E+02
             -0.382184318085746E+02
             -0.183223100614570E+02
              0.507247272035788E+02
             -0.271400161211280E+02
             -0.166916999499328E+02
             -0.123506902985104E+02
              0.653362816461038E+02
             -0.859950782390210E+02
             -0.702927848011655E+01
             -0.663649380933755E+02
             -0.140925589060060E+03
             -0.432866644505282E+00
             -0.208570173067080E+02
              0.548201463437401E+02
              0.608046615148834E+02
              0.832521214725944E+02
             -0.541030573515928E+02
              0.842308119213835E+02
              0.210631578771848E+02
             -0.313206405279335E+02
              0.112320505688936E+02
             -0.265007436473199E+02
             -0.156460690832916E+02
              0.487171563809968E+02
             -0.403327734878055E+02
              0.108132869192239E+03
             -0.287942821129831E+02
             -0.598763738689335E+02
              0.113090584217522E+03
             -0.612251644686138E+02
             -0.492854114564307E+01
              0.586075810373393E+01
              0.325118551248912E+02
             -0.477036624927075E+02
             -0.363698878050051E+02
              0.580179528443766E+02
             -0.874682383483681E+02
              0.720236787359661E+02
              0.106638888587767E+02
              0.516307924288144E+02
              0.747324331957869E+02
              0.191922199400723E+02
             -0.103960495055653E+03
             -0.449891685910789E+02
             -0.751279546527136E+02
             -0.445903017815513E+02
             -0.119353150194258E+02
              0.161262417130729E+02
             -0.348950846156084E+02
             -0.577905075340823E+00
             -0.104276365957491E+03
              0.573759739551983E+01
             -0.672775915073482E+02
              0.651406855946940E+02
             -0.380620208569971E+02
             -0.927510973091441E+01
              0.492550840249031E+02
              0.977601301822594E+01
              0.457350973122248E+02
             -0.872640153563519E+02
              0.144295140414913E+02
              0.596343596201723E+01
              0.375746690736322E+02
              0.602602683669569E+02
             -0.111019293889794E+02
             -0.685017402570384E+02
             -0.397847411455621E+02
             -0.278834491238232E+02
             -0.813700426921991E+01
              0.638630409567226E+02
              0.415348685404033E+02
             -0.419444602845469E+02
             -0.394577724767288E+02
              0.289745341442332E+02
              0.315516567178424E+02
             -0.852559284837930E+02
              0.198213084177037E+02
              0.609898542149125E+02
             -0.278389976305770E+01
              0.771001673155389E+02
              0.355036286487695E+02
              0.604880710340269E+02
              0.920830202266758E+02
              0.137252716764594E+02
             -0.125361779808446E+03
              0.172901762418162E+02
              0.135590217920280E+03
              0.985235365332666E+02
             -0.679465210860070E+02
              0.613282453781180E+01
              0.882016581586029E+02
              0.763015366311459E+02
              0.335603549162054E+02
             -0.203620228099540E+02
              0.337641301284658E+02
              0.698707123873132E+02
             -0.323043875037868E+02
             -0.208560731626208E+02
              0.473265350432515E+02
             -0.281237962049352E+01
              0.425920827716761E+02
             -0.129778433543660E+02
              0.886548908185345E+02
             -0.336805100700017E+02
              0.203304586665971E+02
             -0.374917456693270E+02
              0.438460318495215E+02
             -0.593446315819114E+01
              0.653860645050753E+02
              0.464157851947610E+01
              0.293059052767893E+02
             -0.416294076619907E+02
             -0.290144994032150E+02
             -0.148520474599194E+02
             -0.134876909463845E+02
              0.712797694875629E+02
              0.350921927073466E+02
              0.863541436588489E+02
              0.796201616666397E+02
              0.223438054157584E+02
              0.392029526865757E+01
              0.848993748875088E+02
              0.477267066691787E+02
              0.237296597945033E+00
              0.828021955700519E+02
             -0.678992899549794E+02
              0.238363201570265E+02
             -0.442782060790582E+02
             -0.119639120548216E+02
              0.114328054764103E+03
             -0.159735991046393E+02
             -0.484682780167441E+01
             -0.124038790108257E+02
              0.939659748894233E+02
             -0.201529590765625E+02
             -0.172660573765523E+01
              0.189471627585834E+03
             -0.560555718543002E+02
             -0.700445529015116E+02
             -0.700984196396848E+02
             -0.447123435195258E+02
              0.409079683541269E+02
             -0.183028660883764E+02
              0.103890280264882E+02
             -0.469376213008627E+01
              0.241211789794985E+02
              0.385176374438468E+02
              0.448792270872935E+02
              0.647850941941138E+02
              0.414151462200777E+02
              0.422545434753474E+02
             -0.782575502838423E+02
             -0.807804676180890E+02
             -0.182338538088916E+02
             -0.721866268280403E+02
              0.114669514026244E+03
              0.965275962847865E+02
              0.455485829600293E+02
              0.125498937331729E+03
             -0.626446980914495E+02
             -0.270696188035651E+02
             -0.390025201168472E+02
              0.108653551886359E+03
 
 BEEF-vdW xc energy contributions
            1 :    -981.8317253714308     
            2 :     899.4721708158339     
            3 :    -759.0881329775787     
            4 :     598.2671216779672     
            5 :    -452.4496619285139     
            6 :     343.3367596704686     
            7 :    -275.2210643359203     
            8 :     238.4281912681556     
            9 :    -216.6416642577576     
           10 :     194.7789067573462     
           11 :    -164.6631279084802     
           12 :     126.6489527942365     
           13 :    -87.08639059165785     
           14 :     53.53923810981269     
           15 :    -30.57553605580961     
           16 :     18.06839781474287     
           17 :    -12.17361657661013     
           18 :     7.835563123109296     
           19 :    -1.348048608360614     
           20 :    -8.154979644387595     
           21 :     18.79444338487815     
           22 :    -27.42589012433314     
           23 :     31.64351521179037     
           24 :    -31.19375745687762     
           25 :     28.06659645990362     
           26 :    -25.33079479516641     
           27 :     25.45942999723798     
           28 :    -29.07115128396663     
           29 :     34.69858499814188     
           30 :    -39.63901455282098     
           31 :    -85.12820417475837     
           32 :    -61.31140173586255     

     Writing all to output data dir ./PbI2.save/
 
     init_run     :      4.20s CPU      7.23s WALL (       1 calls)
     electrons    :     28.86s CPU     30.64s WALL (       1 calls)
     forces       :      3.54s CPU      3.83s WALL (       1 calls)
     stress       :     43.71s CPU     44.38s WALL (       1 calls)

     Called by init_run:
     wfcinit      :      0.79s CPU      3.48s WALL (       1 calls)
     potinit      :      2.21s CPU      2.33s WALL (       1 calls)
     hinit0       :      0.56s CPU      0.59s WALL (       1 calls)

     Called by electrons:
     c_bands      :     23.64s CPU     24.66s WALL (       2 calls)
     sum_band     :      3.75s CPU      4.20s WALL (       2 calls)
     v_of_rho     :      2.30s CPU      2.44s WALL (       2 calls)
     v_h          :      0.01s CPU      0.01s WALL (       2 calls)
     v_xc         :     21.47s CPU     23.84s WALL (      38 calls)
     newd         :      0.81s CPU      1.15s WALL (       2 calls)
     PAW_pot      :      0.87s CPU      0.88s WALL (       2 calls)
     mix_rho      :      0.00s CPU      0.00s WALL (       2 calls)
     vdW_kernel   :      1.17s CPU      1.18s WALL (       1 calls)

     Called by c_bands:
     init_us_2    :      0.53s CPU      0.55s WALL (      24 calls)
     init_us_2:cp :      0.53s CPU      0.55s WALL (      24 calls)
     cegterg      :     22.86s CPU     23.69s WALL (       8 calls)

     Called by sum_band:
     sum_band:wei :      0.00s CPU      0.00s WALL (       2 calls)
     sum_band:loo :      2.81s CPU      2.85s WALL (       2 calls)
     sum_band:buf :      0.14s CPU      0.15s WALL (       8 calls)
     sum_band:ini :      0.19s CPU      0.19s WALL (       8 calls)
     sum_band:cal :      0.60s CPU      0.60s WALL (       8 calls)
     sum_band:bec :      0.00s CPU      0.01s WALL (       8 calls)
     addusdens    :      0.88s CPU      1.30s WALL (       2 calls)
     addusd:skk   :      0.01s CPU      0.02s WALL (       4 calls)
     addusd:dgemm :      0.49s CPU      0.88s WALL (       4 calls)
     addusd:qvan2 :      0.36s CPU      0.36s WALL (       4 calls)

     Called by *egterg:
     cdiaghg      :      4.43s CPU      4.45s WALL (      35 calls)
     cegterg:over :      2.24s CPU      2.30s WALL (      35 calls)
     cegterg:upda :      1.61s CPU      1.73s WALL (      35 calls)
     cegterg:last :      0.73s CPU      0.74s WALL (       8 calls)
     h_psi        :     11.09s CPU     11.35s WALL (      43 calls)
     s_psi        :      1.53s CPU      1.54s WALL (      43 calls)
     g_psi        :      0.09s CPU      0.09s WALL (      35 calls)

     Called by h_psi:
     h_psi:calbec :      1.60s CPU      1.61s WALL (      43 calls)
     vloc_psi     :      7.75s CPU      7.83s WALL (      43 calls)
     add_vuspsi   :      1.52s CPU      1.53s WALL (      43 calls)

     General routines
     calbec       :      4.47s CPU      4.50s WALL (      71 calls)
     fft          :      9.57s CPU      9.67s WALL (    2232 calls)
     ffts         :      0.01s CPU      0.01s WALL (       4 calls)
     fftw         :      8.79s CPU      8.88s WALL (    9624 calls)
     interpolate  :      0.02s CPU      0.02s WALL (       2 calls)
 
     Parallel routines

     PAW routines
     PAW_pot      :      0.87s CPU      0.88s WALL (       2 calls)
 
     PWSCF        :   1m39.44s CPU   1m49.38s WALL

 
   This run was terminated on:  14:25:38  28Mar2024            

=------------------------------------------------------------------------------=
   JOB DONE.
=------------------------------------------------------------------------------=
