
     Program PWSCF v.7.1 starts on 15Jan2024 at 20:20: 9 

     This program is part of the open-source Quantum ESPRESSO suite
     for quantum simulation of materials; please cite
         "P. Giannozzi et al., J. Phys.:Condens. Matter 21 395502 (2009);
         "P. Giannozzi et al., J. Phys.:Condens. Matter 29 465901 (2017);
         "P. Giannozzi et al., J. Chem. Phys. 152 154105 (2020);
          URL http://www.quantum-espresso.org", 
     in publications or presentations arising from this work. More details at
     http://www.quantum-espresso.org/quote

     Parallel version (MPI & OpenMP), running on     128 processor cores
     Number of MPI processes:               128
     Threads/MPI process:                     1

     MPI processes distributed on     1 nodes
     1359722 MiB available memory on the printing compute node when the environment starts
 
     Reading input from espresso.pwi
Warning: card &CELL ignored
Warning: card    CELL_DYNAMICS    = 'BFGS' ignored
Warning: card / ignored

     Current dimensions of program PWSCF are:
     Max number of different atomic species (ntypx) = 10
     Max number of k-points (npk) =  40000
     Max angular momentum in pseudopotentials (lmaxx) =  4
     file Ga.pbe-dn-kjpaw_psl.1.0.0.UPF: wavefunction(s)  4S renormalized
     file N.pbe-n-kjpaw_psl.1.0.0.UPF: wavefunction(s)  2S renormalized

     **************************************************************************
     Initializing libbeef V0.1.2 with the BEEF-vdW functional.
     Citation: Wellendorff et al., PRB 85, 235149 (2012).
     **************************************************************************


     IMPORTANT: XC functional enforced from input :
     Exchange-correlation= BEEF-VDW
                           (   1   4  43  14   2   0   0)
     Any further DFT definition will be discarded
     Please, verify this is what you really want

 
     K-points division:     npool     =       4
     R & G space division:  proc/nbgrp/npool/nimage =      32
     Subspace diagonalization in iterative solution of the eigenvalue problem:
     a serial algorithm will be used

 
     Parallelization info
     --------------------
     sticks:   dense  smooth     PW     G-vecs:    dense   smooth      PW
     Min         253     203     54                20226    14477    1979
     Max         255     204     56                20235    14484    1982
     Sum        8137    6505   1735               647327   463355   63361
 
     Using Slab Decomposition
 


     bravais-lattice index     =            4
     lattice parameter (alat)  =      18.3939  a.u.
     unit-cell volume          =    5856.2271 (a.u.)^3
     number of atoms/cell      =           72
     number of atomic types    =            2
     number of electrons       =       653.00
     number of Kohn-Sham states=          392
     kinetic-energy cutoff     =      70.0000  Ry
     charge density cutoff     =     350.0000  Ry
     scf convergence threshold =      1.0E-09
     mixing beta               =       0.7000
     number of iterations used =            8  plain     mixing
     energy convergence thresh.=      1.0E-04
     force convergence thresh. =      1.0E-03
     Exchange-correlation= BEEF-VDW
                           (   1   4  43  14   2   0   0)
     nstep                     =           50


     celldm(1)=  18.393924  celldm(2)=   0.000000  celldm(3)=   1.086586
     celldm(4)=   0.000000  celldm(5)=   0.000000  celldm(6)=   0.000000

     crystal axes: (cart. coord. in units of alat)
               a(1) = (   1.000000   0.000000   0.000000 )  
               a(2) = (  -0.500000   0.866025   0.000000 )  
               a(3) = (   0.000000   0.000000   1.086586 )  

     reciprocal axes: (cart. coord. in units 2 pi/alat)
               b(1) = (  1.000000  0.577350 -0.000000 )  
               b(2) = (  0.000000  1.154701  0.000000 )  
               b(3) = (  0.000000 -0.000000  0.920314 )  


     PseudoPot. # 1 for Ga read from file:
     //group///packages/espresso/pseudo/psl_1.0.0/pslibrary.1.0.0/pbe/PSEUDOPOTENTIALS/Ga.pbe-dn-kjpaw_psl.1.0.0.UPF
     MD5 check sum: cd2a01e492f15b435d17032472d8505c
     Pseudo is Projector augmented-wave + core cor, Zval = 13.0
     Generated using 'atomic' code by A. Dal Corso  v.7.1
     Shape of augmentation charge: PSQ
     Using radial grid of 1205 points,  6 beta functions with: 
                l(1) =   0
                l(2) =   0
                l(3) =   1
                l(4) =   1
                l(5) =   2
                l(6) =   2
     Q(r) pseudized with 0 coefficients 


     PseudoPot. # 2 for N  read from file:
     //group///packages/espresso/pseudo/psl_1.0.0/pslibrary.1.0.0/pbe/PSEUDOPOTENTIALS/N.pbe-n-kjpaw_psl.1.0.0.UPF
     MD5 check sum: f77f775694dac7e2c3fe1c82443d1a16
     Pseudo is Projector augmented-wave + core cor, Zval =  5.0
     Generated using 'atomic' code by A. Dal Corso  v.7.1
     Shape of augmentation charge: PSQ
     Using radial grid of 1085 points,  4 beta functions with: 
                l(1) =   0
                l(2) =   0
                l(3) =   1
                l(4) =   1
     Q(r) pseudized with 0 coefficients 


     atomic species   valence    mass     pseudopotential
        Ga            13.00    69.72300     Ga( 1.00)
        N              5.00    14.00700     N ( 1.00)

      6 Sym. Ops. (no inversion) found ( 4 have fractional translation)


                                    s                        frac. trans.

      isym =  1     identity                                     

 cryst.   s( 1) = (     1          0          0      )
                  (     0          1          0      )
                  (     0          0          1      )

 cart.    s( 1) = (  1.0000000  0.0000000  0.0000000 )
                  (  0.0000000  1.0000000  0.0000000 )
                  (  0.0000000  0.0000000  1.0000000 )


      isym =  2     120 deg rotation - cryst. axis [0,0,1]       

 cryst.   s( 2) = (     0          1          0      )    f =( -0.3333334 )
                  (    -1         -1          0      )       (  0.0000003 )
                  (     0          0          1      )       (  0.0000000 )

 cart.    s( 2) = ( -0.5000000 -0.8660254  0.0000000 )    f =( -0.3333335 )
                  (  0.8660254 -0.5000000  0.0000000 )       (  0.0000002 )
                  (  0.0000000  0.0000000  1.0000000 )       (  0.0000000 )


      isym =  3     120 deg rotation - cryst. axis [0,0,-1]      

 cryst.   s( 3) = (    -1         -1          0      )    f =( -0.3333336 )
                  (     1          0          0      )       ( -0.3333334 )
                  (     0          0          1      )       (  0.0000000 )

 cart.    s( 3) = ( -0.5000000  0.8660254  0.0000000 )    f =( -0.1666669 )
                  ( -0.8660254 -0.5000000  0.0000000 )       ( -0.2886752 )
                  (  0.0000000  0.0000000  1.0000000 )       (  0.0000000 )


      isym =  4     inv. 180 deg rotation - cart. axis [1,0,0]   

 cryst.   s( 4) = (    -1          0          0      )    f =( -0.3333336 )
                  (     1          1          0      )       (  0.0000000 )
                  (     0          0          1      )       (  0.0000000 )

 cart.    s( 4) = ( -1.0000000  0.0000000  0.0000000 )    f =( -0.3333336 )
                  (  0.0000000  1.0000000  0.0000000 )       (  0.0000000 )
                  (  0.0000000  0.0000000  1.0000000 )       (  0.0000000 )


      isym =  5     inv. 180 deg rotation - cryst. axis [0,1,0]  

 cryst.   s( 5) = (     1          1          0      )
                  (     0         -1          0      )
                  (     0          0          1      )

 cart.    s( 5) = (  0.5000000  0.8660254  0.0000000 )
                  (  0.8660254 -0.5000000  0.0000000 )
                  (  0.0000000  0.0000000  1.0000000 )


      isym =  6     inv. 180 deg rotation - cryst. axis [1,1,0]  

 cryst.   s( 6) = (     0         -1          0      )    f =( -0.3333334 )
                  (    -1          0          0      )       ( -0.3333334 )
                  (     0          0          1      )       (  0.0000000 )

 cart.    s( 6) = (  0.5000000 -0.8660254  0.0000000 )    f =( -0.1666667 )
                  ( -0.8660254 -0.5000000  0.0000000 )       ( -0.2886752 )
                  (  0.0000000  0.0000000  1.0000000 )       (  0.0000000 )


     point group C_3v (3m)  
     there are  3 classes
     the character table:

       E     2C3   3s_v 
A_1    1.00  1.00  1.00
A_2    1.00  1.00 -1.00
E      2.00 -1.00  0.00

     the symmetry operations in each class and the name of the first element:

     E        1
          identity                                               
     2C3      2    3
          120 deg rotation - cryst. axis [0,0,1]                 
     3s_v     4    5    6
          inv. 180 deg rotation - cart. axis [1,0,0]             

   Cartesian axes

     site n.     atom                  positions (alat units)
         1           Ga  tau(   1) = (   0.1666668   0.0962250   0.2711914  )
         2           Ga  tau(   2) = (   0.1666668   0.0962250   0.8144844  )
         3           Ga  tau(   3) = (   0.0000001   0.3849001   0.2711914  )
         4           Ga  tau(   4) = (   0.0000001   0.3849001   0.8144844  )
         5           Ga  tau(   5) = (  -0.1666665   0.6735752   0.2711914  )
         6           Ga  tau(   6) = (  -0.1666665   0.6735752   0.8144844  )
         7           Ga  tau(   7) = (   0.5000001   0.0962250   0.2711914  )
         8           Ga  tau(   8) = (   0.5000001   0.0962250   0.8144844  )
         9           Ga  tau(   9) = (   0.3333335   0.3849001   0.2711914  )
        10           Ga  tau(  10) = (   0.3333335   0.3849001   0.8144844  )
        11           Ga  tau(  11) = (   0.1666668   0.6735752   0.2711914  )
        12           Ga  tau(  12) = (   0.1666668   0.6735752   0.8144844  )
        13           Ga  tau(  13) = (   0.8333335   0.0962250   0.2711914  )
        14           Ga  tau(  14) = (   0.8333335   0.0962250   0.8144844  )
        15           Ga  tau(  15) = (   0.6666668   0.3849001   0.2711914  )
        16           Ga  tau(  16) = (   0.6666668   0.3849001   0.8144844  )
        17           Ga  tau(  17) = (   0.5000001   0.6735752   0.2711914  )
        18           Ga  tau(  18) = (   0.5000001   0.6735752   0.8144844  )
        19           Ga  tau(  19) = (  -0.0000002   0.1924502   0.5428379  )
        20           Ga  tau(  20) = (  -0.0000002   0.1924502   1.0861309  )
        21           Ga  tau(  21) = (  -0.1666669   0.4811254   0.5428379  )
        22           Ga  tau(  22) = (  -0.1666669   0.4811254   1.0861309  )
        23           Ga  tau(  23) = (  -0.3333335   0.7698005   0.5428379  )
        24           Ga  tau(  24) = (  -0.3333335   0.7698005   1.0861309  )
        25           Ga  tau(  25) = (   0.3333331   0.1924502   0.5428379  )
        26           Ga  tau(  26) = (   0.3333331   0.1924502   1.0861309  )
        27           Ga  tau(  27) = (   0.1666665   0.4811254   0.5428379  )
        28           Ga  tau(  28) = (   0.1666665   0.4811254   1.0861309  )
        29           Ga  tau(  29) = (  -0.0000002   0.7698005   0.5428379  )
        30           Ga  tau(  30) = (  -0.0000002   0.7698005   1.0861309  )
        31           Ga  tau(  31) = (   0.6666665   0.1924502   0.5428379  )
        32           Ga  tau(  32) = (   0.6666665   0.1924502   1.0861309  )
        33           Ga  tau(  33) = (   0.4999998   0.4811254   0.5428379  )
        34           Ga  tau(  34) = (   0.4999998   0.4811254   1.0861309  )
        35           Ga  tau(  35) = (   0.3333331   0.7698005   0.5428379  )
        36           Ga  tau(  36) = (   0.3333331   0.7698005   1.0861309  )
        37           N   tau(  37) = (   0.1666668   0.0962250   1.0191295  )
        38           N   tau(  38) = (   0.0000001   0.3849001   0.4758365  )
        39           N   tau(  39) = (   0.0000001   0.3849001   1.0191295  )
        40           N   tau(  40) = (  -0.1666665   0.6735752   0.4758365  )
        41           N   tau(  41) = (  -0.1666665   0.6735752   1.0191295  )
        42           N   tau(  42) = (   0.5000001   0.0962250   0.4758365  )
        43           N   tau(  43) = (   0.5000001   0.0962250   1.0191295  )
        44           N   tau(  44) = (   0.3333335   0.3849001   0.4758365  )
        45           N   tau(  45) = (   0.3333335   0.3849001   1.0191295  )
        46           N   tau(  46) = (   0.1666668   0.6735752   0.4758365  )
        47           N   tau(  47) = (   0.1666668   0.6735752   1.0191295  )
        48           N   tau(  48) = (   0.8333335   0.0962250   0.4758365  )
        49           N   tau(  49) = (   0.8333335   0.0962250   1.0191295  )
        50           N   tau(  50) = (   0.6666668   0.3849001   0.4758365  )
        51           N   tau(  51) = (   0.6666668   0.3849001   1.0191295  )
        52           N   tau(  52) = (   0.5000001   0.6735752   0.4758365  )
        53           N   tau(  53) = (   0.5000001   0.6735752   1.0191295  )
        54           N   tau(  54) = (  -0.0000002   0.1924502   0.2041900  )
        55           N   tau(  55) = (  -0.0000002   0.1924502   0.7474830  )
        56           N   tau(  56) = (  -0.1666669   0.4811254   0.2041900  )
        57           N   tau(  57) = (  -0.1666669   0.4811254   0.7474830  )
        58           N   tau(  58) = (  -0.3333335   0.7698005   0.2041900  )
        59           N   tau(  59) = (  -0.3333335   0.7698005   0.7474830  )
        60           N   tau(  60) = (   0.3333331   0.1924502   0.2041900  )
        61           N   tau(  61) = (   0.3333331   0.1924502   0.7474830  )
        62           N   tau(  62) = (   0.1666665   0.4811254   0.2041900  )
        63           N   tau(  63) = (   0.1666665   0.4811254   0.7474830  )
        64           N   tau(  64) = (  -0.0000002   0.7698005   0.2041900  )
        65           N   tau(  65) = (  -0.0000002   0.7698005   0.7474830  )
        66           N   tau(  66) = (   0.6666665   0.1924502   0.2041900  )
        67           N   tau(  67) = (   0.6666665   0.1924502   0.7474830  )
        68           N   tau(  68) = (   0.4999998   0.4811254   0.2041900  )
        69           N   tau(  69) = (   0.4999998   0.4811254   0.7474830  )
        70           N   tau(  70) = (   0.3333331   0.7698005   0.2041900  )
        71           N   tau(  71) = (   0.3333331   0.7698005   0.7474830  )
        72           Ga  tau(  72) = (   0.1666668   0.0962250   0.4758365  )

   Crystallographic axes

     site n.     atom                  positions (cryst. coord.)
         1           Ga  tau(   1) = (  0.2222223  0.1111110  0.2495811  )
         2           Ga  tau(   2) = (  0.2222223  0.1111110  0.7495811  )
         3           Ga  tau(   3) = (  0.2222223  0.4444444  0.2495811  )
         4           Ga  tau(   4) = (  0.2222223  0.4444444  0.7495811  )
         5           Ga  tau(   5) = (  0.2222223  0.7777777  0.2495811  )
         6           Ga  tau(   6) = (  0.2222223  0.7777777  0.7495811  )
         7           Ga  tau(   7) = (  0.5555557  0.1111110  0.2495811  )
         8           Ga  tau(   8) = (  0.5555557  0.1111110  0.7495811  )
         9           Ga  tau(   9) = (  0.5555557  0.4444444  0.2495811  )
        10           Ga  tau(  10) = (  0.5555557  0.4444444  0.7495811  )
        11           Ga  tau(  11) = (  0.5555557  0.7777777  0.2495811  )
        12           Ga  tau(  12) = (  0.5555557  0.7777777  0.7495811  )
        13           Ga  tau(  13) = (  0.8888890  0.1111110  0.2495811  )
        14           Ga  tau(  14) = (  0.8888890  0.1111110  0.7495811  )
        15           Ga  tau(  15) = (  0.8888890  0.4444444  0.2495811  )
        16           Ga  tau(  16) = (  0.8888890  0.4444444  0.7495811  )
        17           Ga  tau(  17) = (  0.8888890  0.7777777  0.2495811  )
        18           Ga  tau(  18) = (  0.8888890  0.7777777  0.7495811  )
        19           Ga  tau(  19) = (  0.1111110  0.2222224  0.4995811  )
        20           Ga  tau(  20) = (  0.1111110  0.2222224  0.9995811  )
        21           Ga  tau(  21) = (  0.1111110  0.5555557  0.4995811  )
        22           Ga  tau(  22) = (  0.1111110  0.5555557  0.9995811  )
        23           Ga  tau(  23) = (  0.1111110  0.8888891  0.4995811  )
        24           Ga  tau(  24) = (  0.1111110  0.8888891  0.9995811  )
        25           Ga  tau(  25) = (  0.4444443  0.2222224  0.4995811  )
        26           Ga  tau(  26) = (  0.4444443  0.2222224  0.9995811  )
        27           Ga  tau(  27) = (  0.4444443  0.5555557  0.4995811  )
        28           Ga  tau(  28) = (  0.4444443  0.5555557  0.9995811  )
        29           Ga  tau(  29) = (  0.4444443  0.8888891  0.4995811  )
        30           Ga  tau(  30) = (  0.4444443  0.8888891  0.9995811  )
        31           Ga  tau(  31) = (  0.7777777  0.2222224  0.4995811  )
        32           Ga  tau(  32) = (  0.7777777  0.2222224  0.9995811  )
        33           Ga  tau(  33) = (  0.7777777  0.5555557  0.4995811  )
        34           Ga  tau(  34) = (  0.7777777  0.5555557  0.9995811  )
        35           Ga  tau(  35) = (  0.7777777  0.8888891  0.4995811  )
        36           Ga  tau(  36) = (  0.7777777  0.8888891  0.9995811  )
        37           N   tau(  37) = (  0.2222223  0.1111110  0.9379189  )
        38           N   tau(  38) = (  0.2222223  0.4444444  0.4379189  )
        39           N   tau(  39) = (  0.2222223  0.4444444  0.9379189  )
        40           N   tau(  40) = (  0.2222223  0.7777777  0.4379189  )
        41           N   tau(  41) = (  0.2222223  0.7777777  0.9379189  )
        42           N   tau(  42) = (  0.5555557  0.1111110  0.4379189  )
        43           N   tau(  43) = (  0.5555557  0.1111110  0.9379189  )
        44           N   tau(  44) = (  0.5555557  0.4444444  0.4379189  )
        45           N   tau(  45) = (  0.5555557  0.4444444  0.9379189  )
        46           N   tau(  46) = (  0.5555557  0.7777777  0.4379189  )
        47           N   tau(  47) = (  0.5555557  0.7777777  0.9379189  )
        48           N   tau(  48) = (  0.8888890  0.1111110  0.4379189  )
        49           N   tau(  49) = (  0.8888890  0.1111110  0.9379189  )
        50           N   tau(  50) = (  0.8888890  0.4444444  0.4379189  )
        51           N   tau(  51) = (  0.8888890  0.4444444  0.9379189  )
        52           N   tau(  52) = (  0.8888890  0.7777777  0.4379189  )
        53           N   tau(  53) = (  0.8888890  0.7777777  0.9379189  )
        54           N   tau(  54) = (  0.1111110  0.2222224  0.1879189  )
        55           N   tau(  55) = (  0.1111110  0.2222224  0.6879189  )
        56           N   tau(  56) = (  0.1111110  0.5555557  0.1879189  )
        57           N   tau(  57) = (  0.1111110  0.5555557  0.6879189  )
        58           N   tau(  58) = (  0.1111110  0.8888891  0.1879189  )
        59           N   tau(  59) = (  0.1111110  0.8888891  0.6879189  )
        60           N   tau(  60) = (  0.4444443  0.2222224  0.1879189  )
        61           N   tau(  61) = (  0.4444443  0.2222224  0.6879189  )
        62           N   tau(  62) = (  0.4444443  0.5555557  0.1879189  )
        63           N   tau(  63) = (  0.4444443  0.5555557  0.6879189  )
        64           N   tau(  64) = (  0.4444443  0.8888891  0.1879189  )
        65           N   tau(  65) = (  0.4444443  0.8888891  0.6879189  )
        66           N   tau(  66) = (  0.7777777  0.2222224  0.1879189  )
        67           N   tau(  67) = (  0.7777777  0.2222224  0.6879189  )
        68           N   tau(  68) = (  0.7777777  0.5555557  0.1879189  )
        69           N   tau(  69) = (  0.7777777  0.5555557  0.6879189  )
        70           N   tau(  70) = (  0.7777777  0.8888891  0.1879189  )
        71           N   tau(  71) = (  0.7777777  0.8888891  0.6879189  )
        72           Ga  tau(  72) = (  0.2222223  0.1111110  0.4379189  )

     number of k points=     4  Gaussian smearing, width (Ry)=  0.0100
                       cart. coord. in units 2pi/alat
        k(    1) = (   0.0000000   0.0000000   0.0000000), wk =   0.2500000
        k(    2) = (   0.0000000   0.0000000  -0.4601568), wk =   0.2500000
        k(    3) = (   0.0000000  -0.5773503   0.0000000), wk =   0.7500000
        k(    4) = (   0.0000000  -0.5773503  -0.4601568), wk =   0.7500000

                       cryst. coord.
        k(    1) = (   0.0000000   0.0000000   0.0000000), wk =   0.2500000
        k(    2) = (   0.0000000   0.0000000  -0.5000000), wk =   0.2500000
        k(    3) = (   0.0000000  -0.5000000   0.0000000), wk =   0.7500000
        k(    4) = (   0.0000000  -0.5000000  -0.5000000), wk =   0.7500000

     Dense  grid:   647327 G-vectors     FFT dimensions: ( 120, 120, 120)

     Smooth grid:   463355 G-vectors     FFT dimensions: ( 108, 108, 108)

     Dynamical RAM for                 wfc:      10.82 MB

     Dynamical RAM for     wfc (w. buffer):      10.82 MB

     Dynamical RAM for           str. fact:       0.62 MB

     Dynamical RAM for           local pot:       0.00 MB

     Dynamical RAM for          nlocal pot:      26.11 MB

     Dynamical RAM for                qrad:       3.00 MB

     Dynamical RAM for          rho,v,vnew:       2.24 MB

     Dynamical RAM for               rhoin:       0.75 MB

     Dynamical RAM for            rho*nmix:       4.94 MB

     Dynamical RAM for           G-vectors:       1.27 MB

     Dynamical RAM for          h,s,v(r/c):     112.55 MB

     Dynamical RAM for          <psi|beta>:       5.66 MB

     Dynamical RAM for                 psi:      43.28 MB

     Dynamical RAM for                hpsi:      43.28 MB

     Dynamical RAM for                spsi:      43.28 MB

     Dynamical RAM for      wfcinit/wfcrot:      31.24 MB

     Dynamical RAM for           addusdens:      17.44 MB

     Dynamical RAM for          addusforce:      23.07 MB

     Dynamical RAM for         addusstress:      15.63 MB

     Estimated static dynamical RAM per process >      47.94 MB

     Estimated max dynamical RAM per process >     300.93 MB

     Estimated total dynamical RAM >      37.15 GB

     Check: negative core charge=   -0.000003

     Initial potential from superposition of free atoms

     starting charge     655.8905, renormalised to     653.0000


     %%%%%%%%%%%%%%%%%%%%%%%%%%%%%%%%%%%%%%%%%%%%%%%%%%%%%%%%%%%%%%%%%%%%%%%%
     %                                                                      %
     % You are using vdW-DF, which was implemented by the Thonhauser group. %
     % Please cite the following two papers that made this development      %
     % possible and the two reviews that describe the various versions:     %
     %                                                                      %
     %   T. Thonhauser et al., PRL 115, 136402 (2015).                      %
     %   T. Thonhauser et al., PRB 76, 125112 (2007).                       %
     %   K. Berland et al., Rep. Prog. Phys. 78, 066501 (2015).             %
     %   D.C. Langreth et al., J. Phys.: Condens. Matter 21, 084203 (2009). %
     %                                                                      %
     % If you are calculating stress with vdW-DF, please also cite:         %
     %                                                                      %
     %   R. Sabatini et al., J. Phys.: Condens. Matter 24, 424209 (2012).   %
     %                                                                      %
     %%%%%%%%%%%%%%%%%%%%%%%%%%%%%%%%%%%%%%%%%%%%%%%%%%%%%%%%%%%%%%%%%%%%%%%%

     %%%%%%%%%%%%%%%%%%%%%%%%%%%%%%%%%%%%%%%%%%%%%%%%%%%%%%%%%%%%%%%%%%%%%%%%
     %                                                                      %
     %  vdW-DF NEWS:                                                        %
     %                                                                      %
     %  * vdW-DF3 is now available. DOI: 10.1021/acs.jctc.0c00471           %
     %    use with input_dft = 'vdW-DF3-opt1' or 'vdW-DF3-opt2'             %
     %                                                                      %
     %  * Unscreened and range-separated vdW-DF hybrid functionals          %
     %    DOI: 10.1063/1.4986522 and 10.1088/1361-648X/ac2ad2               %
     %    use with input_dft = 'vdW-DF-cx0' (etc) and 'vdW-DF-ahcx'         %
     %                                                                      %
     %%%%%%%%%%%%%%%%%%%%%%%%%%%%%%%%%%%%%%%%%%%%%%%%%%%%%%%%%%%%%%%%%%%%%%%%


     Carrying out vdW-DF run using the following parameters:
     Nqs    =  20  Npoints =  1024  r_max =  100.000
     q_mesh =  0.00001000  0.04494208  0.09755937  0.15916263
               0.23128650  0.31572767  0.41458969  0.53033537
               0.66584808  0.82450364  1.01025438  1.22772762
               1.48234092  1.78043706  2.12944203  2.53805004
               3.01644009  3.57652955  4.23227104  5.00000000


     -----------------------------------------------
     Non-local corr. energy    =      18.92401028 Ry
     -----------------------------------------------

     Starting wfcs are  473 randomized atomic wfcs
     Checking if some PAW data can be deallocated... 
       PAW data deallocated on   55 nodes for type:  1
       PAW data deallocated on   73 nodes for type:  2

     total cpu time spent up to now is        4.5 secs

     Self-consistent Calculation

     iteration #  1     ecut=    70.00 Ry     beta= 0.70
     Davidson diagonalization with overlap

---- Real-time Memory Report at c_bands before calling an iterative solver
           250 MiB given to the printing process from OS
             0 MiB allocation reported by mallinfo(arena+hblkhd)
       1348864 MiB available memory on the node where the printing process lives
------------------
     ethr =  1.00E-02,  avg # of iterations =  4.5


     -----------------------------------------------
     Non-local corr. energy    =      19.81999941 Ry
     -----------------------------------------------


     total cpu time spent up to now is       17.5 secs

     total energy              =  -11483.67808410 Ry
     estimated scf accuracy    <      23.02692408 Ry

     iteration #  2     ecut=    70.00 Ry     beta= 0.70
     Davidson diagonalization with overlap

---- Real-time Memory Report at c_bands before calling an iterative solver
           347 MiB given to the printing process from OS
             0 MiB allocation reported by mallinfo(arena+hblkhd)
       1345993 MiB available memory on the node where the printing process lives
------------------
     ethr =  3.53E-03,  avg # of iterations =  7.0


     -----------------------------------------------
     Non-local corr. energy    =      19.71953675 Ry
     -----------------------------------------------


     total cpu time spent up to now is       38.6 secs

     total energy              =  -11486.17675902 Ry
     estimated scf accuracy    <      58.20586910 Ry

     iteration #  3     ecut=    70.00 Ry     beta= 0.70
     Davidson diagonalization with overlap

---- Real-time Memory Report at c_bands before calling an iterative solver
           428 MiB given to the printing process from OS
             0 MiB allocation reported by mallinfo(arena+hblkhd)
       1345926 MiB available memory on the node where the printing process lives
------------------
     ethr =  3.53E-03,  avg # of iterations =  7.8


     -----------------------------------------------
     Non-local corr. energy    =      19.74775247 Ry
     -----------------------------------------------


     total cpu time spent up to now is       54.5 secs

     total energy              =  -11494.37749070 Ry
     estimated scf accuracy    <      26.34014998 Ry

     iteration #  4     ecut=    70.00 Ry     beta= 0.70
     Davidson diagonalization with overlap

---- Real-time Memory Report at c_bands before calling an iterative solver
           428 MiB given to the printing process from OS
             0 MiB allocation reported by mallinfo(arena+hblkhd)
       1345789 MiB available memory on the node where the printing process lives
------------------
     ethr =  3.53E-03,  avg # of iterations =  7.0


     -----------------------------------------------
     Non-local corr. energy    =      19.83929084 Ry
     -----------------------------------------------


     total cpu time spent up to now is       67.1 secs

     total energy              =  -11497.85516757 Ry
     estimated scf accuracy    <       0.90518305 Ry

     iteration #  5     ecut=    70.00 Ry     beta= 0.70
     Davidson diagonalization with overlap

---- Real-time Memory Report at c_bands before calling an iterative solver
           428 MiB given to the printing process from OS
             0 MiB allocation reported by mallinfo(arena+hblkhd)
       1345802 MiB available memory on the node where the printing process lives
------------------
     ethr =  1.39E-04,  avg # of iterations =  9.0


     -----------------------------------------------
     Non-local corr. energy    =      19.97995822 Ry
     -----------------------------------------------


     total cpu time spent up to now is       87.3 secs

     total energy              =  -11497.97521483 Ry
     estimated scf accuracy    <       0.57295116 Ry

     iteration #  6     ecut=    70.00 Ry     beta= 0.70
     Davidson diagonalization with overlap

---- Real-time Memory Report at c_bands before calling an iterative solver
           428 MiB given to the printing process from OS
             0 MiB allocation reported by mallinfo(arena+hblkhd)
       1345762 MiB available memory on the node where the printing process lives
------------------
     ethr =  8.77E-05,  avg # of iterations =  9.0


     -----------------------------------------------
     Non-local corr. energy    =      19.99810696 Ry
     -----------------------------------------------


     total cpu time spent up to now is      104.8 secs

     total energy              =  -11498.08182785 Ry
     estimated scf accuracy    <       0.36389684 Ry

     iteration #  7     ecut=    70.00 Ry     beta= 0.70
     Davidson diagonalization with overlap

---- Real-time Memory Report at c_bands before calling an iterative solver
           428 MiB given to the printing process from OS
             0 MiB allocation reported by mallinfo(arena+hblkhd)
       1345718 MiB available memory on the node where the printing process lives
------------------
     ethr =  5.57E-05,  avg # of iterations =  9.3


     -----------------------------------------------
     Non-local corr. energy    =      19.98359713 Ry
     -----------------------------------------------


     total cpu time spent up to now is      122.3 secs

     total energy              =  -11498.11635821 Ry
     estimated scf accuracy    <       0.10126280 Ry

     iteration #  8     ecut=    70.00 Ry     beta= 0.70
     Davidson diagonalization with overlap

---- Real-time Memory Report at c_bands before calling an iterative solver
           428 MiB given to the printing process from OS
             0 MiB allocation reported by mallinfo(arena+hblkhd)
       1345661 MiB available memory on the node where the printing process lives
------------------
     ethr =  1.55E-05,  avg # of iterations = 11.8


     -----------------------------------------------
     Non-local corr. energy    =      19.98053389 Ry
     -----------------------------------------------


     total cpu time spent up to now is      144.7 secs

     total energy              =  -11498.12765470 Ry
     estimated scf accuracy    <       0.02446676 Ry

     iteration #  9     ecut=    70.00 Ry     beta= 0.70
     Davidson diagonalization with overlap

---- Real-time Memory Report at c_bands before calling an iterative solver
           428 MiB given to the printing process from OS
             0 MiB allocation reported by mallinfo(arena+hblkhd)
       1345528 MiB available memory on the node where the printing process lives
------------------
     ethr =  3.75E-06,  avg # of iterations = 12.3


     -----------------------------------------------
     Non-local corr. energy    =      19.98413014 Ry
     -----------------------------------------------


     total cpu time spent up to now is      166.8 secs

     total energy              =  -11498.13284094 Ry
     estimated scf accuracy    <       0.00616754 Ry

     iteration # 10     ecut=    70.00 Ry     beta= 0.70
     Davidson diagonalization with overlap

---- Real-time Memory Report at c_bands before calling an iterative solver
           428 MiB given to the printing process from OS
             0 MiB allocation reported by mallinfo(arena+hblkhd)
       1345563 MiB available memory on the node where the printing process lives
------------------
     ethr =  9.44E-07,  avg # of iterations = 12.3


     -----------------------------------------------
     Non-local corr. energy    =      19.98406848 Ry
     -----------------------------------------------


     total cpu time spent up to now is      189.6 secs

     total energy              =  -11498.13427621 Ry
     estimated scf accuracy    <       0.00087725 Ry

     iteration # 11     ecut=    70.00 Ry     beta= 0.70
     Davidson diagonalization with overlap

---- Real-time Memory Report at c_bands before calling an iterative solver
           428 MiB given to the printing process from OS
             0 MiB allocation reported by mallinfo(arena+hblkhd)
       1345508 MiB available memory on the node where the printing process lives
------------------
     ethr =  1.34E-07,  avg # of iterations = 11.3


     -----------------------------------------------
     Non-local corr. energy    =      19.98574314 Ry
     -----------------------------------------------


     total cpu time spent up to now is      211.3 secs

     total energy              =  -11498.13480775 Ry
     estimated scf accuracy    <       0.00019328 Ry

     iteration # 12     ecut=    70.00 Ry     beta= 0.70
     Davidson diagonalization with overlap

---- Real-time Memory Report at c_bands before calling an iterative solver
           445 MiB given to the printing process from OS
             0 MiB allocation reported by mallinfo(arena+hblkhd)
       1345316 MiB available memory on the node where the printing process lives
------------------
     ethr =  2.96E-08,  avg # of iterations =  9.3


     -----------------------------------------------
     Non-local corr. energy    =      19.98584735 Ry
     -----------------------------------------------


     total cpu time spent up to now is      229.2 secs

     total energy              =  -11498.13483179 Ry
     estimated scf accuracy    <       0.00003982 Ry

     iteration # 13     ecut=    70.00 Ry     beta= 0.70
     Davidson diagonalization with overlap

---- Real-time Memory Report at c_bands before calling an iterative solver
           445 MiB given to the printing process from OS
             0 MiB allocation reported by mallinfo(arena+hblkhd)
       1345310 MiB available memory on the node where the printing process lives
------------------
     ethr =  6.10E-09,  avg # of iterations = 10.3


     -----------------------------------------------
     Non-local corr. energy    =      19.98581374 Ry
     -----------------------------------------------


     total cpu time spent up to now is      248.5 secs

     total energy              =  -11498.13484070 Ry
     estimated scf accuracy    <       0.00001377 Ry

     iteration # 14     ecut=    70.00 Ry     beta= 0.70
     Davidson diagonalization with overlap

---- Real-time Memory Report at c_bands before calling an iterative solver
           445 MiB given to the printing process from OS
             0 MiB allocation reported by mallinfo(arena+hblkhd)
       1345308 MiB available memory on the node where the printing process lives
------------------
     ethr =  2.11E-09,  avg # of iterations = 10.0


     -----------------------------------------------
     Non-local corr. energy    =      19.98565481 Ry
     -----------------------------------------------


     total cpu time spent up to now is      268.7 secs

     total energy              =  -11498.13484411 Ry
     estimated scf accuracy    <       0.00000302 Ry

     iteration # 15     ecut=    70.00 Ry     beta= 0.70
     Davidson diagonalization with overlap

---- Real-time Memory Report at c_bands before calling an iterative solver
           445 MiB given to the printing process from OS
             0 MiB allocation reported by mallinfo(arena+hblkhd)
       1345295 MiB available memory on the node where the printing process lives
------------------
     ethr =  4.62E-10,  avg # of iterations =  8.0


     -----------------------------------------------
     Non-local corr. energy    =      19.98551819 Ry
     -----------------------------------------------


     total cpu time spent up to now is      288.0 secs

     total energy              =  -11498.13484463 Ry
     estimated scf accuracy    <       0.00000145 Ry

     iteration # 16     ecut=    70.00 Ry     beta= 0.70
     Davidson diagonalization with overlap

---- Real-time Memory Report at c_bands before calling an iterative solver
           445 MiB given to the printing process from OS
             0 MiB allocation reported by mallinfo(arena+hblkhd)
       1345146 MiB available memory on the node where the printing process lives
------------------
     ethr =  2.22E-10,  avg # of iterations =  7.3


     -----------------------------------------------
     Non-local corr. energy    =      19.98542395 Ry
     -----------------------------------------------


     total cpu time spent up to now is      300.0 secs

     total energy              =  -11498.13484453 Ry
     estimated scf accuracy    <       0.00000140 Ry

     iteration # 17     ecut=    70.00 Ry     beta= 0.70
     Davidson diagonalization with overlap

---- Real-time Memory Report at c_bands before calling an iterative solver
           445 MiB given to the printing process from OS
             0 MiB allocation reported by mallinfo(arena+hblkhd)
       1345138 MiB available memory on the node where the printing process lives
------------------
     ethr =  2.14E-10,  avg # of iterations =  8.0


     -----------------------------------------------
     Non-local corr. energy    =      19.98537311 Ry
     -----------------------------------------------


     total cpu time spent up to now is      313.1 secs

     total energy              =  -11498.13484448 Ry
     estimated scf accuracy    <       0.00000095 Ry

     iteration # 18     ecut=    70.00 Ry     beta= 0.70
     Davidson diagonalization with overlap

---- Real-time Memory Report at c_bands before calling an iterative solver
           445 MiB given to the printing process from OS
             0 MiB allocation reported by mallinfo(arena+hblkhd)
       1345284 MiB available memory on the node where the printing process lives
------------------
     ethr =  1.46E-10,  avg # of iterations = 10.3


     -----------------------------------------------
     Non-local corr. energy    =      19.98522532 Ry
     -----------------------------------------------


     total cpu time spent up to now is      333.4 secs

     total energy              =  -11498.13484438 Ry
     estimated scf accuracy    <       0.00000204 Ry

     iteration # 19     ecut=    70.00 Ry     beta= 0.70
     Davidson diagonalization with overlap

---- Real-time Memory Report at c_bands before calling an iterative solver
           445 MiB given to the printing process from OS
             0 MiB allocation reported by mallinfo(arena+hblkhd)
       1345281 MiB available memory on the node where the printing process lives
------------------
     ethr =  1.46E-10,  avg # of iterations = 10.8


     -----------------------------------------------
     Non-local corr. energy    =      19.98522964 Ry
     -----------------------------------------------


     total cpu time spent up to now is      354.0 secs

     total energy              =  -11498.13484465 Ry
     estimated scf accuracy    <       0.00000021 Ry

     iteration # 20     ecut=    70.00 Ry     beta= 0.70
     Davidson diagonalization with overlap

---- Real-time Memory Report at c_bands before calling an iterative solver
           445 MiB given to the printing process from OS
             0 MiB allocation reported by mallinfo(arena+hblkhd)
       1345275 MiB available memory on the node where the printing process lives
------------------
     ethr =  3.15E-11,  avg # of iterations = 11.0


     -----------------------------------------------
     Non-local corr. energy    =      19.98525934 Ry
     -----------------------------------------------


     total cpu time spent up to now is      383.0 secs

     total energy              =  -11498.13484472 Ry
     estimated scf accuracy    <       0.00000020 Ry

     iteration # 21     ecut=    70.00 Ry     beta= 0.70
     Davidson diagonalization with overlap

---- Real-time Memory Report at c_bands before calling an iterative solver
           445 MiB given to the printing process from OS
             0 MiB allocation reported by mallinfo(arena+hblkhd)
       1345271 MiB available memory on the node where the printing process lives
------------------
     ethr =  3.00E-11,  avg # of iterations =  9.5


     -----------------------------------------------
     Non-local corr. energy    =      19.98532059 Ry
     -----------------------------------------------


     total cpu time spent up to now is      399.1 secs

     total energy              =  -11498.13484471 Ry
     estimated scf accuracy    <       0.00000010 Ry

     iteration # 22     ecut=    70.00 Ry     beta= 0.70
     Davidson diagonalization with overlap

---- Real-time Memory Report at c_bands before calling an iterative solver
           445 MiB given to the printing process from OS
             0 MiB allocation reported by mallinfo(arena+hblkhd)
       1345259 MiB available memory on the node where the printing process lives
------------------
     ethr =  1.48E-11,  avg # of iterations =  5.8


     -----------------------------------------------
     Non-local corr. energy    =      19.98541348 Ry
     -----------------------------------------------


     total cpu time spent up to now is      412.0 secs

     total energy              =  -11498.13484471 Ry
     estimated scf accuracy    <       0.00000003 Ry

     iteration # 23     ecut=    70.00 Ry     beta= 0.70
     Davidson diagonalization with overlap

---- Real-time Memory Report at c_bands before calling an iterative solver
           445 MiB given to the printing process from OS
             0 MiB allocation reported by mallinfo(arena+hblkhd)
       1345243 MiB available memory on the node where the printing process lives
------------------
     ethr =  4.23E-12,  avg # of iterations =  5.0


     -----------------------------------------------
     Non-local corr. energy    =      19.98537172 Ry
     -----------------------------------------------


     total cpu time spent up to now is      429.6 secs

     total energy              =  -11498.13484472 Ry
     estimated scf accuracy    <       0.00000004 Ry

     iteration # 24     ecut=    70.00 Ry     beta= 0.70
     Davidson diagonalization with overlap

---- Real-time Memory Report at c_bands before calling an iterative solver
           445 MiB given to the printing process from OS
             0 MiB allocation reported by mallinfo(arena+hblkhd)
       1345247 MiB available memory on the node where the printing process lives
------------------
     ethr =  4.23E-12,  avg # of iterations =  1.0


     -----------------------------------------------
     Non-local corr. energy    =      19.98535347 Ry
     -----------------------------------------------


     total cpu time spent up to now is      435.7 secs

     total energy              =  -11498.13484472 Ry
     estimated scf accuracy    <       0.00000001 Ry

     iteration # 25     ecut=    70.00 Ry     beta= 0.70
     Davidson diagonalization with overlap

---- Real-time Memory Report at c_bands before calling an iterative solver
           445 MiB given to the printing process from OS
             0 MiB allocation reported by mallinfo(arena+hblkhd)
       1345232 MiB available memory on the node where the printing process lives
------------------
     ethr =  2.08E-12,  avg # of iterations =  3.3


     -----------------------------------------------
     Non-local corr. energy    =      19.98535299 Ry
     -----------------------------------------------


     total cpu time spent up to now is      446.6 secs

     End of self-consistent calculation

          k = 0.0000 0.0000 0.0000 ( 57971 PWs)   bands (ev):

    -8.0044  -7.9635  -7.9635  -7.6692  -7.6692  -6.7596  -6.5848  -6.5848
    -6.5725  -6.5306  -6.5305  -6.4805  -6.4682  -6.4648  -6.4648  -6.4101
    -6.4101  -6.3775  -6.2277  -6.2015  -6.1766  -6.1563  -6.1427  -6.1427
    -6.1306  -6.1095  -6.1007  -6.1007  -6.0762  -6.0752  -6.0752  -6.0620
    -6.0562  -6.0562  -6.0514  -6.0495  -6.0495  -6.0235  -6.0235  -5.9962
    -5.9801  -5.9390  -5.9390  -5.9213  -5.8030  -5.8030  -5.7495  -5.6610
    -5.6610  -5.5466  -5.5466  -5.5437  -5.4951  -5.4950  -5.4820  -5.4693
    -5.4693  -5.4599  -5.4336  -5.4336  -5.0651  -5.0553  -5.0553  -5.0490
    -5.0490  -5.0338  -5.0338  -5.0220  -5.0220  -5.0174  -5.0156  -5.0124
    -5.0073  -5.0073  -4.9977  -4.9977  -4.9873  -4.9873  -4.9821  -4.9776
    -4.9776  -4.9704  -4.9704  -4.9683  -4.9643  -4.9643  -4.9615  -4.9543
    -4.9469  -4.9469  -4.9404  -4.9404  -4.9364  -4.9313  -4.9313  -4.9275
    -4.9272  -4.9272  -4.9223  -4.9223  -4.9164  -4.9149  -4.9105  -4.9105
    -4.9026  -4.9026  -4.9012  -4.8973  -4.8968  -4.8912  -4.8912  -4.8836
    -4.8807  -4.8807  -4.8782  -4.8782  -4.8727  -4.8708  -4.8708  -4.8688
    -4.8688  -4.8687  -4.8536  -4.8516  -4.8516  -4.8512  -4.8494  -4.8494
    -4.8473  -4.8473  -4.8286  -4.8272  -4.8272  -4.8260  -4.8254  -4.8254
    -4.8184  -4.8184  -4.8156  -4.8156  -4.8104  -4.8072  -4.8062  -4.8062
    -4.8028  -4.8004  -4.7990  -4.7990  -4.7925  -4.7884  -4.7884  -4.7876
    -4.7818  -4.7731  -4.7731  -4.7638  -4.7623  -4.7623  -4.7579  -4.7579
    -4.7575  -4.7481  -4.7481  -4.7407  -4.7407  -4.7294  -4.7173  -4.7173
    -4.7170  -4.7068  -4.7068  -4.7000  -4.6916  -4.6916  -4.6874  -4.6804
    -4.6804  -4.6754  -4.6754  -4.6581  -4.6581  -4.6528  -4.6485  -4.6485
    -4.6349  -4.6349  -4.5899  -4.5464  -4.2941  -4.2941  -4.2241  -4.2240
    -4.1692  -4.1447  -3.7900  -3.7899  -3.7521  -3.7318  -3.7318  -3.7094
    -3.7093  -3.5805  -3.5703  -3.5703  -3.5592  -3.4522  -3.2843  -3.1183
    -2.9840  -2.9840  -2.8598  -2.8598  -2.8390  -2.7960  -2.7680  -2.7680
    -2.7598  -2.7430  -2.7430  -2.6647  -0.3250   2.2297   2.9214   2.9215
     2.9273   3.0238   3.0993   3.1296   3.1296   3.2180   3.2180   3.2965
     3.5738   3.5739   3.5843   3.6254   3.6254   3.6627   3.6627   3.6657
     3.6898   3.6898   3.7106   3.7227   3.7227   3.7375   3.7881   4.0525
     4.0526   4.0893   4.3438   4.3649   4.3649   4.3985   4.3985   4.6155
     5.0714   5.0715   5.0861   5.0861   5.1244   5.1265   5.1266   5.1540
     5.1541   5.1655   5.1945   5.7100   6.1166   6.1521   6.1521   6.2885
     6.3998   6.3998   6.5621   6.6926   6.6926   6.7134   6.7450   6.7450
     6.8970   6.9129   6.9129   6.9272   6.9272   6.9356   6.9356   7.0548
     7.0548   7.0690   7.1134   7.2170   7.2757   7.2892   7.3221   7.3221
     7.3586   7.4316   7.4317   7.4835   7.4835   7.4975   7.5274   7.5353
     7.5353   7.5970   7.6470   7.6471   7.6890   7.6890   7.7986   7.7986
     7.8945   7.9679   7.9680   8.1208   8.2548   8.2662   8.2662   8.3361
     8.3362   8.4444   8.4445   8.4684   8.8385   8.8386   9.1534   9.3815
     9.3816  10.6977  12.8312  12.9375  12.9572  13.3874  13.3875  13.5322
    13.5322  13.6030  13.6464  13.6903  13.6904  13.7305  13.7306  13.7554
    13.7555  13.7642  13.8239  13.8239  13.8277  13.9825  14.3821  14.4096
    14.4096  14.4576  14.4576  14.5296  14.5677  14.5678  14.9003  15.0533
    15.0533  15.0915  15.5716  15.5716  15.7437  15.7684  15.7685  15.9323
    16.0881  16.1826  16.1831  16.1831  16.2187  16.2850  16.2850  16.3035
    16.3833  16.3909  16.3909  16.4351  16.4351  16.4618  16.4618  16.5006
    16.5006  16.7147  16.7672  16.7672  16.9634  17.0757  17.0757  17.1116

     occupation numbers 
     1.0000   1.0000   1.0000   1.0000   1.0000   1.0000   1.0000   1.0000
     1.0000   1.0000   1.0000   1.0000   1.0000   1.0000   1.0000   1.0000
     1.0000   1.0000   1.0000   1.0000   1.0000   1.0000   1.0000   1.0000
     1.0000   1.0000   1.0000   1.0000   1.0000   1.0000   1.0000   1.0000
     1.0000   1.0000   1.0000   1.0000   1.0000   1.0000   1.0000   1.0000
     1.0000   1.0000   1.0000   1.0000   1.0000   1.0000   1.0000   1.0000
     1.0000   1.0000   1.0000   1.0000   1.0000   1.0000   1.0000   1.0000
     1.0000   1.0000   1.0000   1.0000   1.0000   1.0000   1.0000   1.0000
     1.0000   1.0000   1.0000   1.0000   1.0000   1.0000   1.0000   1.0000
     1.0000   1.0000   1.0000   1.0000   1.0000   1.0000   1.0000   1.0000
     1.0000   1.0000   1.0000   1.0000   1.0000   1.0000   1.0000   1.0000
     1.0000   1.0000   1.0000   1.0000   1.0000   1.0000   1.0000   1.0000
     1.0000   1.0000   1.0000   1.0000   1.0000   1.0000   1.0000   1.0000
     1.0000   1.0000   1.0000   1.0000   1.0000   1.0000   1.0000   1.0000
     1.0000   1.0000   1.0000   1.0000   1.0000   1.0000   1.0000   1.0000
     1.0000   1.0000   1.0000   1.0000   1.0000   1.0000   1.0000   1.0000
     1.0000   1.0000   1.0000   1.0000   1.0000   1.0000   1.0000   1.0000
     1.0000   1.0000   1.0000   1.0000   1.0000   1.0000   1.0000   1.0000
     1.0000   1.0000   1.0000   1.0000   1.0000   1.0000   1.0000   1.0000
     1.0000   1.0000   1.0000   1.0000   1.0000   1.0000   1.0000   1.0000
     1.0000   1.0000   1.0000   1.0000   1.0000   1.0000   1.0000   1.0000
     1.0000   1.0000   1.0000   1.0000   1.0000   1.0000   1.0000   1.0000
     1.0000   1.0000   1.0000   1.0000   1.0000   1.0000   1.0000   1.0000
     1.0000   1.0000   1.0000   1.0000   1.0000   1.0000   1.0000   1.0000
     1.0000   1.0000   1.0000   1.0000   1.0000   1.0000   1.0000   1.0000
     1.0000   1.0000   1.0000   1.0000   1.0000   1.0000   1.0000   1.0000
     1.0000   1.0000   1.0000   1.0000   1.0000   1.0000   1.0000   1.0000
     1.0000   1.0000   1.0000   1.0000   1.0000   1.0000   1.0000   1.0000
     1.0000   1.0000   1.0000   1.0000   1.0000   1.0000   1.0000   1.0000
     1.0000   1.0000   1.0000   1.0000   1.0000   1.0000   1.0000   1.0000
     1.0000   1.0000   1.0000   1.0000   1.0000   1.0000   1.0000   1.0000
     1.0000   1.0000   1.0000   1.0000   1.0000   1.0000   1.0000   1.0000
     1.0000   1.0000   1.0000   1.0000   1.0000   1.0000   1.0000   1.0000
     1.0000   1.0000   1.0000   1.0000   1.0000   1.0000   1.0000   1.0000
     1.0000   1.0000   1.0000   1.0000   1.0000   1.0000   1.0000   1.0000
     1.0000   1.0000   1.0000   1.0000   1.0000   1.0000   1.0000   1.0000
     1.0000   1.0000   1.0000   1.0000   1.0000   1.0000   1.0000   1.0000
     1.0000   1.0000   1.0000   1.0000   1.0000   1.0000   1.0000   1.0000
     1.0000   1.0000   1.0000   1.0000   1.0000   1.0000   1.0000   1.0000
     1.0000   1.0000   1.0000   1.0000   1.0000   1.0000   1.0000   1.0000
     1.0000   1.0000   1.0000   0.9999   0.5053   0.5050   0.0006   0.0000
     0.0000   0.0000   0.0000   0.0000   0.0000   0.0000   0.0000   0.0000
     0.0000   0.0000   0.0000   0.0000   0.0000   0.0000   0.0000   0.0000
     0.0000   0.0000   0.0000   0.0000   0.0000   0.0000   0.0000   0.0000
     0.0000   0.0000   0.0000   0.0000   0.0000   0.0000   0.0000   0.0000
     0.0000   0.0000   0.0000   0.0000   0.0000   0.0000   0.0000   0.0000
     0.0000   0.0000   0.0000   0.0000   0.0000   0.0000   0.0000   0.0000
     0.0000   0.0000   0.0000   0.0000   0.0000   0.0000   0.0000   0.0000
     0.0000   0.0000   0.0000   0.0000   0.0000   0.0000   0.0000   0.0000

          k = 0.0000 0.0000-0.4602 ( 58014 PWs)   bands (ev):

    -8.0043  -7.9636  -7.9636  -7.6692  -7.6692  -6.6997  -6.6134  -6.5777
    -6.5777  -6.5288  -6.5288  -6.5113  -6.4679  -6.4673  -6.4673  -6.4142
    -6.4142  -6.3299  -6.2929  -6.1893  -6.1745  -6.1445  -6.1345  -6.1345
    -6.1248  -6.1077  -6.0992  -6.0992  -6.0935  -6.0867  -6.0867  -6.0629
    -6.0554  -6.0554  -6.0521  -6.0443  -6.0443  -6.0325  -6.0325  -5.9960
    -5.9806  -5.9382  -5.9382  -5.9225  -5.8033  -5.8033  -5.7492  -5.6608
    -5.6608  -5.5469  -5.5441  -5.5441  -5.4933  -5.4933  -5.4823  -5.4738
    -5.4738  -5.4598  -5.4335  -5.4335  -5.0577  -5.0562  -5.0562  -5.0490
    -5.0490  -5.0342  -5.0342  -5.0167  -5.0147  -5.0147  -5.0142  -5.0119
    -5.0119  -5.0034  -4.9962  -4.9962  -4.9881  -4.9881  -4.9776  -4.9776
    -4.9701  -4.9679  -4.9679  -4.9658  -4.9652  -4.9652  -4.9550  -4.9540
    -4.9523  -4.9523  -4.9461  -4.9451  -4.9451  -4.9331  -4.9325  -4.9325
    -4.9314  -4.9242  -4.9242  -4.9216  -4.9161  -4.9161  -4.9123  -4.9123
    -4.9020  -4.9015  -4.9015  -4.8981  -4.8930  -4.8917  -4.8917  -4.8884
    -4.8824  -4.8824  -4.8804  -4.8800  -4.8800  -4.8786  -4.8786  -4.8670
    -4.8670  -4.8617  -4.8593  -4.8581  -4.8578  -4.8578  -4.8495  -4.8407
    -4.8407  -4.8388  -4.8388  -4.8383  -4.8383  -4.8302  -4.8289  -4.8223
    -4.8223  -4.8147  -4.8147  -4.8113  -4.8113  -4.8091  -4.8065  -4.8058
    -4.8023  -4.8023  -4.7991  -4.7991  -4.7961  -4.7961  -4.7920  -4.7920
    -4.7905  -4.7732  -4.7727  -4.7727  -4.7640  -4.7640  -4.7598  -4.7598
    -4.7576  -4.7474  -4.7458  -4.7458  -4.7391  -4.7391  -4.7301  -4.7167
    -4.7167  -4.7167  -4.7073  -4.7073  -4.6968  -4.6927  -4.6927  -4.6874
    -4.6816  -4.6816  -4.6731  -4.6731  -4.6559  -4.6559  -4.6531  -4.6492
    -4.6492  -4.6377  -4.6377  -4.2263  -4.2262  -4.1558  -4.1558  -4.1061
    -4.0944  -4.0944  -4.0523  -4.0321  -3.9960  -3.9960  -3.9704  -3.7849
    -3.7546  -3.2880  -3.2880  -3.1272  -3.1272  -3.1205  -3.1205  -3.1183
    -3.1113  -3.0096  -2.9923  -2.9923  -2.9855  -2.9457  -2.8524  -2.8524
    -2.8375  -2.8375  -2.7960  -2.7669  -0.3758   2.8891   3.0081   3.0081
     3.1300   3.1765   3.1896   3.1896   3.2026   3.2027   3.2417   3.2437
     3.2437   3.2644   3.2645   3.2983   3.2996   3.3514   3.3530   3.3982
     3.4197   3.4197   3.5666   4.2530   4.2530   4.3201   4.3201   4.3381
     4.3381   4.3629   4.3722   4.3722   4.3827   4.4037   4.4038   4.4670
     4.4670   4.4826   5.0406   5.3964   5.3964   5.4181   5.4707   5.4707
     5.4982   5.4982   5.5375   5.5534   5.5534   5.5820   5.6752   5.9136
     5.9136   6.0210   6.0210   6.6472   6.7273   6.8024   6.8024   6.8324
     6.8636   6.8636   6.8815   6.8815   6.8969   6.9109   6.9109   6.9497
     6.9765   6.9914   7.0098   7.0099   7.0112   7.0526   7.0526   7.4780
     7.5465   7.7090   7.7090   7.7564   7.7970   7.8004   7.8004   7.8080
     7.8081   7.8604   7.8604   7.9313   7.9314   7.9338   7.9449   7.9561
     7.9567   7.9568   7.9619   7.9935   7.9936   8.0613   8.0613   8.0655
     8.1607   8.1608   8.5378   8.5378   8.8185   8.8409   8.8410   9.3647
     9.3649  11.8748  11.8970  12.8659  13.0607  13.0910  13.0911  13.1224
    13.1224  13.2555  13.2775  13.3074  13.3074  13.3303  13.3303  13.3343
    14.0074  14.3101  14.3101  14.5113  14.5299  14.5300  14.5608  14.5609
    14.6362  14.6363  14.6435  14.7578  14.9841  14.9841  15.1744  15.2393
    15.2393  15.6215  15.6215  15.6608  15.7656  15.7809  15.7886  15.7886
    15.8694  15.8694  15.9033  15.9184  15.9381  15.9500  15.9500  15.9692
    15.9692  16.2008  16.2008  16.4212  16.7383  16.7383  16.7406  16.7558
    16.8199  16.8317  16.8317  16.8614  16.8614  16.8785  16.9981  16.9981

     occupation numbers 
     1.0000   1.0000   1.0000   1.0000   1.0000   1.0000   1.0000   1.0000
     1.0000   1.0000   1.0000   1.0000   1.0000   1.0000   1.0000   1.0000
     1.0000   1.0000   1.0000   1.0000   1.0000   1.0000   1.0000   1.0000
     1.0000   1.0000   1.0000   1.0000   1.0000   1.0000   1.0000   1.0000
     1.0000   1.0000   1.0000   1.0000   1.0000   1.0000   1.0000   1.0000
     1.0000   1.0000   1.0000   1.0000   1.0000   1.0000   1.0000   1.0000
     1.0000   1.0000   1.0000   1.0000   1.0000   1.0000   1.0000   1.0000
     1.0000   1.0000   1.0000   1.0000   1.0000   1.0000   1.0000   1.0000
     1.0000   1.0000   1.0000   1.0000   1.0000   1.0000   1.0000   1.0000
     1.0000   1.0000   1.0000   1.0000   1.0000   1.0000   1.0000   1.0000
     1.0000   1.0000   1.0000   1.0000   1.0000   1.0000   1.0000   1.0000
     1.0000   1.0000   1.0000   1.0000   1.0000   1.0000   1.0000   1.0000
     1.0000   1.0000   1.0000   1.0000   1.0000   1.0000   1.0000   1.0000
     1.0000   1.0000   1.0000   1.0000   1.0000   1.0000   1.0000   1.0000
     1.0000   1.0000   1.0000   1.0000   1.0000   1.0000   1.0000   1.0000
     1.0000   1.0000   1.0000   1.0000   1.0000   1.0000   1.0000   1.0000
     1.0000   1.0000   1.0000   1.0000   1.0000   1.0000   1.0000   1.0000
     1.0000   1.0000   1.0000   1.0000   1.0000   1.0000   1.0000   1.0000
     1.0000   1.0000   1.0000   1.0000   1.0000   1.0000   1.0000   1.0000
     1.0000   1.0000   1.0000   1.0000   1.0000   1.0000   1.0000   1.0000
     1.0000   1.0000   1.0000   1.0000   1.0000   1.0000   1.0000   1.0000
     1.0000   1.0000   1.0000   1.0000   1.0000   1.0000   1.0000   1.0000
     1.0000   1.0000   1.0000   1.0000   1.0000   1.0000   1.0000   1.0000
     1.0000   1.0000   1.0000   1.0000   1.0000   1.0000   1.0000   1.0000
     1.0000   1.0000   1.0000   1.0000   1.0000   1.0000   1.0000   1.0000
     1.0000   1.0000   1.0000   1.0000   1.0000   1.0000   1.0000   1.0000
     1.0000   1.0000   1.0000   1.0000   1.0000   1.0000   1.0000   1.0000
     1.0000   1.0000   1.0000   1.0000   1.0000   1.0000   1.0000   1.0000
     1.0000   1.0000   1.0000   1.0000   1.0000   1.0000   1.0000   1.0000
     1.0000   1.0000   1.0000   1.0000   1.0000   1.0000   1.0000   1.0000
     1.0000   1.0000   1.0000   1.0000   1.0000   1.0000   1.0000   1.0000
     1.0000   1.0000   1.0000   1.0000   1.0000   1.0000   1.0000   1.0000
     1.0000   1.0000   1.0000   1.0000   1.0000   1.0000   1.0000   1.0000
     1.0000   1.0000   1.0000   1.0000   1.0000   1.0000   1.0000   1.0000
     1.0000   1.0000   1.0000   1.0000   1.0000   1.0000   1.0000   1.0000
     1.0000   1.0000   1.0000   1.0000   1.0000   1.0000   1.0000   1.0000
     1.0000   1.0000   1.0000   1.0000   1.0000   1.0000   1.0000   1.0000
     1.0000   1.0000   1.0000   1.0000   1.0000   1.0000   1.0000   1.0000
     1.0000   1.0000   1.0000   1.0000   1.0000   1.0000   1.0000   1.0000
     1.0000   1.0000   1.0000   1.0000   1.0000   1.0000   1.0000   1.0000
     1.0000   1.0000   0.9992   0.9992   0.5877   0.4954   0.4951   0.0000
     0.0000   0.0000   0.0000   0.0000   0.0000   0.0000   0.0000   0.0000
     0.0000   0.0000   0.0000   0.0000   0.0000   0.0000   0.0000   0.0000
     0.0000   0.0000   0.0000   0.0000   0.0000   0.0000   0.0000   0.0000
     0.0000   0.0000   0.0000   0.0000   0.0000   0.0000   0.0000   0.0000
     0.0000   0.0000   0.0000   0.0000   0.0000   0.0000   0.0000   0.0000
     0.0000   0.0000   0.0000   0.0000   0.0000   0.0000   0.0000   0.0000
     0.0000   0.0000   0.0000   0.0000   0.0000   0.0000   0.0000   0.0000
     0.0000   0.0000   0.0000   0.0000   0.0000   0.0000   0.0000   0.0000

          k = 0.0000-0.5774 0.0000 ( 57942 PWs)   bands (ev):

    -8.0044  -7.9636  -7.9635  -7.6692  -7.6690  -6.6538  -6.6368  -6.5888
    -6.5605  -6.5435  -6.5240  -6.4888  -6.4752  -6.4632  -6.4537  -6.4366
    -6.4051  -6.3183  -6.2710  -6.2100  -6.1841  -6.1512  -6.1474  -6.1319
    -6.1287  -6.1101  -6.0971  -6.0965  -6.0899  -6.0773  -6.0728  -6.0695
    -6.0631  -6.0546  -6.0519  -6.0470  -6.0464  -6.0293  -6.0241  -5.9950
    -5.9828  -5.9409  -5.9397  -5.9202  -5.8020  -5.8015  -5.7479  -5.6607
    -5.6599  -5.5517  -5.5483  -5.5435  -5.4975  -5.4893  -5.4783  -5.4736
    -5.4663  -5.4609  -5.4499  -5.4400  -5.0624  -5.0509  -5.0498  -5.0450
    -5.0442  -5.0341  -5.0302  -5.0262  -5.0211  -5.0181  -5.0109  -5.0102
    -5.0047  -5.0019  -4.9985  -4.9978  -4.9910  -4.9861  -4.9836  -4.9790
    -4.9765  -4.9763  -4.9713  -4.9667  -4.9658  -4.9578  -4.9558  -4.9550
    -4.9447  -4.9446  -4.9443  -4.9421  -4.9374  -4.9353  -4.9324  -4.9293
    -4.9290  -4.9235  -4.9197  -4.9191  -4.9187  -4.9180  -4.9176  -4.9126
    -4.9094  -4.9064  -4.9039  -4.8954  -4.8953  -4.8915  -4.8912  -4.8885
    -4.8849  -4.8794  -4.8790  -4.8778  -4.8731  -4.8693  -4.8685  -4.8670
    -4.8646  -4.8645  -4.8614  -4.8599  -4.8566  -4.8520  -4.8486  -4.8482
    -4.8457  -4.8447  -4.8413  -4.8401  -4.8338  -4.8330  -4.8309  -4.8281
    -4.8276  -4.8244  -4.8232  -4.8213  -4.8166  -4.8150  -4.8146  -4.8121
    -4.8079  -4.8066  -4.8036  -4.7981  -4.7965  -4.7932  -4.7902  -4.7831
    -4.7801  -4.7761  -4.7742  -4.7730  -4.7686  -4.7648  -4.7647  -4.7552
    -4.7549  -4.7480  -4.7402  -4.7400  -4.7359  -4.7309  -4.7307  -4.7176
    -4.7106  -4.7092  -4.7038  -4.7026  -4.6926  -4.6919  -4.6883  -4.6878
    -4.6868  -4.6801  -4.6747  -4.6679  -4.6618  -4.6615  -4.6565  -4.6522
    -4.6445  -4.6399  -4.6338  -4.4692  -4.4308  -4.3857  -4.3401  -4.2970
    -4.2922  -3.9224  -3.8937  -3.8576  -3.8170  -3.6541  -3.5951  -3.5832
    -3.4729  -3.4095  -3.3160  -3.2481  -3.2435  -3.2194  -3.2187  -3.1780
    -3.1346  -3.1102  -3.0850  -3.0736  -3.0717  -2.9033  -2.8907  -2.8485
    -2.7198  -2.6650  -2.6453  -2.6427  -0.3081   2.4670   2.5008   2.6357
     2.6697   2.8075   2.8250   2.9238   2.9434   3.0240   3.0309   3.0521
     3.0668   3.1202   3.1490   3.1599   3.1835   3.2266   3.2328   3.2892
     3.8291   3.9949   4.0476   4.0532   4.0898   4.2088   4.2143   4.2404
     4.4631   4.9347   4.9363   4.9651   5.0042   5.0289   5.0369   5.0512
     5.0789   5.1075   5.1738   5.2436   5.3865   5.5256   5.5565   5.5619
     5.5742   5.6875   6.0152   6.0519   6.0645   6.1058   6.1134   6.1314
     6.1378   6.1881   6.3865   6.3915   6.4105   6.5565   6.6742   6.8777
     6.9130   6.9242   6.9408   6.9631   6.9876   7.0657   7.0882   7.1012
     7.1044   7.1161   7.1205   7.1494   7.1612   7.1906   7.2076   7.2213
     7.2440   7.2598   7.3033   7.3105   7.3269   7.3353   7.3634   7.3648
     7.3722   7.3980   7.4061   7.4309   7.4430   7.4502   7.4922   7.4966
     7.5204   7.6329   7.7404   7.8461   7.9493   7.9949   8.0013   8.0546
     8.0703   8.1402   8.3517   8.4682   8.5464   8.6643   8.7305   9.0856
     9.2348  12.1856  12.2264  13.2800  13.2893  13.5501  13.6307  13.7885
    13.8246  13.8378  13.9136  13.9760  14.0007  14.1059  14.1633  14.1775
    14.1826  14.2379  14.2847  14.3456  14.3515  14.4168  14.4271  14.4438
    14.4777  14.5768  14.7852  14.8738  14.8791  14.8876  14.9499  15.0671
    15.0924  15.1237  15.2225  15.3969  15.4237  15.5200  15.5437  15.6356
    15.7506  16.1390  16.1901  16.2141  16.3102  16.3705  16.3806  16.4116
    16.4713  16.5000  16.5228  16.5467  16.5473  16.6085  16.6307  16.6718
    16.6817  16.6846  16.6962  16.7541  16.7760  16.8272  16.8362  16.8959

     occupation numbers 
     1.0000   1.0000   1.0000   1.0000   1.0000   1.0000   1.0000   1.0000
     1.0000   1.0000   1.0000   1.0000   1.0000   1.0000   1.0000   1.0000
     1.0000   1.0000   1.0000   1.0000   1.0000   1.0000   1.0000   1.0000
     1.0000   1.0000   1.0000   1.0000   1.0000   1.0000   1.0000   1.0000
     1.0000   1.0000   1.0000   1.0000   1.0000   1.0000   1.0000   1.0000
     1.0000   1.0000   1.0000   1.0000   1.0000   1.0000   1.0000   1.0000
     1.0000   1.0000   1.0000   1.0000   1.0000   1.0000   1.0000   1.0000
     1.0000   1.0000   1.0000   1.0000   1.0000   1.0000   1.0000   1.0000
     1.0000   1.0000   1.0000   1.0000   1.0000   1.0000   1.0000   1.0000
     1.0000   1.0000   1.0000   1.0000   1.0000   1.0000   1.0000   1.0000
     1.0000   1.0000   1.0000   1.0000   1.0000   1.0000   1.0000   1.0000
     1.0000   1.0000   1.0000   1.0000   1.0000   1.0000   1.0000   1.0000
     1.0000   1.0000   1.0000   1.0000   1.0000   1.0000   1.0000   1.0000
     1.0000   1.0000   1.0000   1.0000   1.0000   1.0000   1.0000   1.0000
     1.0000   1.0000   1.0000   1.0000   1.0000   1.0000   1.0000   1.0000
     1.0000   1.0000   1.0000   1.0000   1.0000   1.0000   1.0000   1.0000
     1.0000   1.0000   1.0000   1.0000   1.0000   1.0000   1.0000   1.0000
     1.0000   1.0000   1.0000   1.0000   1.0000   1.0000   1.0000   1.0000
     1.0000   1.0000   1.0000   1.0000   1.0000   1.0000   1.0000   1.0000
     1.0000   1.0000   1.0000   1.0000   1.0000   1.0000   1.0000   1.0000
     1.0000   1.0000   1.0000   1.0000   1.0000   1.0000   1.0000   1.0000
     1.0000   1.0000   1.0000   1.0000   1.0000   1.0000   1.0000   1.0000
     1.0000   1.0000   1.0000   1.0000   1.0000   1.0000   1.0000   1.0000
     1.0000   1.0000   1.0000   1.0000   1.0000   1.0000   1.0000   1.0000
     1.0000   1.0000   1.0000   1.0000   1.0000   1.0000   1.0000   1.0000
     1.0000   1.0000   1.0000   1.0000   1.0000   1.0000   1.0000   1.0000
     1.0000   1.0000   1.0000   1.0000   1.0000   1.0000   1.0000   1.0000
     1.0000   1.0000   1.0000   1.0000   1.0000   1.0000   1.0000   1.0000
     1.0000   1.0000   1.0000   1.0000   1.0000   1.0000   1.0000   1.0000
     1.0000   1.0000   1.0000   1.0000   1.0000   1.0000   1.0000   1.0000
     1.0000   1.0000   1.0000   1.0000   1.0000   1.0000   1.0000   1.0000
     1.0000   1.0000   1.0000   1.0000   1.0000   1.0000   1.0000   1.0000
     1.0000   1.0000   1.0000   1.0000   1.0000   1.0000   1.0000   1.0000
     1.0000   1.0000   1.0000   1.0000   1.0000   1.0000   1.0000   1.0000
     1.0000   1.0000   1.0000   1.0000   1.0000   1.0000   1.0000   1.0000
     1.0000   1.0000   1.0000   1.0000   1.0000   1.0000   1.0000   1.0000
     1.0000   1.0000   1.0000   1.0000   1.0000   1.0000   1.0000   1.0000
     1.0000   1.0000   1.0000   1.0000   1.0000   1.0000   1.0000   1.0000
     1.0000   1.0000   1.0000   1.0000   1.0000   1.0000   1.0000   1.0000
     1.0000   1.0000   1.0000   1.0000   1.0000   1.0000   1.0000   1.0000
     1.0000   1.0000   1.0000   0.9999   0.9989   0.9660   0.8720   0.0053
     0.0000   0.0000   0.0000   0.0000   0.0000   0.0000   0.0000   0.0000
     0.0000   0.0000   0.0000   0.0000   0.0000   0.0000   0.0000   0.0000
     0.0000   0.0000   0.0000   0.0000   0.0000   0.0000   0.0000   0.0000
     0.0000   0.0000   0.0000   0.0000   0.0000   0.0000   0.0000   0.0000
     0.0000   0.0000   0.0000   0.0000   0.0000   0.0000   0.0000   0.0000
     0.0000   0.0000   0.0000   0.0000   0.0000   0.0000   0.0000   0.0000
     0.0000   0.0000   0.0000   0.0000   0.0000   0.0000   0.0000   0.0000
     0.0000   0.0000   0.0000   0.0000   0.0000   0.0000   0.0000   0.0000

          k = 0.0000-0.5774-0.4602 ( 57848 PWs)   bands (ev):

    -8.0042  -7.9636  -7.9635  -7.6692  -7.6690  -6.6181  -6.6147  -6.5813
    -6.5690  -6.5513  -6.5216  -6.4886  -6.4817  -6.4776  -6.4583  -6.4495
    -6.4076  -6.2766  -6.2641  -6.2308  -6.1953  -6.1757  -6.1582  -6.1414
    -6.1191  -6.1056  -6.0941  -6.0887  -6.0881  -6.0803  -6.0789  -6.0668
    -6.0655  -6.0555  -6.0524  -6.0483  -6.0450  -6.0364  -6.0321  -5.9951
    -5.9824  -5.9400  -5.9388  -5.9216  -5.8024  -5.8019  -5.7476  -5.6604
    -5.6597  -5.5486  -5.5466  -5.5455  -5.4970  -5.4904  -5.4784  -5.4764
    -5.4667  -5.4629  -5.4507  -5.4400  -5.0598  -5.0487  -5.0479  -5.0475
    -5.0466  -5.0332  -5.0316  -5.0278  -5.0216  -5.0164  -5.0098  -5.0078
    -5.0026  -4.9990  -4.9968  -4.9932  -4.9904  -4.9880  -4.9822  -4.9820
    -4.9785  -4.9743  -4.9712  -4.9662  -4.9650  -4.9570  -4.9553  -4.9472
    -4.9465  -4.9453  -4.9433  -4.9401  -4.9380  -4.9371  -4.9367  -4.9339
    -4.9322  -4.9294  -4.9286  -4.9230  -4.9215  -4.9208  -4.9171  -4.9087
    -4.9082  -4.9079  -4.8990  -4.8971  -4.8954  -4.8903  -4.8902  -4.8885
    -4.8879  -4.8856  -4.8791  -4.8755  -4.8744  -4.8691  -4.8672  -4.8642
    -4.8626  -4.8584  -4.8571  -4.8567  -4.8532  -4.8530  -4.8476  -4.8447
    -4.8414  -4.8413  -4.8374  -4.8364  -4.8361  -4.8335  -4.8291  -4.8290
    -4.8266  -4.8242  -4.8231  -4.8177  -4.8152  -4.8148  -4.8101  -4.8084
    -4.8077  -4.8016  -4.8002  -4.7964  -4.7945  -4.7925  -4.7875  -4.7848
    -4.7814  -4.7766  -4.7666  -4.7636  -4.7636  -4.7605  -4.7567  -4.7525
    -4.7508  -4.7496  -4.7433  -4.7388  -4.7384  -4.7347  -4.7308  -4.7223
    -4.7153  -4.7096  -4.7047  -4.7043  -4.7035  -4.6929  -4.6929  -4.6884
    -4.6800  -4.6784  -4.6764  -4.6691  -4.6671  -4.6645  -4.6619  -4.6582
    -4.6525  -4.6499  -4.6437  -4.6394  -4.6370  -4.3963  -4.3017  -4.2708
    -4.2644  -3.7186  -3.6464  -3.6306  -3.6148  -3.5558  -3.5510  -3.5270
    -3.4791  -3.4375  -3.4180  -3.3827  -3.3563  -3.3200  -3.2927  -3.2738
    -3.1596  -3.1528  -3.0862  -2.9824  -2.9218  -2.8947  -2.8638  -2.8392
    -2.8258  -2.7671  -2.7503  -2.7454  -0.3516   2.4104   2.5552   2.7435
     2.7759   2.8609   2.9075   2.9338   2.9458   3.0063   3.0136   3.2399
     3.2728   3.3530   3.4084   3.4286   3.4517   3.4907   3.5093   3.5135
     3.5532   3.5728   3.6085   3.6219   3.6509   3.6645   3.7096   3.7201
     3.9861   4.9859   5.0460   5.0477   5.1960   5.3403   5.3468   5.3976
     5.4303   5.4513   5.4547   5.4837   5.5228   5.6583   5.7103   5.7683
     5.7886   5.8418   5.8795   6.0428   6.1000   6.1241   6.1411   6.1488
     6.1904   6.1972   6.2319   6.4005   6.4067   6.4795   6.5056   6.5289
     6.5367   6.6239   6.6565   6.6813   6.6890   6.7184   6.8005   6.8121
     6.8179   6.8572   6.8808   6.8972   6.9004   6.9406   6.9772   6.9930
     7.1146   7.3244   7.3938   7.4043   7.4701   7.5163   7.5323   7.5595
     7.5608   7.5667   7.6056   7.6245   7.6265   7.6458   7.7317   7.7555
     7.7587   7.7770   7.8067   7.9333   7.9952   8.0038   8.1270   8.1751
     8.2239   8.2697   8.2896   8.4719   8.5208   8.5993   8.7290   8.9667
     9.2168  12.6949  12.7697  12.7757  12.8396  13.1816  13.2183  13.5670
    13.6429  13.7178  13.7306  13.9264  13.9715  14.0205  14.0320  14.0914
    14.1216  14.1398  14.1504  14.1792  14.1919  14.2647  14.2799  14.4708
    14.8814  15.0856  15.2307  15.2327  15.3013  15.3287  15.3323  15.3737
    15.3835  15.4280  15.4437  15.4957  15.7968  15.8285  15.8781  15.9185
    15.9916  16.0328  16.0475  16.0583  16.1169  16.1258  16.1554  16.2660
    16.2769  16.3254  16.4604  16.5087  16.5113  16.5918  16.6179  16.6470
    16.6829  16.7011  16.7197  16.7350  16.7514  16.7637  16.7690  16.7877

     occupation numbers 
     1.0000   1.0000   1.0000   1.0000   1.0000   1.0000   1.0000   1.0000
     1.0000   1.0000   1.0000   1.0000   1.0000   1.0000   1.0000   1.0000
     1.0000   1.0000   1.0000   1.0000   1.0000   1.0000   1.0000   1.0000
     1.0000   1.0000   1.0000   1.0000   1.0000   1.0000   1.0000   1.0000
     1.0000   1.0000   1.0000   1.0000   1.0000   1.0000   1.0000   1.0000
     1.0000   1.0000   1.0000   1.0000   1.0000   1.0000   1.0000   1.0000
     1.0000   1.0000   1.0000   1.0000   1.0000   1.0000   1.0000   1.0000
     1.0000   1.0000   1.0000   1.0000   1.0000   1.0000   1.0000   1.0000
     1.0000   1.0000   1.0000   1.0000   1.0000   1.0000   1.0000   1.0000
     1.0000   1.0000   1.0000   1.0000   1.0000   1.0000   1.0000   1.0000
     1.0000   1.0000   1.0000   1.0000   1.0000   1.0000   1.0000   1.0000
     1.0000   1.0000   1.0000   1.0000   1.0000   1.0000   1.0000   1.0000
     1.0000   1.0000   1.0000   1.0000   1.0000   1.0000   1.0000   1.0000
     1.0000   1.0000   1.0000   1.0000   1.0000   1.0000   1.0000   1.0000
     1.0000   1.0000   1.0000   1.0000   1.0000   1.0000   1.0000   1.0000
     1.0000   1.0000   1.0000   1.0000   1.0000   1.0000   1.0000   1.0000
     1.0000   1.0000   1.0000   1.0000   1.0000   1.0000   1.0000   1.0000
     1.0000   1.0000   1.0000   1.0000   1.0000   1.0000   1.0000   1.0000
     1.0000   1.0000   1.0000   1.0000   1.0000   1.0000   1.0000   1.0000
     1.0000   1.0000   1.0000   1.0000   1.0000   1.0000   1.0000   1.0000
     1.0000   1.0000   1.0000   1.0000   1.0000   1.0000   1.0000   1.0000
     1.0000   1.0000   1.0000   1.0000   1.0000   1.0000   1.0000   1.0000
     1.0000   1.0000   1.0000   1.0000   1.0000   1.0000   1.0000   1.0000
     1.0000   1.0000   1.0000   1.0000   1.0000   1.0000   1.0000   1.0000
     1.0000   1.0000   1.0000   1.0000   1.0000   1.0000   1.0000   1.0000
     1.0000   1.0000   1.0000   1.0000   1.0000   1.0000   1.0000   1.0000
     1.0000   1.0000   1.0000   1.0000   1.0000   1.0000   1.0000   1.0000
     1.0000   1.0000   1.0000   1.0000   1.0000   1.0000   1.0000   1.0000
     1.0000   1.0000   1.0000   1.0000   1.0000   1.0000   1.0000   1.0000
     1.0000   1.0000   1.0000   1.0000   1.0000   1.0000   1.0000   1.0000
     1.0000   1.0000   1.0000   1.0000   1.0000   1.0000   1.0000   1.0000
     1.0000   1.0000   1.0000   1.0000   1.0000   1.0000   1.0000   1.0000
     1.0000   1.0000   1.0000   1.0000   1.0000   1.0000   1.0000   1.0000
     1.0000   1.0000   1.0000   1.0000   1.0000   1.0000   1.0000   1.0000
     1.0000   1.0000   1.0000   1.0000   1.0000   1.0000   1.0000   1.0000
     1.0000   1.0000   1.0000   1.0000   1.0000   1.0000   1.0000   1.0000
     1.0000   1.0000   1.0000   1.0000   1.0000   1.0000   1.0000   1.0000
     1.0000   1.0000   1.0000   1.0000   1.0000   1.0000   1.0000   1.0000
     1.0000   1.0000   1.0000   1.0000   1.0000   1.0000   1.0000   1.0000
     1.0000   1.0000   1.0000   1.0000   1.0000   1.0000   1.0000   1.0000
     1.0000   1.0000   1.0000   0.9999   0.9995   0.9938   0.8752   0.0936
     0.0000   0.0000   0.0000   0.0000   0.0000   0.0000   0.0000   0.0000
     0.0000   0.0000   0.0000   0.0000   0.0000   0.0000   0.0000   0.0000
     0.0000   0.0000   0.0000   0.0000   0.0000   0.0000   0.0000   0.0000
     0.0000   0.0000   0.0000   0.0000   0.0000   0.0000   0.0000   0.0000
     0.0000   0.0000   0.0000   0.0000   0.0000   0.0000   0.0000   0.0000
     0.0000   0.0000   0.0000   0.0000   0.0000   0.0000   0.0000   0.0000
     0.0000   0.0000   0.0000   0.0000   0.0000   0.0000   0.0000   0.0000
     0.0000   0.0000   0.0000   0.0000   0.0000   0.0000   0.0000   0.0000

     the Fermi energy is     8.8398 ev

!    total energy              =  -11498.13484472 Ry
     total all-electron energy =   -147919.685242 Ry
     estimated scf accuracy    <          2.6E-10 Ry
     smearing contrib. (-TS)   =      -0.00721753 Ry
     internal energy E=F+TS    =  -11498.12762719 Ry

     The total energy is F=E-TS. E is the sum of the following terms:
     one-electron contribution =   -3489.96037164 Ry
     hartree contribution      =    2435.69530332 Ry
     xc contribution           =   -1669.11174261 Ry
     ewald contribution        =   -4195.30839134 Ry
     one-center paw contrib.   =   -4579.44242492 Ry
      -> PAW hartree energy AE =     147.57271366 Ry
      -> PAW hartree energy PS =    -146.09129958 Ry
      -> PAW xc energy AE      =    -157.13268118 Ry
      -> PAW xc energy PS      =      39.90388807 Ry
      -> total E_H with PAW    =    2437.17671740 Ry
      -> total E_XC with PAW   =   -1786.34053573 Ry

     convergence has been achieved in  25 iterations


     -----------------------------------------------
     Non-local corr. energy    =      19.98535299 Ry
     -----------------------------------------------


     Forces acting on atoms (cartesian axes, Ry/au):

     atom    1 type  1   force =     0.00000000    0.00000000   -0.34515293
     atom    2 type  1   force =     0.00000000    0.00000000    0.02334193
     atom    3 type  1   force =    -0.00083957    0.01346388   -0.00861047
     atom    4 type  1   force =     0.00370046    0.01418764    0.00245672
     atom    5 type  1   force =     0.01124028   -0.00745903   -0.00861047
     atom    6 type  1   force =     0.01413708   -0.00388913    0.00245672
     atom    7 type  1   force =     0.01207985   -0.00600485   -0.00861047
     atom    8 type  1   force =     0.01043662   -0.01029851    0.00245672
     atom    9 type  1   force =     0.00083957    0.01346388   -0.00861047
     atom   10 type  1   force =    -0.00370046    0.01418764    0.00245672
     atom   11 type  1   force =     0.00000000    0.00000000   -0.00247033
     atom   12 type  1   force =     0.00000000    0.00000000    0.00216011
     atom   13 type  1   force =    -0.01207985   -0.00600485   -0.00861047
     atom   14 type  1   force =    -0.01043662   -0.01029851    0.00245672
     atom   15 type  1   force =     0.00000000    0.00000000   -0.00208130
     atom   16 type  1   force =     0.00000000    0.00000000    0.00320410
     atom   17 type  1   force =    -0.01124028   -0.00745903   -0.00861047
     atom   18 type  1   force =    -0.01413708   -0.00388913    0.00245672
     atom   19 type  1   force =    -0.28218975    0.16292233    0.11323120
     atom   20 type  1   force =     0.00119958   -0.00069258   -0.01633612
     atom   21 type  1   force =    -0.01475807   -0.00852058    0.01444081
     atom   22 type  1   force =    -0.00270196   -0.00155998    0.00014369
     atom   23 type  1   force =     0.00000000   -0.32584466    0.11323120
     atom   24 type  1   force =     0.00000000    0.00138516   -0.01633612
     atom   25 type  1   force =     0.28218975    0.16292233    0.11323120
     atom   26 type  1   force =    -0.00119958   -0.00069258   -0.01633612
     atom   27 type  1   force =     0.00000000    0.01276398    0.00883825
     atom   28 type  1   force =     0.00000000    0.00343019    0.00132496
     atom   29 type  1   force =     0.01105393   -0.00638199    0.00883825
     atom   30 type  1   force =     0.00297063   -0.00171509    0.00132496
     atom   31 type  1   force =     0.00000000    0.01704115    0.01444081
     atom   32 type  1   force =     0.00000000    0.00311996    0.00014369
     atom   33 type  1   force =     0.01475807   -0.00852058    0.01444081
     atom   34 type  1   force =     0.00270196   -0.00155998    0.00014369
     atom   35 type  1   force =    -0.01105393   -0.00638199    0.00883825
     atom   36 type  1   force =    -0.00297063   -0.00171509    0.00132496
     atom   37 type  2   force =     0.00000000    0.00000000    0.00073464
     atom   38 type  2   force =     0.00351106   -0.00163270   -0.00374542
     atom   39 type  2   force =     0.00001584   -0.00477787    0.00107617
     atom   40 type  2   force =     0.00034157    0.00385702   -0.00374542
     atom   41 type  2   force =    -0.00412984    0.00240265    0.00107617
     atom   42 type  2   force =    -0.00316949   -0.00222432   -0.00374542
     atom   43 type  2   force =    -0.00414568    0.00237522    0.00107617
     atom   44 type  2   force =    -0.00351106   -0.00163270   -0.00374542
     atom   45 type  2   force =    -0.00001584   -0.00477787    0.00107617
     atom   46 type  2   force =     0.00000000    0.00000000   -0.00008578
     atom   47 type  2   force =     0.00000000    0.00000000   -0.00157406
     atom   48 type  2   force =     0.00316949   -0.00222432   -0.00374542
     atom   49 type  2   force =     0.00414568    0.00237522    0.00107617
     atom   50 type  2   force =     0.00000000    0.00000000   -0.00081214
     atom   51 type  2   force =     0.00000000    0.00000000   -0.00152771
     atom   52 type  2   force =    -0.00034157    0.00385702   -0.00374542
     atom   53 type  2   force =     0.00412984    0.00240265    0.00107617
     atom   54 type  2   force =     0.00335869   -0.00193914    0.01264291
[...]
     atom   43 type  2   force =     0.00000000    0.00000000    0.00000000
     atom   44 type  2   force =     0.00000000    0.00000000    0.00000000
     atom   45 type  2   force =     0.00000000    0.00000000    0.00000000
     atom   46 type  2   force =     0.00000000    0.00000000    0.00000000
     atom   47 type  2   force =     0.00000000    0.00000000    0.00000000
     atom   48 type  2   force =     0.00000000    0.00000000    0.00000000
     atom   49 type  2   force =     0.00000000    0.00000000    0.00000000
     atom   50 type  2   force =     0.00000000    0.00000000    0.00000000
     atom   51 type  2   force =     0.00000000    0.00000000    0.00000000
     atom   52 type  2   force =     0.00000000    0.00000000    0.00000000
     atom   53 type  2   force =     0.00000000    0.00000000    0.00000000
     atom   54 type  2   force =     0.00000000    0.00000000    0.00000000
     atom   55 type  2   force =     0.00000000    0.00000000    0.00000000
     atom   56 type  2   force =     0.00000000    0.00000000    0.00000000
     atom   57 type  2   force =     0.00000000    0.00000000    0.00000000
     atom   58 type  2   force =     0.00000000    0.00000000    0.00000000
     atom   59 type  2   force =     0.00000000    0.00000000    0.00000000
     atom   60 type  2   force =     0.00000000    0.00000000    0.00000000
     atom   61 type  2   force =     0.00000000    0.00000000    0.00000000
     atom   62 type  2   force =     0.00000000    0.00000000    0.00000000
     atom   63 type  2   force =     0.00000000    0.00000000    0.00000000
     atom   64 type  2   force =     0.00000000    0.00000000    0.00000000
     atom   65 type  2   force =     0.00000000    0.00000000    0.00000000
     atom   66 type  2   force =     0.00000000    0.00000000    0.00000000
     atom   67 type  2   force =     0.00000000    0.00000000    0.00000000
     atom   68 type  2   force =     0.00000000    0.00000000    0.00000000
     atom   69 type  2   force =     0.00000000    0.00000000    0.00000000
     atom   70 type  2   force =     0.00000000    0.00000000    0.00000000
     atom   71 type  2   force =     0.00000000    0.00000000    0.00000000
     atom   72 type  1   force =     0.00000000    0.00000000    0.00000000
     The SCF correction term to forces
     atom    1 type  1   force =     0.00000000   -0.00000000   -0.00000087
     atom    2 type  1   force =     0.00000000   -0.00000000    0.00000093
     atom    3 type  1   force =     0.00000001    0.00000009   -0.00000072
     atom    4 type  1   force =     0.00000014    0.00000006    0.00000096
     atom    5 type  1   force =     0.00000008   -0.00000004   -0.00000072
     atom    6 type  1   force =     0.00000012    0.00000009    0.00000096
     atom    7 type  1   force =     0.00000008   -0.00000005   -0.00000072
     atom    8 type  1   force =    -0.00000002   -0.00000015    0.00000096
     atom    9 type  1   force =    -0.00000001    0.00000009   -0.00000072
     atom   10 type  1   force =    -0.00000014    0.00000006    0.00000096
     atom   11 type  1   force =     0.00000000    0.00000000   -0.00000067
     atom   12 type  1   force =     0.00000000    0.00000000    0.00000115
     atom   13 type  1   force =    -0.00000008   -0.00000005   -0.00000072
     atom   14 type  1   force =     0.00000002   -0.00000015    0.00000096
     atom   15 type  1   force =    -0.00000000    0.00000000   -0.00000085
     atom   16 type  1   force =    -0.00000000    0.00000000    0.00000055
     atom   17 type  1   force =    -0.00000008   -0.00000004   -0.00000072
     atom   18 type  1   force =    -0.00000012    0.00000009    0.00000096
     atom   19 type  1   force =    -0.00000043    0.00000025    0.00000070
     atom   20 type  1   force =     0.00000046   -0.00000027   -0.00000028
     atom   21 type  1   force =     0.00000032    0.00000019    0.00000054
     atom   22 type  1   force =     0.00000040    0.00000023   -0.00000055
     atom   23 type  1   force =    -0.00000000   -0.00000050    0.00000070
     atom   24 type  1   force =     0.00000000    0.00000053   -0.00000028
     atom   25 type  1   force =     0.00000043    0.00000025    0.00000070
     atom   26 type  1   force =    -0.00000046   -0.00000027   -0.00000028
     atom   27 type  1   force =    -0.00000000    0.00000003    0.00000051
     atom   28 type  1   force =     0.00000000    0.00000021   -0.00000065
     atom   29 type  1   force =     0.00000003   -0.00000002    0.00000051
     atom   30 type  1   force =     0.00000018   -0.00000011   -0.00000065
     atom   31 type  1   force =    -0.00000000   -0.00000037    0.00000054
     atom   32 type  1   force =     0.00000000   -0.00000047   -0.00000055
     atom   33 type  1   force =    -0.00000032    0.00000019    0.00000054
     atom   34 type  1   force =    -0.00000040    0.00000023   -0.00000055
     atom   35 type  1   force =    -0.00000003   -0.00000002    0.00000051
     atom   36 type  1   force =    -0.00000018   -0.00000011   -0.00000065
     atom   37 type  2   force =    -0.00000000    0.00000000   -0.00000051
     atom   38 type  2   force =     0.00000002    0.00000012    0.00000016
     atom   39 type  2   force =     0.00000009    0.00000001   -0.00000020
     atom   40 type  2   force =     0.00000011   -0.00000004    0.00000016
     atom   41 type  2   force =     0.00000005    0.00000008   -0.00000020
     atom   42 type  2   force =     0.00000009   -0.00000007    0.00000016
     atom   43 type  2   force =    -0.00000004   -0.00000008   -0.00000020
     atom   44 type  2   force =    -0.00000002    0.00000012    0.00000016
     atom   45 type  2   force =    -0.00000009    0.00000001   -0.00000020
     atom   46 type  2   force =     0.00000000   -0.00000000    0.00000006
     atom   47 type  2   force =    -0.00000000    0.00000000   -0.00000006
     atom   48 type  2   force =    -0.00000009   -0.00000007    0.00000016
     atom   49 type  2   force =     0.00000004   -0.00000008   -0.00000020
     atom   50 type  2   force =     0.00000000   -0.00000000    0.00000020
     atom   51 type  2   force =    -0.00000000    0.00000000   -0.00000009
     atom   52 type  2   force =    -0.00000011   -0.00000004    0.00000016
     atom   53 type  2   force =    -0.00000005    0.00000008   -0.00000020
     atom   54 type  2   force =    -0.00000019    0.00000011   -0.00000033
     atom   55 type  2   force =    -0.00000001    0.00000000    0.00000052
     atom   56 type  2   force =     0.00000016    0.00000009   -0.00000037
     atom   57 type  2   force =     0.00000018    0.00000010    0.00000028
     atom   58 type  2   force =     0.00000000   -0.00000022   -0.00000033
     atom   59 type  2   force =     0.00000000   -0.00000001    0.00000052
     atom   60 type  2   force =     0.00000019    0.00000011   -0.00000033
     atom   61 type  2   force =     0.00000001    0.00000000    0.00000052
     atom   62 type  2   force =    -0.00000000    0.00000005   -0.00000035
     atom   63 type  2   force =    -0.00000000   -0.00000011    0.00000036
     atom   64 type  2   force =     0.00000005   -0.00000003   -0.00000035
     atom   65 type  2   force =    -0.00000010    0.00000006    0.00000036
     atom   66 type  2   force =    -0.00000000   -0.00000018   -0.00000037
     atom   67 type  2   force =    -0.00000000   -0.00000021    0.00000028
     atom   68 type  2   force =    -0.00000016    0.00000009   -0.00000037
     atom   69 type  2   force =    -0.00000018    0.00000010    0.00000028
     atom   70 type  2   force =    -0.00000005   -0.00000003   -0.00000035
     atom   71 type  2   force =     0.00000010    0.00000006    0.00000036
     atom   72 type  1   force =     0.00000000   -0.00000000    0.00000030

     Total force =     0.002931     Total SCF correction =     0.000005


     Computing stress (Cartesian axis) and pressure



     -----------------------------------------------
     Non-local corr. energy    =      20.00146086 Ry
     -----------------------------------------------

          total   stress  (Ry/bohr**3)                   (kbar)     P=      -45.16
  -0.00029902   0.00000000   0.00000000          -43.99        0.00        0.00
   0.00000000  -0.00029902   0.00000000            0.00      -43.99        0.00
   0.00000000  -0.00000000  -0.00032301            0.00       -0.00      -47.52

     kinetic stress (kbar)  18448.38      0.00      0.00
                                0.00  18448.38      0.00
                                0.00      0.00  18432.88

     local   stress (kbar)   5852.35     -0.07     -0.00
                               -0.07   5852.26      0.00
                               -0.00      0.00   3944.87

     nonloc. stress (kbar)    152.69      0.00      0.00
                                0.00    152.69      0.00
                                0.00      0.00    160.14

     hartree stress (kbar)  19998.71     -0.00     -0.00
                               -0.00  19998.71      0.00
                               -0.00      0.00  20846.23

     exc-cor stress (kbar)   5437.49     -0.00      0.00
                               -0.00   5437.49      0.00
                                0.00      0.00   5437.82

     corecor stress (kbar) -14466.93     -0.00      0.00
                               -0.00 -14466.93      0.00
                                0.00      0.00 -14466.31

     ewald   stress (kbar) -35632.15      0.10      0.00
                                0.10 -35632.02     -0.00
                                0.00     -0.00 -34567.69

     hubbard stress (kbar)      0.00      0.00      0.00
                                0.00      0.00      0.00
                                0.00      0.00      0.00

     DFT-D   stress (kbar)      0.00      0.00      0.00
                                0.00      0.00      0.00
                                0.00      0.00      0.00

     XDM     stress (kbar)      0.00      0.00      0.00
                                0.00      0.00      0.00
                                0.00      0.00      0.00

     dft-nl  stress (kbar)    165.44     -0.00     -0.00
                               -0.00    165.44     -0.00
                               -0.00     -0.00    164.54

     TS-vdW  stress (kbar)      0.00      0.00      0.00
                                0.00      0.00      0.00
                                0.00      0.00      0.00

     MDB     stress (kbar)      0.00      0.00      0.00
                                0.00      0.00      0.00
                                0.00      0.00      0.00

     3D-RISM stress (kbar)      0.00      0.00      0.00
                                0.00      0.00      0.00
                                0.00      0.00      0.00

     Energy error            =      2.1E-05 Ry
     Gradient error          =      7.9E-04 Ry/Bohr

     bfgs converged in  24 scf cycles and  23 bfgs steps
     (criteria: energy <  1.0E-04 Ry, force <  1.0E-03 Ry/Bohr)

     End of BFGS Geometry Optimization

     Final energy             =  -11498.6348497368 Ry

     File ./GaN.bfgs deleted, as requested
Begin final coordinates

ATOMIC_POSITIONS (angstrom)
Ga            1.6222756606        0.9366198184        1.8188465450
Ga            1.6222756606        0.9366198184        7.9265732467
Ga            0.0020571890        3.7667144081        2.6281576693
Ga            0.0051394066        3.7944398534        7.9618330696
Ga           -1.6037223911        6.5480062267        2.6281576693
Ga           -1.5781703424        6.5368127828        7.9618330696
Ga            4.8833187061        0.9247228797        2.6281576693
Ga            4.9057885373        0.9081908783        7.9618330696
Ga            3.2424941322        3.7667144081        2.6281576693
Ga            3.2394119146        3.7944398534        7.9618330696
Ga            1.6222756606        6.5563425246        2.6609997551
Ga            1.6222756606        6.5563425246        7.9605861722
Ga            8.0948778663        0.9247228797        2.6281576693
Ga            8.0724080351        0.9081908783        7.9618330696
Ga            6.4890982862        3.7464811715        2.6494339251
Ga            6.4890982862        3.7464811715        7.9602114165
Ga            4.8482737123        6.5480062267        2.6281576693
Ga            4.8227216636        6.5368127828        7.9618330696
Ga           -0.2926233375        2.0421874748        5.4289587295
Ga           -0.0828754892        1.9210894981       10.4677307810
Ga           -1.6334466699        4.6766545104        5.3092856750
Ga           -1.6320238887        4.6774759535       10.5974581210
Ga           -3.2445503819        7.1550750961        5.4289587295
Ga           -3.2445503819        7.3972710494       10.4677307810
Ga            3.5371678250        2.0421874748        5.4289587295
Ga            3.3274199767        1.9210894981       10.4677307810
Ga            1.6222722437        4.7051408494        5.3200151874
Ga            1.6222722437        4.6982614366       10.5998885202
Ga            0.0190826802        7.4819466278        5.3200151874
Ga            0.0131249339        7.4853863342       10.5998885202
Ga            6.4890948693        1.8861410249        5.3092856750
Ga            6.4890948693        1.8844981387       10.5974581210
Ga            4.8779911574        4.6766545104        5.3092856750
Ga            4.8765683762        4.6774759535       10.5974581210
Ga            3.2254618073        7.4819466278        5.3200151874
Ga            3.2314195536        7.4853863342       10.5998885202
N             1.6222756606        0.9366198184        9.9878683119
N            -0.0013087416        3.7774101535        4.6313119712
N            -0.0007811907        3.7784999151        9.9284867655
N            -1.5961425692        6.5397433726        4.6313119712
N            -1.5949350325        6.5396553642        9.9284867655
N             4.8942644587        0.9222899884        4.6313119712
N             4.8949444445        0.9212882352        9.9284867655
N             3.2458600628        3.7774101535        4.6313119712
N             3.2453325119        3.7784999151        9.9284867655
N             1.6222756606        6.5563425246        4.6459581260
N             1.6222756606        6.5563425246        9.9401786174
N             8.0839321137        0.9222899884        4.6313119712
N             8.0832521279        0.9212882352        9.9284867655
N             6.4890982862        3.7464811715        4.6433682927
N             6.4890982862        3.7464811715        9.9372315500
N             4.8406938904        6.5397433726        4.6313119712
N             4.8394863537        6.5396553642        9.9284867655
N            -0.0388032350        1.8956443703        1.9496909136
N            -0.0197536172        1.8846460683        7.3368093848
N            -1.6254495836        4.6812716303        2.0035565882
N            -1.6268076654        4.6804875414        7.2832741136
N            -3.2445503819        7.4481613051        1.9496909136
N            -3.2445503819        7.4701579091        7.3368093848
N             3.2833477225        1.8956443703        1.9496909136
N             3.2642981047        1.8846460683        7.3368093848
N             1.6222722437        4.6850459853        2.0072169066
N             1.6222722437        4.6900193867        7.2910086137
N             0.0016800174        7.4919940599        2.0072169066
N             0.0059871093        7.4895073591        7.2910086137
N             6.4890948693        1.8769067851        2.0035565882
N             6.4890948693        1.8784749628        7.2832741136
N             4.8699940711        4.6812716303        2.0035565882
N             4.8713521529        4.6804875414        7.2832741136
N             3.2428644701        7.4919940599        2.0072169066
N             3.2385573782        7.4895073591        7.2910086137
Ga            1.6222756606        0.9366198184        4.3282724572
End final coordinates



     Writing all to output data dir ./GaN.save/
 
     init_run     :      3.82s CPU      4.01s WALL (       1 calls)
     electrons    :   6831.71s CPU   6987.26s WALL (      24 calls)
     update_pot   :     24.63s CPU     24.90s WALL (      23 calls)
     forces       :     45.18s CPU     46.01s WALL (      24 calls)
     stress       :    438.76s CPU    442.95s WALL (      24 calls)

     Called by init_run:
     wfcinit      :      2.12s CPU      2.19s WALL (       1 calls)
     wfcinit:atom :      0.02s CPU      0.02s WALL (       1 calls)
     wfcinit:wfcr :      2.04s CPU      2.08s WALL (       1 calls)
     potinit      :      1.00s CPU      1.08s WALL (       1 calls)
     hinit0       :      0.43s CPU      0.44s WALL (       1 calls)

     Called by electrons:
     c_bands      :   6159.80s CPU   6302.35s WALL (     491 calls)
     sum_band     :    317.13s CPU    321.65s WALL (     491 calls)
     v_of_rho     :    192.87s CPU    196.48s WALL (     515 calls)
     v_h          :      1.72s CPU      1.74s WALL (     515 calls)
     v_xc         :    209.08s CPU    212.92s WALL (     563 calls)
     newd         :     21.77s CPU     22.30s WALL (     515 calls)
     PAW_pot      :    137.09s CPU    138.64s WALL (     538 calls)
     mix_rho      :     10.39s CPU     10.58s WALL (     491 calls)
     vdW_kernel   :      0.25s CPU      0.26s WALL (       1 calls)

     Called by c_bands:
     init_us_2    :     28.35s CPU     28.83s WALL (    1006 calls)
     init_us_2:cp :     28.34s CPU     28.83s WALL (    1006 calls)
     cegterg      :   5429.22s CPU   5565.06s WALL (     491 calls)

     Called by sum_band:
     sum_band:wei :      0.63s CPU      0.65s WALL (     491 calls)
     sum_band:loo :    276.62s CPU    280.33s WALL (     491 calls)
     sum_band:buf :      0.00s CPU      0.00s WALL (     491 calls)
     sum_band:ini :     14.09s CPU     14.31s WALL (     491 calls)
     sum_band:cal :    110.54s CPU    111.51s WALL (     514 calls)
     sum_band:bec :      2.38s CPU      2.42s WALL (     514 calls)
     addusdens    :     23.50s CPU     23.91s WALL (     491 calls)
     addusd:skk   :      1.98s CPU      2.01s WALL (     982 calls)
     addusd:dgemm :     14.82s CPU     15.13s WALL (     982 calls)
     addusd:qvan2 :      5.48s CPU      5.53s WALL (     982 calls)

     Called by *egterg:
     cdiaghg      :   2912.54s CPU   2967.62s WALL (    3812 calls)
     cegterg:over :    400.74s CPU    415.02s WALL (    3344 calls)
     cegterg:upda :    241.08s CPU    249.38s WALL (    3344 calls)
     cegterg:last :    124.29s CPU    125.40s WALL (     525 calls)
     h_psi        :   1313.82s CPU   1339.44s WALL (    3836 calls)
     s_psi        :    281.49s CPU    284.07s WALL (    3836 calls)
     g_psi        :      2.26s CPU      2.30s WALL (    3344 calls)

     Called by h_psi:
     h_psi:calbec :    301.94s CPU    304.66s WALL (    3836 calls)
     vloc_psi     :    717.63s CPU    727.71s WALL (    3836 calls)
     add_vuspsi   :    281.76s CPU    284.51s WALL (    3836 calls)

     General routines
     calbec       :    438.72s CPU    442.67s WALL (    4470 calls)
     fft          :     80.38s CPU     81.40s WALL (   36476 calls)
     ffts         :      1.75s CPU      1.77s WALL (    1006 calls)
     fftw         :    777.84s CPU    789.14s WALL ( 1189828 calls)
     interpolate  :      2.39s CPU      2.42s WALL (     515 calls)
 
     Parallel routines

     PAW routines
     PAW_pot      :    137.09s CPU    138.64s WALL (     538 calls)
     PAW_symme    :      0.99s CPU      1.01s WALL (    1029 calls)
 
     PWSCF        :      2h 2m CPU      2h 5m WALL

 
   This run was terminated on:  22:25:32  15Jan2024            

=------------------------------------------------------------------------------=
   JOB DONE.
=------------------------------------------------------------------------------=
