
     Program PWSCF v.7.1 starts on 27Mar2024 at  9:49:31 

     This program is part of the open-source Quantum ESPRESSO suite
     for quantum simulation of materials; please cite
         "P. Giannozzi et al., J. Phys.:Condens. Matter 21 395502 (2009);
         "P. Giannozzi et al., J. Phys.:Condens. Matter 29 465901 (2017);
         "P. Giannozzi et al., J. Chem. Phys. 152 154105 (2020);
          URL http://www.quantum-espresso.org", 
     in publications or presentations arising from this work. More details at
     http://www.quantum-espresso.org/quote

     Parallel version (MPI & OpenMP), running on     180 processor cores
     Number of MPI processes:               180
     Threads/MPI process:                     1

     MPI processes distributed on     2 nodes
     1997239 MiB available memory on the printing compute node when the environment starts
 
     Reading input from espresso.pwi
Warning: card &CELL ignored
Warning: card    CELL_DYNAMICS    = 'BFGS' ignored
Warning: card / ignored

     Current dimensions of program PWSCF are:
     Max number of different atomic species (ntypx) = 10
     Max number of k-points (npk) =  40000
     Max angular momentum in pseudopotentials (lmaxx) =  4
     file Ga.pbe-dn-kjpaw_psl.1.0.0.UPF: wavefunction(s)  4S renormalized
     file N.pbe-n-kjpaw_psl.1.0.0.UPF: wavefunction(s)  2S renormalized

     **************************************************************************
     Initializing libbeef V0.1.2 with the BEEF-vdW functional.
     Citation: Wellendorff et al., PRB 85, 235149 (2012).
     **************************************************************************


     IMPORTANT: XC functional enforced from input :
     Exchange-correlation= BEEF-VDW
                           (   1   4  43  14   2   0   0)
     Any further DFT definition will be discarded
     Please, verify this is what you really want

 
     K-points division:     npool     =       3
     R & G space division:  proc/nbgrp/npool/nimage =      60
     Subspace diagonalization in iterative solution of the eigenvalue problem:
     a serial algorithm will be used

 
     Parallelization info
     --------------------
     sticks:   dense  smooth     PW     G-vecs:    dense   smooth      PW
     Min         378     302     78                44970    32176    4254
     Max         379     303     79                44974    32181    4259
     Sum       22693   18145   4705              2698283  1930731  255309
 
     Using Slab Decomposition
 


     bravais-lattice index     =            4
     lattice parameter (alat)  =      30.6565  a.u.
     unit-cell volume          =   24400.9461 (a.u.)^3
     number of atoms/cell      =          300
     number of atomic types    =            2
     number of electrons       =      2693.00
     number of Kohn-Sham states=         1616
     kinetic-energy cutoff     =      70.0000  Ry
     charge density cutoff     =     350.0000  Ry
     scf convergence threshold =      1.0E-07
     mixing beta               =       0.7000
     number of iterations used =            8  plain     mixing
     energy convergence thresh.=      1.0E-04
     force convergence thresh. =      1.0E-03
     Exchange-correlation= BEEF-VDW
                           (   1   4  43  14   2   0   0)
     nstep                     =           50


     celldm(1)=  30.656540  celldm(2)=   0.000000  celldm(3)=   0.977927
     celldm(4)=   0.000000  celldm(5)=   0.000000  celldm(6)=   0.000000

     crystal axes: (cart. coord. in units of alat)
               a(1) = (   1.000000   0.000000   0.000000 )  
               a(2) = (  -0.500000   0.866025   0.000000 )  
               a(3) = (   0.000000   0.000000   0.977927 )  

     reciprocal axes: (cart. coord. in units 2 pi/alat)
               b(1) = (  1.000000  0.577350 -0.000000 )  
               b(2) = (  0.000000  1.154701  0.000000 )  
               b(3) = (  0.000000 -0.000000  1.022571 )  


     PseudoPot. # 1 for Ga read from file:
     /trace/group/acmegroup/atimmins/packages/espresso/pseudo/psl_1.0.0/pslibrary.1.0.0/pbe/PSEUDOPOTENTIALS/Ga.pbe-dn-kjpaw_psl.1.0.0.UPF
     MD5 check sum: cd2a01e492f15b435d17032472d8505c
     Pseudo is Projector augmented-wave + core cor, Zval = 13.0
     Generated using 'atomic' code by A. Dal Corso  v.7.1
     Shape of augmentation charge: PSQ
     Using radial grid of 1205 points,  6 beta functions with: 
                l(1) =   0
                l(2) =   0
                l(3) =   1
                l(4) =   1
                l(5) =   2
                l(6) =   2
     Q(r) pseudized with 0 coefficients 


     PseudoPot. # 2 for N  read from file:
     /trace/group/acmegroup/atimmins/packages/espresso/pseudo/psl_1.0.0/pslibrary.1.0.0/pbe/PSEUDOPOTENTIALS/N.pbe-n-kjpaw_psl.1.0.0.UPF
     MD5 check sum: f77f775694dac7e2c3fe1c82443d1a16
     Pseudo is Projector augmented-wave + core cor, Zval =  5.0
     Generated using 'atomic' code by A. Dal Corso  v.7.1
     Shape of augmentation charge: PSQ
     Using radial grid of 1085 points,  4 beta functions with: 
                l(1) =   0
                l(2) =   0
                l(3) =   1
                l(4) =   1
     Q(r) pseudized with 0 coefficients 


     atomic species   valence    mass     pseudopotential
        Ga            13.00    69.72300     Ga( 1.00)
        N              5.00    14.00700     N ( 1.00)

      2 Sym. Ops. (no inversion) found


                                    s                        frac. trans.

      isym =  1     identity                                     

 cryst.   s( 1) = (     1          0          0      )
                  (     0          1          0      )
                  (     0          0          1      )

 cart.    s( 1) = (  1.0000000  0.0000000  0.0000000 )
                  (  0.0000000  1.0000000  0.0000000 )
                  (  0.0000000  0.0000000  1.0000000 )


      isym =  2     inv. 180 deg rotation - cryst. axis [0,1,0]  

 cryst.   s( 2) = (     1          1          0      )
                  (     0         -1          0      )
                  (     0          0          1      )

 cart.    s( 2) = (  0.5000000  0.8660254  0.0000000 )
                  (  0.8660254 -0.5000000  0.0000000 )
                  (  0.0000000  0.0000000  1.0000000 )


     point group C_s (m)    
     there are  2 classes
     the character table:

       E     s    
A'     1.00  1.00
A''    1.00 -1.00

     the symmetry operations in each class and the name of the first element:

     E        1
          identity                                               
     s        2
          inv. 180 deg rotation - cryst. axis [0,1,0]            

   Cartesian axes

     site n.     atom                  positions (alat units)
         1           Ga  tau(   1) = (   0.1000001   0.0577350   0.4886906  )
         2           Ga  tau(   2) = (   0.1000001   0.0577350   0.8146665  )
         3           Ga  tau(   3) = (   0.0000001   0.2309401   0.1627148  )
         4           Ga  tau(   4) = (   0.0000001   0.2309401   0.4886906  )
         5           Ga  tau(   5) = (   0.0000001   0.2309401   0.8146665  )
         6           Ga  tau(   6) = (  -0.0999999   0.4041451   0.1627148  )
         7           Ga  tau(   7) = (  -0.0999999   0.4041451   0.4886906  )
         8           Ga  tau(   8) = (  -0.0999999   0.4041451   0.8146665  )
         9           Ga  tau(   9) = (  -0.1999999   0.5773502   0.1627148  )
        10           Ga  tau(  10) = (  -0.1999999   0.5773502   0.4886906  )
        11           Ga  tau(  11) = (  -0.1999999   0.5773502   0.8146665  )
        12           Ga  tau(  12) = (  -0.2999999   0.7505553   0.1627148  )
        13           Ga  tau(  13) = (  -0.2999999   0.7505553   0.4886906  )
        14           Ga  tau(  14) = (  -0.2999999   0.7505553   0.8146665  )
        15           Ga  tau(  15) = (   0.3000001   0.0577350   0.1627148  )
        16           Ga  tau(  16) = (   0.3000001   0.0577350   0.4886906  )
        17           Ga  tau(  17) = (   0.3000001   0.0577350   0.8146665  )
        18           Ga  tau(  18) = (   0.2000001   0.2309401   0.1627148  )
        19           Ga  tau(  19) = (   0.2000001   0.2309401   0.4886906  )
        20           Ga  tau(  20) = (   0.2000001   0.2309401   0.8146665  )
        21           Ga  tau(  21) = (   0.1000001   0.4041451   0.1627148  )
        22           Ga  tau(  22) = (   0.1000001   0.4041451   0.4886906  )
        23           Ga  tau(  23) = (   0.1000001   0.4041451   0.8146665  )
        24           Ga  tau(  24) = (   0.0000001   0.5773502   0.1627148  )
        25           Ga  tau(  25) = (   0.0000001   0.5773502   0.4886906  )
        26           Ga  tau(  26) = (   0.0000001   0.5773502   0.8146665  )
        27           Ga  tau(  27) = (  -0.0999999   0.7505553   0.1627148  )
        28           Ga  tau(  28) = (  -0.0999999   0.7505553   0.4886906  )
        29           Ga  tau(  29) = (  -0.0999999   0.7505553   0.8146665  )
        30           Ga  tau(  30) = (   0.5000001   0.0577350   0.1627148  )
        31           Ga  tau(  31) = (   0.5000001   0.0577350   0.4886906  )
        32           Ga  tau(  32) = (   0.5000001   0.0577350   0.8146665  )
        33           Ga  tau(  33) = (   0.4000001   0.2309401   0.1627148  )
        34           Ga  tau(  34) = (   0.4000001   0.2309401   0.4886906  )
        35           Ga  tau(  35) = (   0.4000001   0.2309401   0.8146665  )
        36           Ga  tau(  36) = (   0.3000001   0.4041451   0.1627148  )
        37           Ga  tau(  37) = (   0.3000001   0.4041451   0.4886906  )
        38           Ga  tau(  38) = (   0.3000001   0.4041451   0.8146665  )
        39           Ga  tau(  39) = (   0.2000001   0.5773502   0.1627148  )
        40           Ga  tau(  40) = (   0.2000001   0.5773502   0.4886906  )
        41           Ga  tau(  41) = (   0.2000001   0.5773502   0.8146665  )
        42           Ga  tau(  42) = (   0.1000001   0.7505553   0.1627148  )
        43           Ga  tau(  43) = (   0.1000001   0.7505553   0.4886906  )
        44           Ga  tau(  44) = (   0.1000001   0.7505553   0.8146665  )
        45           Ga  tau(  45) = (   0.7000001   0.0577350   0.1627148  )
        46           Ga  tau(  46) = (   0.7000001   0.0577350   0.4886906  )
        47           Ga  tau(  47) = (   0.7000001   0.0577350   0.8146665  )
        48           Ga  tau(  48) = (   0.6000001   0.2309401   0.1627148  )
        49           Ga  tau(  49) = (   0.6000001   0.2309401   0.4886906  )
        50           Ga  tau(  50) = (   0.6000001   0.2309401   0.8146665  )
        51           Ga  tau(  51) = (   0.5000001   0.4041451   0.1627148  )
        52           Ga  tau(  52) = (   0.5000001   0.4041451   0.4886906  )
        53           Ga  tau(  53) = (   0.5000001   0.4041451   0.8146665  )
        54           Ga  tau(  54) = (   0.4000001   0.5773502   0.1627148  )
        55           Ga  tau(  55) = (   0.4000001   0.5773502   0.4886906  )
        56           Ga  tau(  56) = (   0.4000001   0.5773502   0.8146665  )
        57           Ga  tau(  57) = (   0.3000001   0.7505553   0.1627148  )
        58           Ga  tau(  58) = (   0.3000001   0.7505553   0.4886906  )
        59           Ga  tau(  59) = (   0.3000001   0.7505553   0.8146665  )
        60           Ga  tau(  60) = (   0.9000001   0.0577350   0.1627148  )
        61           Ga  tau(  61) = (   0.9000001   0.0577350   0.4886906  )
        62           Ga  tau(  62) = (   0.9000001   0.0577350   0.8146665  )
        63           Ga  tau(  63) = (   0.8000001   0.2309401   0.1627148  )
        64           Ga  tau(  64) = (   0.8000001   0.2309401   0.4886906  )
        65           Ga  tau(  65) = (   0.8000001   0.2309401   0.8146665  )
        66           Ga  tau(  66) = (   0.7000001   0.4041451   0.1627148  )
        67           Ga  tau(  67) = (   0.7000001   0.4041451   0.4886906  )
        68           Ga  tau(  68) = (   0.7000001   0.4041451   0.8146665  )
        69           Ga  tau(  69) = (   0.6000001   0.5773502   0.1627148  )
        70           Ga  tau(  70) = (   0.6000001   0.5773502   0.4886906  )
        71           Ga  tau(  71) = (   0.6000001   0.5773502   0.8146665  )
        72           Ga  tau(  72) = (   0.5000001   0.7505553   0.1627148  )
        73           Ga  tau(  73) = (   0.5000001   0.7505553   0.4886906  )
        74           Ga  tau(  74) = (   0.5000001   0.7505553   0.8146665  )
        75           Ga  tau(  75) = (  -0.0000001   0.1154701   0.3257027  )
        76           Ga  tau(  76) = (  -0.0000001   0.1154701   0.6516786  )
        77           Ga  tau(  77) = (  -0.0000001   0.1154701   0.9776544  )
        78           Ga  tau(  78) = (  -0.1000001   0.2886752   0.3257027  )
        79           Ga  tau(  79) = (  -0.1000001   0.2886752   0.6516786  )
        80           Ga  tau(  80) = (  -0.1000001   0.2886752   0.9776544  )
        81           Ga  tau(  81) = (  -0.2000001   0.4618803   0.3257027  )
        82           Ga  tau(  82) = (  -0.2000001   0.4618803   0.6516786  )
        83           Ga  tau(  83) = (  -0.2000001   0.4618803   0.9776544  )
        84           Ga  tau(  84) = (  -0.3000001   0.6350854   0.3257027  )
        85           Ga  tau(  85) = (  -0.3000001   0.6350854   0.6516786  )
        86           Ga  tau(  86) = (  -0.3000001   0.6350854   0.9776544  )
        87           Ga  tau(  87) = (  -0.4000001   0.8082905   0.3257027  )
        88           Ga  tau(  88) = (  -0.4000001   0.8082905   0.6516786  )
        89           Ga  tau(  89) = (  -0.4000001   0.8082905   0.9776544  )
        90           Ga  tau(  90) = (   0.1999999   0.1154701   0.3257027  )
        91           Ga  tau(  91) = (   0.1999999   0.1154701   0.6516786  )
        92           Ga  tau(  92) = (   0.1999999   0.1154701   0.9776544  )
        93           Ga  tau(  93) = (   0.0999999   0.2886752   0.3257027  )
        94           Ga  tau(  94) = (   0.0999999   0.2886752   0.6516786  )
        95           Ga  tau(  95) = (   0.0999999   0.2886752   0.9776544  )
        96           Ga  tau(  96) = (  -0.0000001   0.4618803   0.3257027  )
        97           Ga  tau(  97) = (  -0.0000001   0.4618803   0.6516786  )
        98           Ga  tau(  98) = (  -0.0000001   0.4618803   0.9776544  )
        99           Ga  tau(  99) = (  -0.1000001   0.6350854   0.3257027  )
       100           Ga  tau( 100) = (  -0.1000001   0.6350854   0.6516786  )
       101           Ga  tau( 101) = (  -0.1000001   0.6350854   0.9776544  )
       102           Ga  tau( 102) = (  -0.2000001   0.8082905   0.3257027  )
       103           Ga  tau( 103) = (  -0.2000001   0.8082905   0.6516786  )
       104           Ga  tau( 104) = (  -0.2000001   0.8082905   0.9776544  )
       105           Ga  tau( 105) = (   0.3999999   0.1154701   0.3257027  )
       106           Ga  tau( 106) = (   0.3999999   0.1154701   0.6516786  )
       107           Ga  tau( 107) = (   0.3999999   0.1154701   0.9776544  )
       108           Ga  tau( 108) = (   0.2999999   0.2886752   0.3257027  )
       109           Ga  tau( 109) = (   0.2999999   0.2886752   0.6516786  )
       110           Ga  tau( 110) = (   0.2999999   0.2886752   0.9776544  )
       111           Ga  tau( 111) = (   0.1999999   0.4618803   0.3257027  )
       112           Ga  tau( 112) = (   0.1999999   0.4618803   0.6516786  )
       113           Ga  tau( 113) = (   0.1999999   0.4618803   0.9776544  )
       114           Ga  tau( 114) = (   0.0999999   0.6350854   0.3257027  )
       115           Ga  tau( 115) = (   0.0999999   0.6350854   0.6516786  )
       116           Ga  tau( 116) = (   0.0999999   0.6350854   0.9776544  )
       117           Ga  tau( 117) = (  -0.0000001   0.8082905   0.3257027  )
       118           Ga  tau( 118) = (  -0.0000001   0.8082905   0.6516786  )
       119           Ga  tau( 119) = (  -0.0000001   0.8082905   0.9776544  )
       120           Ga  tau( 120) = (   0.5999999   0.1154701   0.3257027  )
       121           Ga  tau( 121) = (   0.5999999   0.1154701   0.6516786  )
       122           Ga  tau( 122) = (   0.5999999   0.1154701   0.9776544  )
       123           Ga  tau( 123) = (   0.4999999   0.2886752   0.3257027  )
       124           Ga  tau( 124) = (   0.4999999   0.2886752   0.6516786  )
       125           Ga  tau( 125) = (   0.4999999   0.2886752   0.9776544  )
       126           Ga  tau( 126) = (   0.3999999   0.4618803   0.3257027  )
       127           Ga  tau( 127) = (   0.3999999   0.4618803   0.6516786  )
       128           Ga  tau( 128) = (   0.3999999   0.4618803   0.9776544  )
       129           Ga  tau( 129) = (   0.2999999   0.6350854   0.3257027  )
       130           Ga  tau( 130) = (   0.2999999   0.6350854   0.6516786  )
       131           Ga  tau( 131) = (   0.2999999   0.6350854   0.9776544  )
       132           Ga  tau( 132) = (   0.1999999   0.8082905   0.3257027  )
       133           Ga  tau( 133) = (   0.1999999   0.8082905   0.6516786  )
       134           Ga  tau( 134) = (   0.1999999   0.8082905   0.9776544  )
       135           Ga  tau( 135) = (   0.7999999   0.1154701   0.3257027  )
       136           Ga  tau( 136) = (   0.7999999   0.1154701   0.6516786  )
       137           Ga  tau( 137) = (   0.7999999   0.1154701   0.9776544  )
       138           Ga  tau( 138) = (   0.6999999   0.2886752   0.3257027  )
       139           Ga  tau( 139) = (   0.6999999   0.2886752   0.6516786  )
       140           Ga  tau( 140) = (   0.6999999   0.2886752   0.9776544  )
       141           Ga  tau( 141) = (   0.5999999   0.4618803   0.3257027  )
       142           Ga  tau( 142) = (   0.5999999   0.4618803   0.6516786  )
       143           Ga  tau( 143) = (   0.5999999   0.4618803   0.9776544  )
       144           Ga  tau( 144) = (   0.4999999   0.6350854   0.3257027  )
       145           Ga  tau( 145) = (   0.4999999   0.6350854   0.6516786  )
       146           Ga  tau( 146) = (   0.4999999   0.6350854   0.9776544  )
       147           Ga  tau( 147) = (   0.3999999   0.8082905   0.3257027  )
       148           Ga  tau( 148) = (   0.3999999   0.8082905   0.6516786  )
       149           Ga  tau( 149) = (   0.3999999   0.8082905   0.9776544  )
       150           N   tau( 150) = (   0.1000001   0.0577350   0.2855019  )
       151           N   tau( 151) = (   0.1000001   0.0577350   0.6114777  )
       152           N   tau( 152) = (   0.1000001   0.0577350   0.9374535  )
       153           N   tau( 153) = (   0.0000001   0.2309401   0.2855019  )
       154           N   tau( 154) = (   0.0000001   0.2309401   0.6114777  )
       155           N   tau( 155) = (   0.0000001   0.2309401   0.9374535  )
       156           N   tau( 156) = (  -0.0999999   0.4041451   0.2855019  )
       157           N   tau( 157) = (  -0.0999999   0.4041451   0.6114777  )
       158           N   tau( 158) = (  -0.0999999   0.4041451   0.9374535  )
       159           N   tau( 159) = (  -0.1999999   0.5773502   0.2855019  )
       160           N   tau( 160) = (  -0.1999999   0.5773502   0.6114777  )
       161           N   tau( 161) = (  -0.1999999   0.5773502   0.9374535  )
       162           N   tau( 162) = (  -0.2999999   0.7505553   0.2855019  )
       163           N   tau( 163) = (  -0.2999999   0.7505553   0.6114777  )
       164           N   tau( 164) = (  -0.2999999   0.7505553   0.9374535  )
       165           N   tau( 165) = (   0.3000001   0.0577350   0.2855019  )
       166           N   tau( 166) = (   0.3000001   0.0577350   0.6114777  )
       167           N   tau( 167) = (   0.3000001   0.0577350   0.9374535  )
       168           N   tau( 168) = (   0.2000001   0.2309401   0.2855019  )
       169           N   tau( 169) = (   0.2000001   0.2309401   0.6114777  )
       170           N   tau( 170) = (   0.2000001   0.2309401   0.9374535  )
       171           N   tau( 171) = (   0.1000001   0.4041451   0.2855019  )
       172           N   tau( 172) = (   0.1000001   0.4041451   0.6114777  )
       173           N   tau( 173) = (   0.1000001   0.4041451   0.9374535  )
       174           N   tau( 174) = (   0.0000001   0.5773502   0.2855019  )
       175           N   tau( 175) = (   0.0000001   0.5773502   0.6114777  )
       176           N   tau( 176) = (   0.0000001   0.5773502   0.9374535  )
       177           N   tau( 177) = (  -0.0999999   0.7505553   0.2855019  )
       178           N   tau( 178) = (  -0.0999999   0.7505553   0.6114777  )
       179           N   tau( 179) = (  -0.0999999   0.7505553   0.9374535  )
       180           N   tau( 180) = (   0.5000001   0.0577350   0.2855019  )
       181           N   tau( 181) = (   0.5000001   0.0577350   0.6114777  )
       182           N   tau( 182) = (   0.5000001   0.0577350   0.9374535  )
       183           N   tau( 183) = (   0.4000001   0.2309401   0.2855019  )
       184           N   tau( 184) = (   0.4000001   0.2309401   0.6114777  )
       185           N   tau( 185) = (   0.4000001   0.2309401   0.9374535  )
       186           N   tau( 186) = (   0.3000001   0.4041451   0.2855019  )
       187           N   tau( 187) = (   0.3000001   0.4041451   0.6114777  )
       188           N   tau( 188) = (   0.3000001   0.4041451   0.9374535  )
       189           N   tau( 189) = (   0.2000001   0.5773502   0.2855019  )
       190           N   tau( 190) = (   0.2000001   0.5773502   0.6114777  )
       191           N   tau( 191) = (   0.2000001   0.5773502   0.9374535  )
       192           N   tau( 192) = (   0.1000001   0.7505553   0.2855019  )
       193           N   tau( 193) = (   0.1000001   0.7505553   0.6114777  )
       194           N   tau( 194) = (   0.1000001   0.7505553   0.9374535  )
       195           N   tau( 195) = (   0.7000001   0.0577350   0.2855019  )
       196           N   tau( 196) = (   0.7000001   0.0577350   0.6114777  )
       197           N   tau( 197) = (   0.7000001   0.0577350   0.9374535  )
       198           N   tau( 198) = (   0.6000001   0.2309401   0.2855019  )
       199           N   tau( 199) = (   0.6000001   0.2309401   0.6114777  )
       200           N   tau( 200) = (   0.6000001   0.2309401   0.9374535  )
       201           N   tau( 201) = (   0.5000001   0.4041451   0.2855019  )
       202           N   tau( 202) = (   0.5000001   0.4041451   0.6114777  )
       203           N   tau( 203) = (   0.5000001   0.4041451   0.9374535  )
       204           N   tau( 204) = (   0.4000001   0.5773502   0.2855019  )
       205           N   tau( 205) = (   0.4000001   0.5773502   0.6114777  )
       206           N   tau( 206) = (   0.4000001   0.5773502   0.9374535  )
       207           N   tau( 207) = (   0.3000001   0.7505553   0.2855019  )
       208           N   tau( 208) = (   0.3000001   0.7505553   0.6114777  )
       209           N   tau( 209) = (   0.3000001   0.7505553   0.9374535  )
       210           N   tau( 210) = (   0.9000001   0.0577350   0.2855019  )
       211           N   tau( 211) = (   0.9000001   0.0577350   0.6114777  )
       212           N   tau( 212) = (   0.9000001   0.0577350   0.9374535  )
       213           N   tau( 213) = (   0.8000001   0.2309401   0.2855019  )
       214           N   tau( 214) = (   0.8000001   0.2309401   0.6114777  )
       215           N   tau( 215) = (   0.8000001   0.2309401   0.9374535  )
       216           N   tau( 216) = (   0.7000001   0.4041451   0.2855019  )
       217           N   tau( 217) = (   0.7000001   0.4041451   0.6114777  )
       218           N   tau( 218) = (   0.7000001   0.4041451   0.9374535  )
       219           N   tau( 219) = (   0.6000001   0.5773502   0.2855019  )
       220           N   tau( 220) = (   0.6000001   0.5773502   0.6114777  )
       221           N   tau( 221) = (   0.6000001   0.5773502   0.9374535  )
       222           N   tau( 222) = (   0.5000001   0.7505553   0.2855019  )
       223           N   tau( 223) = (   0.5000001   0.7505553   0.6114777  )
       224           N   tau( 224) = (   0.5000001   0.7505553   0.9374535  )
       225           N   tau( 225) = (  -0.0000001   0.1154701   0.1225140  )
       226           N   tau( 226) = (  -0.0000001   0.1154701   0.4484898  )
       227           N   tau( 227) = (  -0.0000001   0.1154701   0.7744656  )
       228           N   tau( 228) = (  -0.1000001   0.2886752   0.1225140  )
       229           N   tau( 229) = (  -0.1000001   0.2886752   0.4484898  )
       230           N   tau( 230) = (  -0.1000001   0.2886752   0.7744656  )
       231           N   tau( 231) = (  -0.2000001   0.4618803   0.1225140  )
       232           N   tau( 232) = (  -0.2000001   0.4618803   0.4484898  )
       233           N   tau( 233) = (  -0.2000001   0.4618803   0.7744656  )
       234           N   tau( 234) = (  -0.3000001   0.6350854   0.1225140  )
       235           N   tau( 235) = (  -0.3000001   0.6350854   0.4484898  )
       236           N   tau( 236) = (  -0.3000001   0.6350854   0.7744656  )
       237           N   tau( 237) = (  -0.4000001   0.8082905   0.1225140  )
       238           N   tau( 238) = (  -0.4000001   0.8082905   0.4484898  )
       239           N   tau( 239) = (  -0.4000001   0.8082905   0.7744656  )
       240           N   tau( 240) = (   0.1999999   0.1154701   0.1225140  )
       241           N   tau( 241) = (   0.1999999   0.1154701   0.4484898  )
       242           N   tau( 242) = (   0.1999999   0.1154701   0.7744656  )
       243           N   tau( 243) = (   0.0999999   0.2886752   0.1225140  )
       244           N   tau( 244) = (   0.0999999   0.2886752   0.4484898  )
       245           N   tau( 245) = (   0.0999999   0.2886752   0.7744656  )
       246           N   tau( 246) = (  -0.0000001   0.4618803   0.1225140  )
       247           N   tau( 247) = (  -0.0000001   0.4618803   0.4484898  )
       248           N   tau( 248) = (  -0.0000001   0.4618803   0.7744656  )
       249           N   tau( 249) = (  -0.1000001   0.6350854   0.1225140  )
       250           N   tau( 250) = (  -0.1000001   0.6350854   0.4484898  )
       251           N   tau( 251) = (  -0.1000001   0.6350854   0.7744656  )
       252           N   tau( 252) = (  -0.2000001   0.8082905   0.1225140  )
       253           N   tau( 253) = (  -0.2000001   0.8082905   0.4484898  )
       254           N   tau( 254) = (  -0.2000001   0.8082905   0.7744656  )
       255           N   tau( 255) = (   0.3999999   0.1154701   0.1225140  )
       256           N   tau( 256) = (   0.3999999   0.1154701   0.4484898  )
       257           N   tau( 257) = (   0.3999999   0.1154701   0.7744656  )
       258           N   tau( 258) = (   0.2999999   0.2886752   0.1225140  )
       259           N   tau( 259) = (   0.2999999   0.2886752   0.4484898  )
       260           N   tau( 260) = (   0.2999999   0.2886752   0.7744656  )
       261           N   tau( 261) = (   0.1999999   0.4618803   0.1225140  )
       262           N   tau( 262) = (   0.1999999   0.4618803   0.4484898  )
       263           N   tau( 263) = (   0.1999999   0.4618803   0.7744656  )
       264           N   tau( 264) = (   0.0999999   0.6350854   0.1225140  )
       265           N   tau( 265) = (   0.0999999   0.6350854   0.4484898  )
       266           N   tau( 266) = (   0.0999999   0.6350854   0.7744656  )
       267           N   tau( 267) = (  -0.0000001   0.8082905   0.1225140  )
       268           N   tau( 268) = (  -0.0000001   0.8082905   0.4484898  )
       269           N   tau( 269) = (  -0.0000001   0.8082905   0.7744656  )
       270           N   tau( 270) = (   0.5999999   0.1154701   0.1225140  )
       271           N   tau( 271) = (   0.5999999   0.1154701   0.4484898  )
       272           N   tau( 272) = (   0.5999999   0.1154701   0.7744656  )
       273           N   tau( 273) = (   0.4999999   0.2886752   0.1225140  )
       274           N   tau( 274) = (   0.4999999   0.2886752   0.4484898  )
       275           N   tau( 275) = (   0.4999999   0.2886752   0.7744656  )
       276           N   tau( 276) = (   0.3999999   0.4618803   0.1225140  )
       277           N   tau( 277) = (   0.3999999   0.4618803   0.4484898  )
       278           N   tau( 278) = (   0.3999999   0.4618803   0.7744656  )
       279           N   tau( 279) = (   0.2999999   0.6350854   0.1225140  )
       280           N   tau( 280) = (   0.2999999   0.6350854   0.4484898  )
       281           N   tau( 281) = (   0.2999999   0.6350854   0.7744656  )
       282           N   tau( 282) = (   0.1999999   0.8082905   0.1225140  )
       283           N   tau( 283) = (   0.1999999   0.8082905   0.4484898  )
       284           N   tau( 284) = (   0.1999999   0.8082905   0.7744656  )
       285           N   tau( 285) = (   0.7999999   0.1154701   0.1225140  )
       286           N   tau( 286) = (   0.7999999   0.1154701   0.4484898  )
       287           N   tau( 287) = (   0.7999999   0.1154701   0.7744656  )
       288           N   tau( 288) = (   0.6999999   0.2886752   0.1225140  )
       289           N   tau( 289) = (   0.6999999   0.2886752   0.4484898  )
       290           N   tau( 290) = (   0.6999999   0.2886752   0.7744656  )
       291           N   tau( 291) = (   0.5999999   0.4618803   0.1225140  )
       292           N   tau( 292) = (   0.5999999   0.4618803   0.4484898  )
       293           N   tau( 293) = (   0.5999999   0.4618803   0.7744656  )
       294           N   tau( 294) = (   0.4999999   0.6350854   0.1225140  )
       295           N   tau( 295) = (   0.4999999   0.6350854   0.4484898  )
       296           N   tau( 296) = (   0.4999999   0.6350854   0.7744656  )
       297           N   tau( 297) = (   0.3999999   0.8082905   0.1225140  )
       298           N   tau( 298) = (   0.3999999   0.8082905   0.4484898  )
       299           N   tau( 299) = (   0.3999999   0.8082905   0.7744656  )
       300           N   tau( 300) = (   0.1000001   0.0577350   0.1627148  )

   Crystallographic axes

     site n.     atom                  positions (cryst. coord.)
         1           Ga  tau(   1) = (  0.1333334  0.0666666  0.4997208  )
         2           Ga  tau(   2) = (  0.1333334  0.0666666  0.8330541  )
         3           Ga  tau(   3) = (  0.1333334  0.2666666  0.1663874  )
         4           Ga  tau(   4) = (  0.1333334  0.2666666  0.4997208  )
         5           Ga  tau(   5) = (  0.1333334  0.2666666  0.8330541  )
         6           Ga  tau(   6) = (  0.1333334  0.4666666  0.1663874  )
         7           Ga  tau(   7) = (  0.1333334  0.4666666  0.4997208  )
         8           Ga  tau(   8) = (  0.1333334  0.4666666  0.8330541  )
         9           Ga  tau(   9) = (  0.1333334  0.6666666  0.1663874  )
        10           Ga  tau(  10) = (  0.1333334  0.6666666  0.4997208  )
        11           Ga  tau(  11) = (  0.1333334  0.6666666  0.8330541  )
        12           Ga  tau(  12) = (  0.1333334  0.8666666  0.1663874  )
        13           Ga  tau(  13) = (  0.1333334  0.8666666  0.4997208  )
        14           Ga  tau(  14) = (  0.1333334  0.8666666  0.8330541  )
        15           Ga  tau(  15) = (  0.3333334  0.0666666  0.1663874  )
        16           Ga  tau(  16) = (  0.3333334  0.0666666  0.4997208  )
        17           Ga  tau(  17) = (  0.3333334  0.0666666  0.8330541  )
        18           Ga  tau(  18) = (  0.3333334  0.2666666  0.1663874  )
        19           Ga  tau(  19) = (  0.3333334  0.2666666  0.4997208  )
        20           Ga  tau(  20) = (  0.3333334  0.2666666  0.8330541  )
        21           Ga  tau(  21) = (  0.3333334  0.4666666  0.1663874  )
        22           Ga  tau(  22) = (  0.3333334  0.4666666  0.4997208  )
        23           Ga  tau(  23) = (  0.3333334  0.4666666  0.8330541  )
        24           Ga  tau(  24) = (  0.3333334  0.6666666  0.1663874  )
        25           Ga  tau(  25) = (  0.3333334  0.6666666  0.4997208  )
        26           Ga  tau(  26) = (  0.3333334  0.6666666  0.8330541  )
        27           Ga  tau(  27) = (  0.3333334  0.8666666  0.1663874  )
        28           Ga  tau(  28) = (  0.3333334  0.8666666  0.4997208  )
        29           Ga  tau(  29) = (  0.3333334  0.8666666  0.8330541  )
        30           Ga  tau(  30) = (  0.5333334  0.0666666  0.1663874  )
        31           Ga  tau(  31) = (  0.5333334  0.0666666  0.4997208  )
        32           Ga  tau(  32) = (  0.5333334  0.0666666  0.8330541  )
        33           Ga  tau(  33) = (  0.5333334  0.2666666  0.1663874  )
        34           Ga  tau(  34) = (  0.5333334  0.2666666  0.4997208  )
        35           Ga  tau(  35) = (  0.5333334  0.2666666  0.8330541  )
        36           Ga  tau(  36) = (  0.5333334  0.4666666  0.1663874  )
        37           Ga  tau(  37) = (  0.5333334  0.4666666  0.4997208  )
        38           Ga  tau(  38) = (  0.5333334  0.4666666  0.8330541  )
        39           Ga  tau(  39) = (  0.5333334  0.6666666  0.1663874  )
        40           Ga  tau(  40) = (  0.5333334  0.6666666  0.4997208  )
        41           Ga  tau(  41) = (  0.5333334  0.6666666  0.8330541  )
        42           Ga  tau(  42) = (  0.5333334  0.8666666  0.1663874  )
        43           Ga  tau(  43) = (  0.5333334  0.8666666  0.4997208  )
        44           Ga  tau(  44) = (  0.5333334  0.8666666  0.8330541  )
        45           Ga  tau(  45) = (  0.7333334  0.0666666  0.1663874  )
        46           Ga  tau(  46) = (  0.7333334  0.0666666  0.4997208  )
        47           Ga  tau(  47) = (  0.7333334  0.0666666  0.8330541  )
        48           Ga  tau(  48) = (  0.7333334  0.2666666  0.1663874  )
        49           Ga  tau(  49) = (  0.7333334  0.2666666  0.4997208  )
        50           Ga  tau(  50) = (  0.7333334  0.2666666  0.8330541  )
        51           Ga  tau(  51) = (  0.7333334  0.4666666  0.1663874  )
        52           Ga  tau(  52) = (  0.7333334  0.4666666  0.4997208  )
        53           Ga  tau(  53) = (  0.7333334  0.4666666  0.8330541  )
        54           Ga  tau(  54) = (  0.7333334  0.6666666  0.1663874  )
        55           Ga  tau(  55) = (  0.7333334  0.6666666  0.4997208  )
        56           Ga  tau(  56) = (  0.7333334  0.6666666  0.8330541  )
        57           Ga  tau(  57) = (  0.7333334  0.8666666  0.1663874  )
        58           Ga  tau(  58) = (  0.7333334  0.8666666  0.4997208  )
        59           Ga  tau(  59) = (  0.7333334  0.8666666  0.8330541  )
        60           Ga  tau(  60) = (  0.9333334  0.0666666  0.1663874  )
        61           Ga  tau(  61) = (  0.9333334  0.0666666  0.4997208  )
        62           Ga  tau(  62) = (  0.9333334  0.0666666  0.8330541  )
        63           Ga  tau(  63) = (  0.9333334  0.2666666  0.1663874  )
        64           Ga  tau(  64) = (  0.9333334  0.2666666  0.4997208  )
        65           Ga  tau(  65) = (  0.9333334  0.2666666  0.8330541  )
        66           Ga  tau(  66) = (  0.9333334  0.4666666  0.1663874  )
        67           Ga  tau(  67) = (  0.9333334  0.4666666  0.4997208  )
        68           Ga  tau(  68) = (  0.9333334  0.4666666  0.8330541  )
        69           Ga  tau(  69) = (  0.9333334  0.6666666  0.1663874  )
        70           Ga  tau(  70) = (  0.9333334  0.6666666  0.4997208  )
        71           Ga  tau(  71) = (  0.9333334  0.6666666  0.8330541  )
        72           Ga  tau(  72) = (  0.9333334  0.8666666  0.1663874  )
        73           Ga  tau(  73) = (  0.9333334  0.8666666  0.4997208  )
        74           Ga  tau(  74) = (  0.9333334  0.8666666  0.8330541  )
        75           Ga  tau(  75) = (  0.0666666  0.1333334  0.3330541  )
        76           Ga  tau(  76) = (  0.0666666  0.1333334  0.6663874  )
        77           Ga  tau(  77) = (  0.0666666  0.1333334  0.9997208  )
        78           Ga  tau(  78) = (  0.0666666  0.3333334  0.3330541  )
        79           Ga  tau(  79) = (  0.0666666  0.3333334  0.6663874  )
        80           Ga  tau(  80) = (  0.0666666  0.3333334  0.9997208  )
        81           Ga  tau(  81) = (  0.0666666  0.5333334  0.3330541  )
        82           Ga  tau(  82) = (  0.0666666  0.5333334  0.6663874  )
        83           Ga  tau(  83) = (  0.0666666  0.5333334  0.9997208  )
        84           Ga  tau(  84) = (  0.0666666  0.7333334  0.3330541  )
        85           Ga  tau(  85) = (  0.0666666  0.7333334  0.6663874  )
        86           Ga  tau(  86) = (  0.0666666  0.7333334  0.9997208  )
        87           Ga  tau(  87) = (  0.0666666  0.9333334  0.3330541  )
        88           Ga  tau(  88) = (  0.0666666  0.9333334  0.6663874  )
        89           Ga  tau(  89) = (  0.0666666  0.9333334  0.9997208  )
        90           Ga  tau(  90) = (  0.2666666  0.1333334  0.3330541  )
        91           Ga  tau(  91) = (  0.2666666  0.1333334  0.6663874  )
        92           Ga  tau(  92) = (  0.2666666  0.1333334  0.9997208  )
        93           Ga  tau(  93) = (  0.2666666  0.3333334  0.3330541  )
        94           Ga  tau(  94) = (  0.2666666  0.3333334  0.6663874  )
        95           Ga  tau(  95) = (  0.2666666  0.3333334  0.9997208  )
        96           Ga  tau(  96) = (  0.2666666  0.5333334  0.3330541  )
        97           Ga  tau(  97) = (  0.2666666  0.5333334  0.6663874  )
        98           Ga  tau(  98) = (  0.2666666  0.5333334  0.9997208  )
        99           Ga  tau(  99) = (  0.2666666  0.7333334  0.3330541  )
       100           Ga  tau( 100) = (  0.2666666  0.7333334  0.6663874  )
       101           Ga  tau( 101) = (  0.2666666  0.7333334  0.9997208  )
       102           Ga  tau( 102) = (  0.2666666  0.9333334  0.3330541  )
       103           Ga  tau( 103) = (  0.2666666  0.9333334  0.6663874  )
       104           Ga  tau( 104) = (  0.2666666  0.9333334  0.9997208  )
       105           Ga  tau( 105) = (  0.4666666  0.1333334  0.3330541  )
       106           Ga  tau( 106) = (  0.4666666  0.1333334  0.6663874  )
       107           Ga  tau( 107) = (  0.4666666  0.1333334  0.9997208  )
       108           Ga  tau( 108) = (  0.4666666  0.3333334  0.3330541  )
       109           Ga  tau( 109) = (  0.4666666  0.3333334  0.6663874  )
       110           Ga  tau( 110) = (  0.4666666  0.3333334  0.9997208  )
       111           Ga  tau( 111) = (  0.4666666  0.5333334  0.3330541  )
       112           Ga  tau( 112) = (  0.4666666  0.5333334  0.6663874  )
       113           Ga  tau( 113) = (  0.4666666  0.5333334  0.9997208  )
       114           Ga  tau( 114) = (  0.4666666  0.7333334  0.3330541  )
       115           Ga  tau( 115) = (  0.4666666  0.7333334  0.6663874  )
       116           Ga  tau( 116) = (  0.4666666  0.7333334  0.9997208  )
       117           Ga  tau( 117) = (  0.4666666  0.9333334  0.3330541  )
       118           Ga  tau( 118) = (  0.4666666  0.9333334  0.6663874  )
       119           Ga  tau( 119) = (  0.4666666  0.9333334  0.9997208  )
       120           Ga  tau( 120) = (  0.6666666  0.1333334  0.3330541  )
       121           Ga  tau( 121) = (  0.6666666  0.1333334  0.6663874  )
       122           Ga  tau( 122) = (  0.6666666  0.1333334  0.9997208  )
       123           Ga  tau( 123) = (  0.6666666  0.3333334  0.3330541  )
       124           Ga  tau( 124) = (  0.6666666  0.3333334  0.6663874  )
       125           Ga  tau( 125) = (  0.6666666  0.3333334  0.9997208  )
       126           Ga  tau( 126) = (  0.6666666  0.5333334  0.3330541  )
       127           Ga  tau( 127) = (  0.6666666  0.5333334  0.6663874  )
       128           Ga  tau( 128) = (  0.6666666  0.5333334  0.9997208  )
       129           Ga  tau( 129) = (  0.6666666  0.7333334  0.3330541  )
       130           Ga  tau( 130) = (  0.6666666  0.7333334  0.6663874  )
       131           Ga  tau( 131) = (  0.6666666  0.7333334  0.9997208  )
       132           Ga  tau( 132) = (  0.6666666  0.9333334  0.3330541  )
       133           Ga  tau( 133) = (  0.6666666  0.9333334  0.6663874  )
       134           Ga  tau( 134) = (  0.6666666  0.9333334  0.9997208  )
       135           Ga  tau( 135) = (  0.8666666  0.1333334  0.3330541  )
       136           Ga  tau( 136) = (  0.8666666  0.1333334  0.6663874  )
       137           Ga  tau( 137) = (  0.8666666  0.1333334  0.9997208  )
       138           Ga  tau( 138) = (  0.8666666  0.3333334  0.3330541  )
       139           Ga  tau( 139) = (  0.8666666  0.3333334  0.6663874  )
       140           Ga  tau( 140) = (  0.8666666  0.3333334  0.9997208  )
       141           Ga  tau( 141) = (  0.8666666  0.5333334  0.3330541  )
       142           Ga  tau( 142) = (  0.8666666  0.5333334  0.6663874  )
       143           Ga  tau( 143) = (  0.8666666  0.5333334  0.9997208  )
       144           Ga  tau( 144) = (  0.8666666  0.7333334  0.3330541  )
       145           Ga  tau( 145) = (  0.8666666  0.7333334  0.6663874  )
       146           Ga  tau( 146) = (  0.8666666  0.7333334  0.9997208  )
       147           Ga  tau( 147) = (  0.8666666  0.9333334  0.3330541  )
       148           Ga  tau( 148) = (  0.8666666  0.9333334  0.6663874  )
       149           Ga  tau( 149) = (  0.8666666  0.9333334  0.9997208  )
       150           N   tau( 150) = (  0.1333334  0.0666666  0.2919459  )
       151           N   tau( 151) = (  0.1333334  0.0666666  0.6252792  )
       152           N   tau( 152) = (  0.1333334  0.0666666  0.9586126  )
       153           N   tau( 153) = (  0.1333334  0.2666666  0.2919459  )
       154           N   tau( 154) = (  0.1333334  0.2666666  0.6252792  )
       155           N   tau( 155) = (  0.1333334  0.2666666  0.9586126  )
       156           N   tau( 156) = (  0.1333334  0.4666666  0.2919459  )
       157           N   tau( 157) = (  0.1333334  0.4666666  0.6252792  )
       158           N   tau( 158) = (  0.1333334  0.4666666  0.9586126  )
       159           N   tau( 159) = (  0.1333334  0.6666666  0.2919459  )
       160           N   tau( 160) = (  0.1333334  0.6666666  0.6252792  )
       161           N   tau( 161) = (  0.1333334  0.6666666  0.9586126  )
       162           N   tau( 162) = (  0.1333334  0.8666666  0.2919459  )
       163           N   tau( 163) = (  0.1333334  0.8666666  0.6252792  )
       164           N   tau( 164) = (  0.1333334  0.8666666  0.9586126  )
       165           N   tau( 165) = (  0.3333334  0.0666666  0.2919459  )
       166           N   tau( 166) = (  0.3333334  0.0666666  0.6252792  )
       167           N   tau( 167) = (  0.3333334  0.0666666  0.9586126  )
       168           N   tau( 168) = (  0.3333334  0.2666666  0.2919459  )
       169           N   tau( 169) = (  0.3333334  0.2666666  0.6252792  )
       170           N   tau( 170) = (  0.3333334  0.2666666  0.9586126  )
       171           N   tau( 171) = (  0.3333334  0.4666666  0.2919459  )
       172           N   tau( 172) = (  0.3333334  0.4666666  0.6252792  )
       173           N   tau( 173) = (  0.3333334  0.4666666  0.9586126  )
       174           N   tau( 174) = (  0.3333334  0.6666666  0.2919459  )
       175           N   tau( 175) = (  0.3333334  0.6666666  0.6252792  )
       176           N   tau( 176) = (  0.3333334  0.6666666  0.9586126  )
       177           N   tau( 177) = (  0.3333334  0.8666666  0.2919459  )
       178           N   tau( 178) = (  0.3333334  0.8666666  0.6252792  )
       179           N   tau( 179) = (  0.3333334  0.8666666  0.9586126  )
       180           N   tau( 180) = (  0.5333334  0.0666666  0.2919459  )
       181           N   tau( 181) = (  0.5333334  0.0666666  0.6252792  )
       182           N   tau( 182) = (  0.5333334  0.0666666  0.9586126  )
       183           N   tau( 183) = (  0.5333334  0.2666666  0.2919459  )
       184           N   tau( 184) = (  0.5333334  0.2666666  0.6252792  )
       185           N   tau( 185) = (  0.5333334  0.2666666  0.9586126  )
       186           N   tau( 186) = (  0.5333334  0.4666666  0.2919459  )
       187           N   tau( 187) = (  0.5333334  0.4666666  0.6252792  )
       188           N   tau( 188) = (  0.5333334  0.4666666  0.9586126  )
       189           N   tau( 189) = (  0.5333334  0.6666666  0.2919459  )
       190           N   tau( 190) = (  0.5333334  0.6666666  0.6252792  )
       191           N   tau( 191) = (  0.5333334  0.6666666  0.9586126  )
       192           N   tau( 192) = (  0.5333334  0.8666666  0.2919459  )
       193           N   tau( 193) = (  0.5333334  0.8666666  0.6252792  )
       194           N   tau( 194) = (  0.5333334  0.8666666  0.9586126  )
       195           N   tau( 195) = (  0.7333334  0.0666666  0.2919459  )
       196           N   tau( 196) = (  0.7333334  0.0666666  0.6252792  )
       197           N   tau( 197) = (  0.7333334  0.0666666  0.9586126  )
       198           N   tau( 198) = (  0.7333334  0.2666666  0.2919459  )
       199           N   tau( 199) = (  0.7333334  0.2666666  0.6252792  )
       200           N   tau( 200) = (  0.7333334  0.2666666  0.9586126  )
       201           N   tau( 201) = (  0.7333334  0.4666666  0.2919459  )
       202           N   tau( 202) = (  0.7333334  0.4666666  0.6252792  )
       203           N   tau( 203) = (  0.7333334  0.4666666  0.9586126  )
       204           N   tau( 204) = (  0.7333334  0.6666666  0.2919459  )
       205           N   tau( 205) = (  0.7333334  0.6666666  0.6252792  )
       206           N   tau( 206) = (  0.7333334  0.6666666  0.9586126  )
       207           N   tau( 207) = (  0.7333334  0.8666666  0.2919459  )
       208           N   tau( 208) = (  0.7333334  0.8666666  0.6252792  )
       209           N   tau( 209) = (  0.7333334  0.8666666  0.9586126  )
       210           N   tau( 210) = (  0.9333334  0.0666666  0.2919459  )
       211           N   tau( 211) = (  0.9333334  0.0666666  0.6252792  )
       212           N   tau( 212) = (  0.9333334  0.0666666  0.9586126  )
       213           N   tau( 213) = (  0.9333334  0.2666666  0.2919459  )
       214           N   tau( 214) = (  0.9333334  0.2666666  0.6252792  )
       215           N   tau( 215) = (  0.9333334  0.2666666  0.9586126  )
       216           N   tau( 216) = (  0.9333334  0.4666666  0.2919459  )
       217           N   tau( 217) = (  0.9333334  0.4666666  0.6252792  )
       218           N   tau( 218) = (  0.9333334  0.4666666  0.9586126  )
       219           N   tau( 219) = (  0.9333334  0.6666666  0.2919459  )
       220           N   tau( 220) = (  0.9333334  0.6666666  0.6252792  )
       221           N   tau( 221) = (  0.9333334  0.6666666  0.9586126  )
       222           N   tau( 222) = (  0.9333334  0.8666666  0.2919459  )
       223           N   tau( 223) = (  0.9333334  0.8666666  0.6252792  )
       224           N   tau( 224) = (  0.9333334  0.8666666  0.9586126  )
       225           N   tau( 225) = (  0.0666666  0.1333334  0.1252792  )
       226           N   tau( 226) = (  0.0666666  0.1333334  0.4586126  )
       227           N   tau( 227) = (  0.0666666  0.1333334  0.7919459  )
       228           N   tau( 228) = (  0.0666666  0.3333334  0.1252792  )
       229           N   tau( 229) = (  0.0666666  0.3333334  0.4586126  )
       230           N   tau( 230) = (  0.0666666  0.3333334  0.7919459  )
       231           N   tau( 231) = (  0.0666666  0.5333334  0.1252792  )
       232           N   tau( 232) = (  0.0666666  0.5333334  0.4586126  )
       233           N   tau( 233) = (  0.0666666  0.5333334  0.7919459  )
       234           N   tau( 234) = (  0.0666666  0.7333334  0.1252792  )
       235           N   tau( 235) = (  0.0666666  0.7333334  0.4586126  )
       236           N   tau( 236) = (  0.0666666  0.7333334  0.7919459  )
       237           N   tau( 237) = (  0.0666666  0.9333334  0.1252792  )
       238           N   tau( 238) = (  0.0666666  0.9333334  0.4586126  )
       239           N   tau( 239) = (  0.0666666  0.9333334  0.7919459  )
       240           N   tau( 240) = (  0.2666666  0.1333334  0.1252792  )
       241           N   tau( 241) = (  0.2666666  0.1333334  0.4586126  )
       242           N   tau( 242) = (  0.2666666  0.1333334  0.7919459  )
       243           N   tau( 243) = (  0.2666666  0.3333334  0.1252792  )
       244           N   tau( 244) = (  0.2666666  0.3333334  0.4586126  )
       245           N   tau( 245) = (  0.2666666  0.3333334  0.7919459  )
       246           N   tau( 246) = (  0.2666666  0.5333334  0.1252792  )
       247           N   tau( 247) = (  0.2666666  0.5333334  0.4586126  )
       248           N   tau( 248) = (  0.2666666  0.5333334  0.7919459  )
       249           N   tau( 249) = (  0.2666666  0.7333334  0.1252792  )
       250           N   tau( 250) = (  0.2666666  0.7333334  0.4586126  )
       251           N   tau( 251) = (  0.2666666  0.7333334  0.7919459  )
       252           N   tau( 252) = (  0.2666666  0.9333334  0.1252792  )
       253           N   tau( 253) = (  0.2666666  0.9333334  0.4586126  )
       254           N   tau( 254) = (  0.2666666  0.9333334  0.7919459  )
       255           N   tau( 255) = (  0.4666666  0.1333334  0.1252792  )
       256           N   tau( 256) = (  0.4666666  0.1333334  0.4586126  )
       257           N   tau( 257) = (  0.4666666  0.1333334  0.7919459  )
       258           N   tau( 258) = (  0.4666666  0.3333334  0.1252792  )
       259           N   tau( 259) = (  0.4666666  0.3333334  0.4586126  )
       260           N   tau( 260) = (  0.4666666  0.3333334  0.7919459  )
       261           N   tau( 261) = (  0.4666666  0.5333334  0.1252792  )
       262           N   tau( 262) = (  0.4666666  0.5333334  0.4586126  )
       263           N   tau( 263) = (  0.4666666  0.5333334  0.7919459  )
       264           N   tau( 264) = (  0.4666666  0.7333334  0.1252792  )
       265           N   tau( 265) = (  0.4666666  0.7333334  0.4586126  )
       266           N   tau( 266) = (  0.4666666  0.7333334  0.7919459  )
       267           N   tau( 267) = (  0.4666666  0.9333334  0.1252792  )
       268           N   tau( 268) = (  0.4666666  0.9333334  0.4586126  )
       269           N   tau( 269) = (  0.4666666  0.9333334  0.7919459  )
       270           N   tau( 270) = (  0.6666666  0.1333334  0.1252792  )
       271           N   tau( 271) = (  0.6666666  0.1333334  0.4586126  )
       272           N   tau( 272) = (  0.6666666  0.1333334  0.7919459  )
       273           N   tau( 273) = (  0.6666666  0.3333334  0.1252792  )
       274           N   tau( 274) = (  0.6666666  0.3333334  0.4586126  )
       275           N   tau( 275) = (  0.6666666  0.3333334  0.7919459  )
       276           N   tau( 276) = (  0.6666666  0.5333334  0.1252792  )
       277           N   tau( 277) = (  0.6666666  0.5333334  0.4586126  )
       278           N   tau( 278) = (  0.6666666  0.5333334  0.7919459  )
       279           N   tau( 279) = (  0.6666666  0.7333334  0.1252792  )
       280           N   tau( 280) = (  0.6666666  0.7333334  0.4586126  )
       281           N   tau( 281) = (  0.6666666  0.7333334  0.7919459  )
       282           N   tau( 282) = (  0.6666666  0.9333334  0.1252792  )
       283           N   tau( 283) = (  0.6666666  0.9333334  0.4586126  )
       284           N   tau( 284) = (  0.6666666  0.9333334  0.7919459  )
       285           N   tau( 285) = (  0.8666666  0.1333334  0.1252792  )
       286           N   tau( 286) = (  0.8666666  0.1333334  0.4586126  )
       287           N   tau( 287) = (  0.8666666  0.1333334  0.7919459  )
       288           N   tau( 288) = (  0.8666666  0.3333334  0.1252792  )
       289           N   tau( 289) = (  0.8666666  0.3333334  0.4586126  )
       290           N   tau( 290) = (  0.8666666  0.3333334  0.7919459  )
       291           N   tau( 291) = (  0.8666666  0.5333334  0.1252792  )
       292           N   tau( 292) = (  0.8666666  0.5333334  0.4586126  )
       293           N   tau( 293) = (  0.8666666  0.5333334  0.7919459  )
       294           N   tau( 294) = (  0.8666666  0.7333334  0.1252792  )
       295           N   tau( 295) = (  0.8666666  0.7333334  0.4586126  )
       296           N   tau( 296) = (  0.8666666  0.7333334  0.7919459  )
       297           N   tau( 297) = (  0.8666666  0.9333334  0.1252792  )
       298           N   tau( 298) = (  0.8666666  0.9333334  0.4586126  )
       299           N   tau( 299) = (  0.8666666  0.9333334  0.7919459  )
       300           N   tau( 300) = (  0.1333334  0.0666666  0.1663874  )

     number of k points=     6  Gaussian smearing, width (Ry)=  0.0100
                       cart. coord. in units 2pi/alat
        k(    1) = (   0.0000000   0.0000000   0.0000000), wk =   0.2500000
        k(    2) = (   0.0000000   0.0000000  -0.5112854), wk =   0.2500000
        k(    3) = (   0.0000000  -0.5773503   0.0000000), wk =   0.5000000
        k(    4) = (   0.0000000  -0.5773503  -0.5112854), wk =   0.5000000
        k(    5) = (  -0.5000000  -0.2886751   0.0000000), wk =   0.2500000
        k(    6) = (  -0.5000000  -0.2886751  -0.5112854), wk =   0.2500000

                       cryst. coord.
        k(    1) = (   0.0000000   0.0000000   0.0000000), wk =   0.2500000
        k(    2) = (   0.0000000   0.0000000  -0.5000000), wk =   0.2500000
        k(    3) = (   0.0000000  -0.5000000   0.0000000), wk =   0.5000000
        k(    4) = (   0.0000000  -0.5000000  -0.5000000), wk =   0.5000000
        k(    5) = (  -0.5000000  -0.0000000   0.0000000), wk =   0.2500000
        k(    6) = (  -0.5000000  -0.0000000  -0.5000000), wk =   0.2500000

     Dense  grid:  2698283 G-vectors     FFT dimensions: ( 192, 192, 180)

     Smooth grid:  1930731 G-vectors     FFT dimensions: ( 180, 180, 160)

     Dynamical RAM for                 wfc:      99.18 MB

     Dynamical RAM for     wfc (w. buffer):     297.53 MB

     Dynamical RAM for           str. fact:       1.37 MB

     Dynamical RAM for           local pot:       0.00 MB

     Dynamical RAM for          nlocal pot:     238.73 MB

     Dynamical RAM for                qrad:       3.00 MB

     Dynamical RAM for          rho,v,vnew:       4.59 MB

     Dynamical RAM for               rhoin:       1.53 MB

     Dynamical RAM for            rho*nmix:      10.98 MB

     Dynamical RAM for           G-vectors:       2.82 MB

     Dynamical RAM for          h,s,v(r/c):    1912.69 MB

     Dynamical RAM for          <psi|beta>:      95.92 MB

     Dynamical RAM for                 psi:     396.70 MB

     Dynamical RAM for                hpsi:     396.70 MB

     Dynamical RAM for                spsi:     396.70 MB

     Dynamical RAM for      wfcinit/wfcrot:     258.13 MB

     Dynamical RAM for           addusdens:      77.54 MB

     Dynamical RAM for          addusforce:     146.63 MB

     Dynamical RAM for         addusstress:      46.20 MB

     Estimated static dynamical RAM per process >     555.85 MB

     Estimated max dynamical RAM per process >       3.68 GB

     Estimated total dynamical RAM >     660.62 GB

     Atomic positions and unit cell read from directory:
     ./GaN.save/
     Atomic positions from file used, from input discarded
 

     Check: negative core charge=   -0.000003

     The initial density is read from file :
     ./GaN.save/charge-density


     starting charge    2692.0000, renormalised to    2693.0000


     %%%%%%%%%%%%%%%%%%%%%%%%%%%%%%%%%%%%%%%%%%%%%%%%%%%%%%%%%%%%%%%%%%%%%%%%
     %                                                                      %
     % You are using vdW-DF, which was implemented by the Thonhauser group. %
     % Please cite the following two papers that made this development      %
     % possible and the two reviews that describe the various versions:     %
     %                                                                      %
     %   T. Thonhauser et al., PRL 115, 136402 (2015).                      %
     %   T. Thonhauser et al., PRB 76, 125112 (2007).                       %
     %   K. Berland et al., Rep. Prog. Phys. 78, 066501 (2015).             %
     %   D.C. Langreth et al., J. Phys.: Condens. Matter 21, 084203 (2009). %
     %                                                                      %
     % If you are calculating stress with vdW-DF, please also cite:         %
     %                                                                      %
     %   R. Sabatini et al., J. Phys.: Condens. Matter 24, 424209 (2012).   %
     %                                                                      %
     %%%%%%%%%%%%%%%%%%%%%%%%%%%%%%%%%%%%%%%%%%%%%%%%%%%%%%%%%%%%%%%%%%%%%%%%

     %%%%%%%%%%%%%%%%%%%%%%%%%%%%%%%%%%%%%%%%%%%%%%%%%%%%%%%%%%%%%%%%%%%%%%%%
     %                                                                      %
     %  vdW-DF NEWS:                                                        %
     %                                                                      %
     %  * vdW-DF3 is now available. DOI: 10.1021/acs.jctc.0c00471           %
     %    use with input_dft = 'vdW-DF3-opt1' or 'vdW-DF3-opt2'             %
     %                                                                      %
     %  * Unscreened and range-separated vdW-DF hybrid functionals          %
     %    DOI: 10.1063/1.4986522 and 10.1088/1361-648X/ac2ad2               %
     %    use with input_dft = 'vdW-DF-cx0' (etc) and 'vdW-DF-ahcx'         %
     %                                                                      %
     %%%%%%%%%%%%%%%%%%%%%%%%%%%%%%%%%%%%%%%%%%%%%%%%%%%%%%%%%%%%%%%%%%%%%%%%


     Carrying out vdW-DF run using the following parameters:
     Nqs    =  20  Npoints =  1024  r_max =  100.000
     q_mesh =  0.00001000  0.04494208  0.09755937  0.15916263
               0.23128650  0.31572767  0.41458969  0.53033537
               0.66584808  0.82450364  1.01025438  1.22772762
               1.48234092  1.78043706  2.12944203  2.53805004
               3.01644009  3.57652955  4.23227104  5.00000000


     -----------------------------------------------
     Non-local corr. energy    =      81.36708382 Ry
     -----------------------------------------------

     Wavefunctions not found or not readable, recomputing them from scratch
     Starting wfcs are 1945 randomized atomic wfcs
     Checking if some PAW data can be deallocated... 
       PAW data deallocated on  105 nodes for type:  1
       PAW data deallocated on   74 nodes for type:  2

     total cpu time spent up to now is      129.7 secs

     Self-consistent Calculation

     iteration #  1     ecut=    70.00 Ry     beta= 0.70
     Davidson diagonalization with overlap

---- Real-time Memory Report at c_bands before calling an iterative solver
          1281 MiB given to the printing process from OS
             0 MiB allocation reported by mallinfo(arena+hblkhd)
       1912092 MiB available memory on the node where the printing process lives
------------------
     ethr =  1.00E-05,  avg # of iterations = 26.3

     Threshold (ethr) on eigenvalues was too large:
     Diagonalizing with lowered threshold

     Davidson diagonalization with overlap

---- Real-time Memory Report at c_bands before calling an iterative solver
          3708 MiB given to the printing process from OS
             0 MiB allocation reported by mallinfo(arena+hblkhd)
       1915535 MiB available memory on the node where the printing process lives
------------------
     ethr =  6.53E-07,  avg # of iterations = 15.0


     -----------------------------------------------
     Non-local corr. energy    =      81.27694027 Ry
     -----------------------------------------------


     total cpu time spent up to now is     6491.3 secs

     total energy              =  -46587.76991386 Ry
     estimated scf accuracy    <       0.01339878 Ry

     iteration #  2     ecut=    70.00 Ry     beta= 0.70
     Davidson diagonalization with overlap

---- Real-time Memory Report at c_bands before calling an iterative solver
          3708 MiB given to the printing process from OS
             0 MiB allocation reported by mallinfo(arena+hblkhd)
       1894745 MiB available memory on the node where the printing process lives
------------------
     ethr =  4.98E-07,  avg # of iterations =  6.8


     -----------------------------------------------
     Non-local corr. energy    =      81.29736652 Ry
     -----------------------------------------------


     total cpu time spent up to now is     8628.4 secs

     total energy              =  -46587.76781634 Ry
     estimated scf accuracy    <       0.03682309 Ry

     iteration #  3     ecut=    70.00 Ry     beta= 0.70
     Davidson diagonalization with overlap

---- Real-time Memory Report at c_bands before calling an iterative solver
          3708 MiB given to the printing process from OS
             0 MiB allocation reported by mallinfo(arena+hblkhd)
       1897852 MiB available memory on the node where the printing process lives
------------------
     ethr =  4.98E-07,  avg # of iterations = 15.0


     -----------------------------------------------
     Non-local corr. energy    =      81.31409032 Ry
     -----------------------------------------------


     total cpu time spent up to now is    11420.7 secs

     total energy              =  -46587.77460695 Ry
     estimated scf accuracy    <       0.00990115 Ry

     iteration #  4     ecut=    70.00 Ry     beta= 0.70
     Davidson diagonalization with overlap

---- Real-time Memory Report at c_bands before calling an iterative solver
          3708 MiB given to the printing process from OS
             0 MiB allocation reported by mallinfo(arena+hblkhd)
       1901069 MiB available memory on the node where the printing process lives
------------------
     ethr =  3.68E-07,  avg # of iterations = 14.8


     -----------------------------------------------
     Non-local corr. energy    =      81.32091960 Ry
     -----------------------------------------------


     total cpu time spent up to now is    13401.3 secs

     total energy              =  -46587.77587677 Ry
     estimated scf accuracy    <       0.00047688 Ry

     iteration #  5     ecut=    70.00 Ry     beta= 0.70
     Davidson diagonalization with overlap

---- Real-time Memory Report at c_bands before calling an iterative solver
          3708 MiB given to the printing process from OS
             0 MiB allocation reported by mallinfo(arena+hblkhd)
       1899760 MiB available memory on the node where the printing process lives
------------------
     ethr =  1.77E-08,  avg # of iterations = 14.7


     -----------------------------------------------
     Non-local corr. energy    =      81.32479945 Ry
     -----------------------------------------------


     total cpu time spent up to now is    17122.9 secs

     total energy              =  -46587.77605583 Ry
     estimated scf accuracy    <       0.00006019 Ry

     iteration #  6     ecut=    70.00 Ry     beta= 0.70
     Davidson diagonalization with overlap

---- Real-time Memory Report at c_bands before calling an iterative solver
          3708 MiB given to the printing process from OS
             0 MiB allocation reported by mallinfo(arena+hblkhd)
       1899541 MiB available memory on the node where the printing process lives
------------------
     ethr =  2.23E-09,  avg # of iterations = 16.3


     -----------------------------------------------
     Non-local corr. energy    =      81.32511832 Ry
     -----------------------------------------------


     total cpu time spent up to now is    20240.3 secs

     total energy              =  -46587.77606727 Ry
     estimated scf accuracy    <       0.00003469 Ry

     iteration #  7     ecut=    70.00 Ry     beta= 0.70
     Davidson diagonalization with overlap

---- Real-time Memory Report at c_bands before calling an iterative solver
          3708 MiB given to the printing process from OS
             0 MiB allocation reported by mallinfo(arena+hblkhd)
       1899372 MiB available memory on the node where the printing process lives
------------------
     ethr =  1.29E-09,  avg # of iterations = 16.0


     -----------------------------------------------
     Non-local corr. energy    =      81.32536020 Ry
     -----------------------------------------------


     total cpu time spent up to now is    22941.0 secs

     total energy              =  -46587.77607410 Ry
     estimated scf accuracy    <       0.00000215 Ry

     iteration #  8     ecut=    70.00 Ry     beta= 0.70
     Davidson diagonalization with overlap

---- Real-time Memory Report at c_bands before calling an iterative solver
          3708 MiB given to the printing process from OS
             0 MiB allocation reported by mallinfo(arena+hblkhd)
       1895325 MiB available memory on the node where the printing process lives
------------------
     ethr =  7.98E-11,  avg # of iterations = 15.3


     -----------------------------------------------
     Non-local corr. energy    =      81.32575627 Ry
     -----------------------------------------------


     total cpu time spent up to now is    27113.5 secs

     total energy              =  -46587.77607509 Ry
     estimated scf accuracy    <       0.00000179 Ry

     iteration #  9     ecut=    70.00 Ry     beta= 0.70
     Davidson diagonalization with overlap

---- Real-time Memory Report at c_bands before calling an iterative solver
          3708 MiB given to the printing process from OS
             0 MiB allocation reported by mallinfo(arena+hblkhd)
       1892362 MiB available memory on the node where the printing process lives
------------------
     ethr =  6.63E-11,  avg # of iterations = 15.3


     -----------------------------------------------
     Non-local corr. energy    =      81.32608185 Ry
     -----------------------------------------------


     total cpu time spent up to now is    29148.2 secs

     total energy              =  -46587.77607528 Ry
     estimated scf accuracy    <       0.00000051 Ry

     iteration # 10     ecut=    70.00 Ry     beta= 0.70
     Davidson diagonalization with overlap

---- Real-time Memory Report at c_bands before calling an iterative solver
          3708 MiB given to the printing process from OS
             0 MiB allocation reported by mallinfo(arena+hblkhd)
       1893002 MiB available memory on the node where the printing process lives
------------------
     ethr =  1.88E-11,  avg # of iterations = 16.0


     -----------------------------------------------
     Non-local corr. energy    =      81.32631769 Ry
     -----------------------------------------------


     total cpu time spent up to now is    31360.6 secs

     total energy              =  -46587.77607532 Ry
     estimated scf accuracy    <       0.00000025 Ry

     iteration # 11     ecut=    70.00 Ry     beta= 0.70
     Davidson diagonalization with overlap

---- Real-time Memory Report at c_bands before calling an iterative solver
          3708 MiB given to the printing process from OS
             0 MiB allocation reported by mallinfo(arena+hblkhd)
       1892993 MiB available memory on the node where the printing process lives
------------------
     ethr =  9.12E-12,  avg # of iterations = 16.2


     -----------------------------------------------
     Non-local corr. energy    =      81.32649767 Ry
     -----------------------------------------------


     total cpu time spent up to now is    33493.5 secs

     End of self-consistent calculation

          k = 0.0000 0.0000 0.0000 (241213 PWs)   bands (ev):

    -9.5432  -6.8830  -6.7030  -6.6812  -6.6739  -6.6728  -6.6579  -6.6502
    -6.6499  -6.6475  -6.5862  -6.5727  -6.5709  -6.5436  -6.5264  -6.5240
    -6.5240  -6.5215  -6.5186  -6.5184  -6.5130  -6.5129  -6.4899  -6.4895
    -6.4830  -6.4749  -6.4627  -6.4607  -6.4606  -6.4591  -6.4580  -6.4576
    -6.4524  -6.4469  -6.4445  -6.4444  -6.4435  -6.4433  -6.4346  -6.4244
    -6.4178  -6.4171  -6.4164  -6.4144  -6.4098  -6.4094  -6.4090  -6.4085
    -6.4081  -6.4062  -6.4058  -6.4037  -6.4032  -6.4030  -6.4021  -6.4007
    -6.4000  -6.3990  -6.3989  -6.3979  -6.3976  -6.3957  -6.3954  -6.3945
    -6.3941  -6.3940  -6.3938  -6.3936  -6.3933  -6.3930  -6.3919  -6.3902
    -6.3899  -6.3884  -6.3875  -6.3867  -6.3864  -6.3854  -6.3849  -6.3811
    -6.3805  -6.3798  -6.3797  -6.3784  -6.3783  -6.3779  -6.3776  -6.3755
    -6.3729  -6.3723  -6.3723  -6.3720  -6.3718  -6.3716  -6.3688  -6.3684
    -6.3683  -6.3643  -6.3641  -6.3635  -6.3630  -6.3624  -6.3616  -6.3613
    -6.3609  -6.3599  -6.3594  -6.3589  -6.3588  -6.3585  -6.3565  -6.3564
    -6.3558  -6.3555  -6.3551  -6.3546  -6.3538  -6.3524  -6.3518  -6.3504
    -6.3501  -6.3497  -6.3492  -6.3487  -6.3486  -6.3448  -6.3445  -6.3444
    -6.3439  -6.3420  -6.3401  -6.3399  -6.3344  -6.3339  -6.3324  -6.3317
    -6.3226  -6.3212  -6.3209  -6.3155  -6.3114  -6.3052  -6.3043  -6.2560
    -6.2534  -6.2402  -6.1808  -6.1611  -6.1596  -5.7297  -5.5059  -5.4318
    -5.4314  -5.4222  -5.4146  -5.4136  -5.4095  -5.3955  -5.3950  -5.3715
    -5.3712  -5.3708  -5.3705  -5.3704  -5.3681  -5.3531  -5.3523  -5.3463
    -5.3459  -5.3360  -5.3357  -5.3313  -5.3311  -5.3287  -5.3183  -5.3162
    -5.3160  -5.3128  -5.3123  -5.3116  -5.3062  -5.3054  -5.3054  -5.3035
    -5.2997  -5.2997  -5.2956  -5.2955  -5.2933  -5.2908  -5.2908  -5.2893
    -5.2893  -5.2876  -5.2875  -5.2872  -5.2866  -5.2863  -5.2863  -5.2826
    -5.2826  -5.2820  -5.2782  -5.2777  -5.2772  -5.2772  -5.2747  -5.2746
    -5.2722  -5.2722  -5.2715  -5.2712  -5.2710  -5.2710  -5.2701  -5.2693
    -5.2689  -5.2688  -5.2670  -5.2669  -5.2668  -5.2667  -5.2654  -5.2654
    -5.2642  -5.2638  -5.2635  -5.2634  -5.2628  -5.2617  -5.2612  -5.2612
    -5.2609  -5.2601  -5.2599  -5.2587  -5.2585  -5.2585  -5.2578  -5.2572
    -5.2572  -5.2548  -5.2547  -5.2543  -5.2535  -5.2534  -5.2503  -5.2503
    -5.2498  -5.2498  -5.2492  -5.2484  -5.2484  -5.2476  -5.2476  -5.2472
    -5.2442  -5.2442  -5.2430  -5.2429  -5.2429  -5.2426  -5.2420  -5.2419
    -5.2419  -5.2416  -5.2403  -5.2403  -5.2397  -5.2396  -5.2396  -5.2390
    -5.2390  -5.2387  -5.2382  -5.2382  -5.2372  -5.2367  -5.2366  -5.2362
    -5.2357  -5.2354  -5.2353  -5.2339  -5.2335  -5.2334  -5.2322  -5.2313
    -5.2313  -5.2313  -5.2312  -5.2303  -5.2298  -5.2297  -5.2278  -5.2278
    -5.2270  -5.2263  -5.2261  -5.2261  -5.2253  -5.2252  -5.2247  -5.2241
    -5.2239  -5.2239  -5.2227  -5.2215  -5.2214  -5.2206  -5.2205  -5.2204
    -5.2203  -5.2196  -5.2196  -5.2185  -5.2184  -5.2177  -5.2166  -5.2163
    -5.2163  -5.2151  -5.2149  -5.2142  -5.2142  -5.2134  -5.2133  -5.2132
    -5.2124  -5.2112  -5.2108  -5.2108  -5.2094  -5.2093  -5.2092  -5.2089
    -5.2079  -5.2078  -5.2061  -5.2061  -5.2061  -5.2050  -5.2050  -5.2037
    -5.2037  -5.2036  -5.2028  -5.2028  -5.2023  -5.2003  -5.2002  -5.1999
    -5.1990  -5.1990  -5.1982  -5.1981  -5.1961  -5.1958  -5.1957  -5.1937
    -5.1936  -5.1931  -5.1931  -5.1914  -5.1907  -5.1907  -5.1901  -5.1900
    -5.1889  -5.1875  -5.1875  -5.1865  -5.1851  -5.1850  -5.1842  -5.1829
    -5.1822  -5.1822  -5.1811  -5.1810  -5.1783  -5.1783  -5.1772  -5.1769
    -5.1757  -5.1753  -5.1753  -5.1751  -5.1750  -5.1716  -5.1715  -5.1710
    -5.1710  -5.1696  -5.1695  -5.1681  -5.1664  -5.1663  -5.1661  -5.1656
    -5.1630  -5.1628  -5.1618  -5.1617  -5.1605  -5.1594  -5.1578  -5.1578
    -5.1561  -5.1560  -5.1550  -5.1549  -5.1547  -5.1535  -5.1521  -5.1520
    -5.1520  -5.1519  -5.1513  -5.1503  -5.1502  -5.1493  -5.1485  -5.1485
    -5.1476  -5.1471  -5.1470  -5.1469  -5.1466  -5.1465  -5.1463  -5.1447
    -5.1446  -5.1443  -5.1442  -5.1435  -5.1433  -5.1427  -5.1425  -5.1419
    -5.1418  -5.1417  -5.1406  -5.1405  -5.1400  -5.1384  -5.1383  -5.1380
    -5.1379  -5.1371  -5.1369  -5.1366  -5.1365  -5.1359  -5.1349  -5.1336
    -5.1335  -5.1330  -5.1324  -5.1324  -5.1312  -5.1311  -5.1311  -5.1310
    -5.1304  -5.1304  -5.1286  -5.1280  -5.1280  -5.1270  -5.1267  -5.1265
    -5.1259  -5.1258  -5.1258  -5.1251  -5.1248  -5.1248  -5.1241  -5.1241
    -5.1232  -5.1221  -5.1221  -5.1217  -5.1213  -5.1213  -5.1207  -5.1196
    -5.1195  -5.1195  -5.1194  -5.1188  -5.1187  -5.1181  -5.1180  -5.1179
    -5.1169  -5.1166  -5.1166  -5.1157  -5.1154  -5.1152  -5.1152  -5.1149
    -5.1138  -5.1138  -5.1128  -5.1127  -5.1119  -5.1119  -5.1116  -5.1107
    -5.1104  -5.1103  -5.1102  -5.1090  -5.1089  -5.1088  -5.1088  -5.1082
    -5.1081  -5.1075  -5.1068  -5.1068  -5.1057  -5.1051  -5.1050  -5.1050
    -5.1042  -5.1041  -5.1041  -5.1033  -5.1032  -5.1029  -5.1028  -5.1021
    -5.1021  -5.1016  -5.1013  -5.1013  -5.1005  -5.1005  -5.0984  -5.0984
    -5.0983  -5.0981  -5.0977  -5.0977  -5.0959  -5.0958  -5.0951  -5.0948
    -5.0947  -5.0938  -5.0936  -5.0919  -5.0919  -5.0915  -5.0914  -5.0911
    -5.0910  -5.0905  -5.0904  -5.0884  -5.0884  -5.0879  -5.0879  -5.0871
    -5.0870  -5.0859  -5.0838  -5.0837  -5.0825  -5.0825  -5.0824  -5.0805
    -5.0796  -5.0795  -5.0793  -5.0793  -5.0790  -5.0779  -5.0779  -5.0777
    -5.0777  -5.0770  -5.0769  -5.0766  -5.0764  -5.0764  -5.0750  -5.0750
    -5.0750  -5.0746  -5.0743  -5.0740  -5.0739  -5.0727  -5.0726  -5.0721
    -5.0720  -5.0711  -5.0711  -5.0702  -5.0701  -5.0701  -5.0680  -5.0679
    -5.0675  -5.0671  -5.0671  -5.0670  -5.0665  -5.0665  -5.0658  -5.0641
    -5.0641  -5.0634  -5.0633  -5.0633  -5.0630  -5.0623  -5.0623  -5.0619
    -5.0613  -5.0612  -5.0606  -5.0604  -5.0604  -5.0586  -5.0582  -5.0581
    -5.0579  -5.0576  -5.0576  -5.0574  -5.0565  -5.0564  -5.0564  -5.0560
    -5.0559  -5.0550  -5.0539  -5.0539  -5.0526  -5.0526  -5.0519  -5.0519
    -5.0518  -5.0500  -5.0496  -5.0494  -5.0494  -5.0478  -5.0467  -5.0467
    -5.0453  -5.0452  -5.0448  -5.0443  -5.0442  -5.0440  -5.0426  -5.0426
    -5.0416  -5.0416  -5.0416  -5.0407  -5.0402  -5.0390  -5.0390  -5.0385
    -5.0374  -5.0374  -5.0373  -5.0360  -5.0357  -5.0357  -5.0354  -5.0353
    -5.0345  -5.0324  -5.0322  -5.0321  -5.0308  -5.0307  -5.0306  -5.0299
    -5.0299  -5.0287  -5.0281  -5.0279  -5.0277  -5.0256  -5.0255  -5.0247
    -5.0241  -5.0241  -5.0235  -5.0235  -5.0214  -5.0199  -5.0199  -5.0180
    -5.0180  -5.0180  -5.0141  -5.0140  -5.0139  -5.0121  -5.0119  -5.0108
    -5.0076  -5.0076  -5.0023  -5.0014  -5.0013  -4.9941  -4.9939  -4.9911
    -4.9874  -4.9842  -4.9841  -4.9812  -4.9743  -4.9738  -4.9722  -4.9721
    -4.9633  -4.9632  -4.9523  -4.9522  -4.9401  -4.9400  -4.9265  -4.9207
    -4.9205  -4.9154  -4.9141  -4.8937  -4.8936  -4.8567  -4.8471  -4.8470
    -4.8245  -4.8244  -4.8155  -4.8154  -4.8116  -4.8093  -4.8055  -4.8046
    -4.8044  -4.7708  -4.7694  -4.7692  -4.7291  -4.7289  -4.7202  -4.7200
    -4.6425  -4.6282  -4.6279  -4.6017  -4.5892  -4.5690  -4.5686  -4.5054
    -4.5046  -4.3592  -4.3589  -4.3474  -4.3262  -4.3000  -4.2801  -4.2788
    -4.2785  -4.1264  -4.1260  -4.1135  -4.1038  -4.1036  -4.1014  -4.1013
    -4.0969  -4.0955  -4.0685  -4.0683  -4.0632  -4.0546  -4.0406  -4.0404
    -3.9923  -3.9922  -3.9920  -3.9850  -3.9831  -3.9831  -3.9808  -3.9775
    -3.9775  -3.9599  -3.9598  -3.9269  -3.9268  -3.8990  -3.8705  -3.8601
    -3.8478  -3.8477  -3.8368  -3.8335  -3.8333  -3.8166  -3.8165  -3.7846
    -3.6797  -3.6793  -3.5729  -3.5258  -3.4331  -3.4327  -3.4321  -3.4253
    -3.4252  -3.4202  -3.4200  -3.4159  -3.4139  -3.4139  -3.4108  -3.4106
    -3.4098  -3.4087  -3.3904  -3.3670  -3.3668  -3.3516  -3.3275  -3.3274
    -3.3158  -3.3152  -3.3152  -3.3142  -3.3135  -3.3133  -3.3015  -3.3014
    -3.3002  -3.3001  -3.2987  -3.2956  -3.2937  -3.2881  -3.2842  -3.2841
    -3.2813  -3.2791  -3.2789  -3.2780  -3.2779  -3.2512  -3.2511  -3.2436
    -3.1714  -3.1591  -3.1590  -3.1046  -3.1044  -3.1000  -3.0933  -3.0900
    -3.0899  -3.0690  -3.0689  -3.0653  -2.9908  -2.9756  -2.9754  -2.9711
    -2.9648  -2.9647  -2.9644  -2.9517  -2.9490  -2.9486  -2.9463  -2.9417
    -2.9415  -2.9312  -2.9310  -2.9229  -2.8910  -2.8907  -2.3136  -1.2339
     2.0490   2.2405   2.2426   2.4453   2.5291   2.5298   2.5327   2.5435
     2.5437   2.5805   2.5806   2.5887   2.5925   2.5925   2.5953   2.5959
     2.5967   2.6004   2.6007   2.6011   2.6014   2.6048   2.6049   2.6062
     2.6115   2.6117   2.6140   2.6145   2.6146   2.6234   2.7281   2.7351
     2.7355   2.7621   2.7623   2.7631   2.8081   2.8086   2.8246   2.9229
     2.9260   2.9263   2.9384   2.9386   2.9466   2.9630   2.9631   2.9693
     2.9695   2.9709   2.9851   3.0066   3.0068   3.0220   3.0222   3.0444
     3.0446   3.1041   3.1042   3.1184   3.1187   3.1188   3.1421   3.2043
     3.2044   3.2164   3.2165   3.2178   3.2216   3.2219   3.2265   3.2335
     3.2532   3.2535   3.2554   3.2607   3.2615   3.2622   3.2697   3.2706
     3.2826   3.2913   3.3125   3.3126   3.4898   3.5089   3.5095   3.5778
     3.5918   3.6425   3.6706   3.6707   3.6761   3.6761   3.6765   3.6816
     3.6818   3.6832   3.6934   3.6937   3.7094   3.7095   3.7112   3.7595
     3.7730   3.7730   3.8874   3.9063   3.9073   3.9254   3.9392   3.9394
     3.9557   3.9615   3.9617   3.9627   3.9742   3.9747   3.9751   3.9970
     3.9972   4.0624   4.1883   4.1887   4.4811   4.5054   4.5106   4.5107
     4.5249   4.5312   4.5317   4.5572   4.5654   4.5656   4.5722   4.5862
     4.5866   4.5925   4.6142   4.6149   4.6410   4.6646   4.6650   4.7018
     4.7019   4.7078   4.7972   4.7975   4.9639   4.9640   4.9666   4.9773
     4.9775   4.9780   4.9830   5.0012   5.0013   5.0080   5.1619   5.1621
     5.2413   5.3321   5.4462   5.4464   5.4480   5.4530   5.4531   5.4564
     5.4564   5.4571   5.4601   5.4602   5.4659   5.4781   5.4781   5.5357
     5.5361   5.5417   5.5928   5.6553   5.6662   5.6667   5.6917   5.6922
     5.7596   5.7940   5.8488   5.8492   5.8595   5.8639   5.8640   5.8843
     5.8844   5.8924   5.8960   5.8991   5.8995   5.9077   5.9081   5.9265
     5.9267   5.9306   5.9347   5.9629   5.9695   5.9697   5.9716   5.9719
     5.9760   5.9768   5.9776   5.9779   5.9812   5.9865   5.9929   5.9931
     5.9931   5.9948   6.0010   6.0016   6.0098   6.0104   6.0136   6.0139
     6.0161   6.0232   6.0233   6.0234   6.0268   6.0271   6.0425   6.0426
     6.0592   6.0630   6.0804   6.0811   6.1583   6.1589   6.2197   6.2713
     6.2895   6.2924   6.2932   6.3126   6.3186   6.3186   6.3188   6.3274
     6.3338   6.3338   6.3357   6.3359   6.3558   6.3559   6.4089   6.4089
     6.4300   6.4429   6.4686   6.4688   6.4765   6.5060   6.5063   6.5114
     6.5207   6.5342   6.5344   6.5438   6.5591   6.5594   6.6119   6.6202
     6.6271   6.6273   6.6297   6.6301   6.6332   6.6334   6.6340   6.6398
     6.6399   6.6406   6.6411   6.6417   6.6437   6.6496   6.6504   6.6628
     6.6703   6.6888   6.6890   6.7049   6.7148   6.7148   6.7335   6.7368
     6.7369   6.7572   6.8192   6.8193   6.8365   6.8486   6.8522   6.8522
     6.8534   6.8538   6.8538   6.8881   6.8882   6.8929   7.0216   7.0218
     7.0816   7.0820   7.1007   7.1052   7.1052   7.1102   7.1165   7.1168
     7.1416   7.1749   7.2232   7.2344   7.2347   7.2713   7.2715   7.2725
     7.2738   7.2741   7.2866   7.2867   7.3012   7.3034   7.3141   7.3147
     7.3500   7.3501   7.3605   7.3609   7.3676   7.3707   7.3762   7.3826
     7.3860   7.3861   7.3866   7.3867   7.3868   7.3948   7.3949   7.4005
     7.4041   7.4043   7.4093   7.4108   7.4109   7.4195   7.4195   7.4242
     7.4262   7.4263   7.4268   7.4292   7.4297   7.4342   7.4387   7.4391
     7.4409   7.4415   7.4463   7.4500   7.4505   7.4975   7.4975   7.5166
     7.5394   7.5396   7.5511   7.5513   7.5583   7.5730   7.6132   7.6135
     7.6155   7.6156   7.6195   7.6195   7.6269   7.6295   7.6328   7.6513
     7.6676   7.6678   7.6717   7.6923   7.6926   7.6965   7.7012   7.7030
[...]
Ga            4.8594438969        4.6755669408        5.2797202146
Ga            4.8704514126        4.6870890247       10.5773252167
Ga            4.8552141008        4.6669678021       15.8620123334
Ga            3.2446099504        7.4901231940        5.2832152023
Ga            3.2461353596        7.4934840274       10.5717110671
Ga            3.2443398498        7.4913948135       15.8616116014
Ga            1.6220437517       10.3026945857        5.2837604450
Ga            1.6218760132       10.3025977419       10.5714807111
Ga            1.6220684479       10.3027088441       15.8611743439
Ga           -0.0024314241       13.1141638290        5.2832152023
Ga            0.0012418476       13.1138044555       10.5717110671
Ga           -0.0014652197       13.1132941053       15.8616116014
Ga            9.7336208473        1.8721589318        5.2755407070
Ga            9.7334333478        1.8725262733       10.5740486441
Ga            9.7336147990        1.8736396215       15.8647294163
Ga            8.1092074244        4.6818557684        5.2821920269
Ga            8.1110923965        4.6829440575       10.5694473223
Ga            8.1077987192        4.6810424521       15.8629782977
Ga            6.4881452985        7.4934874772        5.2755407070
Ga            6.4883696758        7.4931414271       10.5740486441
Ga            6.4894245892        7.4927418944       15.8647294163
Ga            4.8698300826       10.3041670120        5.2828986447
Ga            4.8673392319       10.3007367426       10.5714910817
Ga            4.8686891164       10.3039843014       15.8615897634
Ga            3.2472120757       13.1146238413        5.2828986447
Ga            3.2429959499       13.1141818361       10.5714910817
Ga            3.2464833606       13.1137270909       15.8615897634
Ga           12.9880845565        1.8705798263        5.2796761633
Ga           12.9721794467        1.8750107831       10.5769812518
Ga           12.9976296452        1.8707606791       15.8611399716
Ga           11.3578607406        4.6819770515        5.2821572852
Ga           11.3558853250        4.6830565510       10.5693827516
Ga           11.3588909053        4.6812340925       15.8628992094
Ga            9.7336391168        7.4952114269        5.2821572852
Ga            9.7335862829        7.4929609170       10.5693827516
Ga            9.7335107778        7.4964750552       15.8628992094
Ga            8.1140096077       10.3127252778        5.2796761633
Ga            8.1098943739       10.2967355703       10.5769812518
Ga            8.1189387752       10.3209011407       15.8611399716
Ga            6.5000712979       13.1190251028        5.2985106805
Ga            6.4826935663       13.1089920647       10.5784063509
Ga            6.4945071858       13.1158126612       15.8476378554
N             1.6216740515        0.9362724792        5.0939262629
N             1.6217666360        0.9363259329        9.8888645895
N             1.6222346004        0.9365961123       15.0789506170
N             0.0054208524        3.7292324876        4.6335396438
N            -0.0020772061        3.7637448223        9.9369538112
N             0.0060338987        3.7345620635       15.1985654387
N            -1.6208486019        6.5509231718        4.6256557857
N            -1.6243583056        6.5588815009        9.9187520143
N            -1.6215399809        6.5485401973       15.2171841574
N            -3.2485281848        9.3701469080        4.6256557857
N            -3.2433909216        9.3631282509        9.9187520143
N            -3.2509375909        9.3707396435       15.2171841574
N            -4.8790492718       12.1893829109        4.6335396438
N            -4.8529097424       12.1656332345        9.9369538112
N            -4.8741272005       12.1872490367       15.1985654387
N             4.8483206179        0.9408690515        4.6335975159
N             4.8822737891        0.9294687141        9.9368556534
N             4.8529812465        0.9379346198       15.1988084401
N             3.2389780830        3.7283320887        4.6335975159
N             3.2460816869        3.7634365662        9.9368556534
N             3.2387671049        3.7338355274       15.1988084401
N             1.6223578853        6.5480688734        4.6342479290
N             1.6221534518        6.5626638606        9.9208140095
N             1.6224207699        6.5544769433       15.2086916048
N            -0.0010165716        9.3656161213        4.6305908328
N             0.0001413269        9.3662846343        9.9196296668
N            -0.0012066060        9.3655064049       15.2089498789
N            -1.6293968363       12.1802732649        4.6342479290
N            -1.6168594233       12.1727987267        9.9208140095
N            -1.6238158427       12.1771236896       15.2086916048
N             8.1057269823        0.9381261836        4.6255829156
N             8.1140587256        0.9369310580        9.9188785598
N             8.1040280174        0.9398830713       15.2174794317
N             6.4863637883        3.7449024084        4.6310431967
N             6.4890760089        3.7464683097        9.9182414697
N             6.4852695734        3.7442706631       15.2114392084
N             4.8653058720        6.5507001848        4.6255829156
N             4.8684367345        6.5585132490        9.9188785598
N             4.8659778990        6.5483503942       15.2174794317
N             3.2458700686        9.3656706939        4.6307061782
N             3.2442959671        9.3662485233        9.9197445226
N             3.2461227675        9.3656265427       15.2092075198
N             1.6224740097       12.1774751488        4.6307061782
N             1.6221873739       12.1758230222        9.9197445226
N             1.6225621231       12.1777160681       15.2092075198
N            11.3615249475        0.9383363807        4.6253633567
N            11.3525991822        0.9371135964        9.9186723709
N            11.3627818266        0.9398637647       15.2170335686
N             9.7334347092        3.7473055934        4.6294574010
N             9.7334090152        3.7455791128        9.9183504566
N             9.7332970139        3.7469097757       15.2107221202
N             8.1119804679        6.5557467214        4.6294574010
N             8.1104724449        6.5565877100        9.9183504566
N             8.1115688321        6.5558253826       15.2107221202
N             6.4933868906        9.3701988337        4.6253633567
N             6.4878650457        9.3630802864        9.9186723709
N             6.4953380835        9.3705236310       15.2170335686
N             4.8742258580       12.1803386505        4.6337198569
N             4.8616392160       12.1730717494        9.9208144207
N             4.8693938640       12.1775488975       15.2089552514
N            14.6185977789        0.9411838049        4.6329134588
N            14.5843721572        0.9295446724        9.9363591931
N            14.6148608790        0.9385518769       15.1989702171
N            12.9805191211        3.7449733706        4.6306406889
N            12.9774666962        3.7466307242        9.9176073449
N            12.9813725382        3.7442816696       15.2110459265
N            11.3550254988        6.5558255576        4.6292270551
N            11.3563654144        6.5565991583        9.9180973201
N            11.3552523172        6.5559565113       15.2104173760
N             9.7335029098        9.3689704218        4.6306406889
N             9.7334120077        9.3654982675        9.9176073449
N             9.7333305877        9.3700553531       15.2110459265
N             8.1243892480       12.1894829357        4.6329134588
N             8.0971966527       12.1656622440        9.9363591931
N             8.1202414815       12.1875626494       15.1989702171
N             0.3155716443        1.6928702483        1.9262082346
N            -0.0522493694        1.9032728498        7.3461157699
N            -0.0102398591        1.8789762843       12.5301748579
N            -1.5707444519        4.6225321082        1.9907188969
N            -1.6252799893        4.6913483954        7.2715264663
N            -1.6268379941        4.6856909470       12.5679709077
N            -3.2405130473        7.4952961089        1.9909890817
N            -3.2447523209        7.4928485631        7.2683260057
N            -3.2442325777        7.4931486370       12.5682824879
N            -4.8935153532       10.3777401312        1.9907188969
N            -4.8611864690       10.2961028268        7.2715264663
N            -4.8668649654       10.2975822793       12.5679709077
N            -6.4875189001       13.4761687201        1.9262082346
N            -6.4892154091       13.0524250775        7.3461157699
N            -6.4892520968       13.1009546633       12.5301748579
N             2.9294928808        1.6913461822        1.9260093585
N             3.2961233199        1.9030203649        7.3467326617
N             3.2536773663        1.8785141822       12.5305099356
N             1.6224995770        4.6776700332        1.9767378604
N             1.6223573696        4.6828109671        7.2864135140
N             1.6220279107        4.6871808360       12.5678118365
N             0.0026526528        7.4881531607        1.9874284008
N            -0.0004354135        7.4938197644        7.2743130344
N            -0.0015742592        7.4924196924       12.5658328432
N            -1.6251161718       10.3075314680        1.9874284008
N            -1.6217527822       10.3020238222        7.2743130344
N            -1.6235347030       10.3017375889       12.5658328432
N            -3.2491424949       13.1156016184        1.9767378604
N            -3.2447614194       13.1129079962        7.2864135140
N            -3.2411417313       13.1104377420       12.5678118365
N             6.4102736369        1.8587809777        1.9913804429
N             6.4977295848        1.8718718104        7.2717049691
N             6.4929612152        1.8754622267       12.5685435103
N             4.8148860452        4.6220733444        1.9913804429
N             4.8699510129        4.6912670006        7.2717049691
N             4.8706762198        4.6853422633       12.5685435103
N             3.2422755388        7.4885476055        1.9873875857
N             3.2448033465        7.4938907229        7.2741243722
N             3.2461023563        7.4925014715       12.5658376364
N             1.6227446327       10.3030992396        1.9879504763
N             1.6222802532       10.3028311300        7.2749336880
N             1.6223281054       10.3028587575       12.5646779749
N            -0.0049631296       13.1129299636        1.9873875857
N             0.0009280496       13.1124475506        7.2741243722
N             0.0003744275       13.1142671517       12.5658376364
N             9.7342580511        1.8683824165        1.9913448793
N             9.7332160597        1.8731723659        7.2684006066
N             9.7331654163        1.8726531442       12.5685837649
N             8.0981139692        4.6754509590        1.9900399993
N             8.1117668478        4.6833334521        7.2732882799
N             8.1115186692        4.6831901662       12.5637903390
N             6.4851933422        7.4959275696        1.9913448793
N             6.4888205643        7.4926302038        7.2684006066
N             6.4883455835        7.4928459562       12.5685837649
N             4.8707462669       10.3081075743        1.9873157577
N             4.8660504524       10.3020615831        7.2738687812
N             4.8678952497       10.3018143946       12.5656661524
N             3.2510827949       13.1134469991        1.9873157577
N             3.2434989057       13.1124033000        7.2738687812
N             3.2442072329       13.1141245356       12.5656661524
N            13.0578567780        1.8596290283        1.9906327864
N            12.9691869718        1.8715914027        7.2716160036
N            12.9735711048        1.8756704085       12.5683360147
N            11.3682350416        4.6757215411        1.9900314134
N            11.3552152021        4.6833244120        7.2732876606
N            11.3548980223        4.6834280163       12.5637199935
N             9.7334088363        7.5073235903        1.9900314134
N             9.7334831959        7.4922466431        7.2732876606
N             9.7334143300        7.4919201552       12.5637199935
N             8.1394120492       10.3786251931        1.9906327864
N             8.1054368661       10.2958537012        7.2716160036
N             8.1111614553       10.2976109689       12.5683360147
N             6.4959774238       13.1166615035        1.9769339165
N             6.4890397190       13.1126560177        7.2853685365
N             6.4857101243       13.1107336753       12.5680029566
N             1.6238360858        0.9375207303        2.4019348097



     Writing config-only to output data dir ./GaN.save/
     NEW-OLD atomic charge density approx. for the potential

     Check: negative core charge=   -0.000003


     -----------------------------------------------
     Non-local corr. energy    =      81.32641637 Ry
     -----------------------------------------------


     total cpu time spent up to now is   150500.7 secs

     Self-consistent Calculation

     iteration #  1     ecut=    70.00 Ry     beta= 0.70
     Davidson diagonalization with overlap

---- Real-time Memory Report at c_bands before calling an iterative solver
          3708 MiB given to the printing process from OS
             0 MiB allocation reported by mallinfo(arena+hblkhd)
       1896961 MiB available memory on the node where the printing process lives
------------------
     ethr =  1.00E-06,  avg # of iterations =  2.0

     Threshold (ethr) on eigenvalues was too large:
     Diagonalizing with lowered threshold

     Davidson diagonalization with overlap

---- Real-time Memory Report at c_bands before calling an iterative solver
          3708 MiB given to the printing process from OS
             0 MiB allocation reported by mallinfo(arena+hblkhd)
       1905961 MiB available memory on the node where the printing process lives
------------------
     ethr =  1.12E-08,  avg # of iterations =  5.2


     -----------------------------------------------
     Non-local corr. energy    =      81.32645908 Ry
     -----------------------------------------------


     total cpu time spent up to now is   151455.6 secs

     total energy              =  -46587.77629951 Ry
     estimated scf accuracy    <       0.00034868 Ry

     iteration #  2     ecut=    70.00 Ry     beta= 0.70
     Davidson diagonalization with overlap

---- Real-time Memory Report at c_bands before calling an iterative solver
          3708 MiB given to the printing process from OS
             0 MiB allocation reported by mallinfo(arena+hblkhd)
       1887923 MiB available memory on the node where the printing process lives
------------------
     ethr =  1.29E-08,  avg # of iterations = 13.5


     -----------------------------------------------
     Non-local corr. energy    =      81.32644113 Ry
     -----------------------------------------------


     total cpu time spent up to now is   153500.3 secs

     total energy              =  -46587.77638833 Ry
     estimated scf accuracy    <       0.00007967 Ry

     iteration #  3     ecut=    70.00 Ry     beta= 0.70
     Davidson diagonalization with overlap

---- Real-time Memory Report at c_bands before calling an iterative solver
          3708 MiB given to the printing process from OS
             0 MiB allocation reported by mallinfo(arena+hblkhd)
       1891124 MiB available memory on the node where the printing process lives
------------------

     Maximum CPU time exceeded

     max_seconds     =  154800.00
     elapsed seconds =  155698.11
     Calculation stopped in k-point loop, point #     2
     Calculation stopped in scf loop at iteration #     2

     Writing config to output data dir ./GaN.save/
 
     init_run     :    123.11s CPU    127.81s WALL (       1 calls)
     electrons    : 145696.49s CPU 146975.68s WALL (       7 calls)
     update_pot   :     16.30s CPU     16.65s WALL (       6 calls)
     forces       :    408.52s CPU    414.89s WALL (       6 calls)
     stress       :   8139.93s CPU   8216.47s WALL (       6 calls)

     Called by init_run:
     wfcinit      :    112.65s CPU    116.80s WALL (       1 calls)
     wfcinit:atom :      0.24s CPU      0.43s WALL (       2 calls)
     wfcinit:wfcr :    110.61s CPU    114.01s WALL (       2 calls)
     potinit      :      1.85s CPU      2.09s WALL (       1 calls)
     hinit0       :      1.41s CPU      1.54s WALL (       1 calls)

     Called by electrons:
     c_bands      : 143708.51s CPU 144961.56s WALL (      74 calls)
     sum_band     :   1848.55s CPU   1872.47s WALL (      73 calls)
     v_of_rho     :     76.40s CPU     79.71s WALL (      73 calls)
     v_h          :      0.65s CPU      0.66s WALL (      73 calls)
     v_xc         :     86.64s CPU     90.43s WALL (      85 calls)
     newd         :     18.32s CPU     21.32s WALL (      73 calls)
     PAW_pot      :     45.21s CPU     45.73s WALL (      79 calls)
     mix_rho      :      3.31s CPU      3.53s WALL (      73 calls)
     vdW_kernel   :      0.26s CPU      0.27s WALL (       1 calls)

     Called by c_bands:
     init_us_2    :     73.69s CPU     75.02s WALL (     332 calls)
     init_us_2:cp :     73.68s CPU     75.02s WALL (     332 calls)
     cegterg      : 106715.06s CPU 107745.00s WALL (     150 calls)

     Called by sum_band:
     sum_band:wei :      0.29s CPU      0.30s WALL (      73 calls)
     sum_band:loo :   1653.04s CPU   1665.77s WALL (      73 calls)
     sum_band:buf :     19.15s CPU     19.46s WALL (     146 calls)
     sum_band:ini :     38.13s CPU     38.67s WALL (     146 calls)
     sum_band:cal :   1190.77s CPU   1198.83s WALL (     158 calls)
     sum_band:bec :      9.52s CPU      9.65s WALL (     158 calls)
     addusdens    :     16.14s CPU     19.66s WALL (      73 calls)
     addusd:skk   :      3.36s CPU      4.16s WALL (     146 calls)
     addusd:dgemm :      8.65s CPU     11.25s WALL (     146 calls)
     addusd:qvan2 :      2.54s CPU      2.58s WALL (     146 calls)

     Called by *egterg:
     cdiaghg      :  85434.60s CPU  85952.88s WALL (    1682 calls)
     cegterg:over :   4250.47s CPU   4344.71s WALL (    1560 calls)
     cegterg:upda :   2657.98s CPU   2697.88s WALL (    1560 calls)
     cegterg:last :   1327.58s CPU   1336.24s WALL (     154 calls)
     h_psi        :   8821.66s CPU   8949.73s WALL (    1712 calls)
     s_psi        :   3096.24s CPU   3140.33s WALL (    1712 calls)
     g_psi        :      8.26s CPU      8.35s WALL (    1560 calls)

     Called by h_psi:
     h_psi:calbec :   3279.73s CPU   3303.69s WALL (    1712 calls)
     vloc_psi     :   2409.75s CPU   2434.71s WALL (    1712 calls)
     add_vuspsi   :   3094.08s CPU   3144.46s WALL (    1712 calls)

     General routines
     calbec       :   5150.22s CPU   5187.78s WALL (    1930 calls)
     fft          :     45.46s CPU     45.87s WALL (    5614 calls)
     ffts         :      9.22s CPU      9.28s WALL (     146 calls)
     fftw         :   2680.81s CPU   2708.23s WALL ( 1583000 calls)
     interpolate  :      1.01s CPU      1.02s WALL (      73 calls)
     davcio       :      0.00s CPU      0.06s WALL (       6 calls)
 
     Parallel routines

     PAW routines
     PAW_pot      :     45.21s CPU     45.73s WALL (      79 calls)
     PAW_symme    :      1.38s CPU      1.39s WALL (     151 calls)
 
     PWSCF        :   1d18h54m CPU   1d19h17m WALL

 
   This run was terminated on:   5: 7:28  29Mar2024            

=------------------------------------------------------------------------------=
   JOB DONE.
=------------------------------------------------------------------------------=
