
     Program PWSCF v.7.1 starts on 18Feb2024 at 21:31:40 

     This program is part of the open-source Quantum ESPRESSO suite
     for quantum simulation of materials; please cite
         "P. Giannozzi et al., J. Phys.:Condens. Matter 21 395502 (2009);
         "P. Giannozzi et al., J. Phys.:Condens. Matter 29 465901 (2017);
         "P. Giannozzi et al., J. Chem. Phys. 152 154105 (2020);
          URL http://www.quantum-espresso.org", 
     in publications or presentations arising from this work. More details at
     http://www.quantum-espresso.org/quote

     Parallel version (MPI & OpenMP), running on     128 processor cores
     Number of MPI processes:               128
     Threads/MPI process:                     1

     MPI processes distributed on     1 nodes
     1919048 MiB available memory on the printing compute node when the environment starts
 
     Reading input from espresso.pwi
Warning: card &CELL ignored
Warning: card    CELL_DYNAMICS    = 'BFGS' ignored
Warning: card / ignored

     Current dimensions of program PWSCF are:
     Max number of different atomic species (ntypx) = 10
     Max number of k-points (npk) =  40000
     Max angular momentum in pseudopotentials (lmaxx) =  4
     file Ga.pbe-dn-kjpaw_psl.1.0.0.UPF: wavefunction(s)  4S renormalized
     file N.pbe-n-kjpaw_psl.1.0.0.UPF: wavefunction(s)  2S renormalized

     **************************************************************************
     Initializing libbeef V0.1.2 with the BEEF-vdW functional.
     Citation: Wellendorff et al., PRB 85, 235149 (2012).
     **************************************************************************


     IMPORTANT: XC functional enforced from input :
     Exchange-correlation= BEEF-VDW
                           (   1   4  43  14   2   0   0)
     Any further DFT definition will be discarded
     Please, verify this is what you really want

 
     K-points division:     npool     =       4
     R & G space division:  proc/nbgrp/npool/nimage =      32
     Subspace diagonalization in iterative solution of the eigenvalue problem:
     a serial algorithm will be used

 
     Parallelization info
     --------------------
     sticks:   dense  smooth     PW     G-vecs:    dense   smooth      PW
     Min         253     203     54                20226    14477    1979
     Max         255     204     56                20235    14484    1982
     Sum        8137    6505   1735               647327   463355   63361
 
     Using Slab Decomposition
 


     bravais-lattice index     =            4
     lattice parameter (alat)  =      18.3939  a.u.
     unit-cell volume          =    5856.2271 (a.u.)^3
     number of atoms/cell      =           71
     number of atomic types    =            2
     number of electrons       =       636.00
     number of Kohn-Sham states=          382
     kinetic-energy cutoff     =      70.0000  Ry
     charge density cutoff     =     350.0000  Ry
     scf convergence threshold =      1.0E-07
     mixing beta               =       0.7000
     number of iterations used =            8  plain     mixing
     energy convergence thresh.=      1.0E-04
     force convergence thresh. =      1.0E-03
     Exchange-correlation= BEEF-VDW
                           (   1   4  43  14   2   0   0)
     nstep                     =           50


     celldm(1)=  18.393924  celldm(2)=   0.000000  celldm(3)=   1.086586
     celldm(4)=   0.000000  celldm(5)=   0.000000  celldm(6)=   0.000000

     crystal axes: (cart. coord. in units of alat)
               a(1) = (   1.000000   0.000000   0.000000 )  
               a(2) = (  -0.500000   0.866025   0.000000 )  
               a(3) = (   0.000000   0.000000   1.086586 )  

     reciprocal axes: (cart. coord. in units 2 pi/alat)
               b(1) = (  1.000000  0.577350 -0.000000 )  
               b(2) = (  0.000000  1.154701  0.000000 )  
               b(3) = (  0.000000 -0.000000  0.920314 )  


     PseudoPot. # 1 for Ga read from file:
     //group///packages/espresso/pseudo/psl_1.0.0/pslibrary.1.0.0/pbe/PSEUDOPOTENTIALS/Ga.pbe-dn-kjpaw_psl.1.0.0.UPF
     MD5 check sum: cd2a01e492f15b435d17032472d8505c
     Pseudo is Projector augmented-wave + core cor, Zval = 13.0
     Generated using 'atomic' code by A. Dal Corso  v.7.1
     Shape of augmentation charge: PSQ
     Using radial grid of 1205 points,  6 beta functions with: 
                l(1) =   0
                l(2) =   0
                l(3) =   1
                l(4) =   1
                l(5) =   2
                l(6) =   2
     Q(r) pseudized with 0 coefficients 


     PseudoPot. # 2 for N  read from file:
     //group///packages/espresso/pseudo/psl_1.0.0/pslibrary.1.0.0/pbe/PSEUDOPOTENTIALS/N.pbe-n-kjpaw_psl.1.0.0.UPF
     MD5 check sum: f77f775694dac7e2c3fe1c82443d1a16
     Pseudo is Projector augmented-wave + core cor, Zval =  5.0
     Generated using 'atomic' code by A. Dal Corso  v.7.1
     Shape of augmentation charge: PSQ
     Using radial grid of 1085 points,  4 beta functions with: 
                l(1) =   0
                l(2) =   0
                l(3) =   1
                l(4) =   1
     Q(r) pseudized with 0 coefficients 


     atomic species   valence    mass     pseudopotential
        Ga            13.00    69.72300     Ga( 1.00)
        N              5.00    14.00700     N ( 1.00)

      6 Sym. Ops. (no inversion) found ( 4 have fractional translation)


                                    s                        frac. trans.

      isym =  1     identity                                     

 cryst.   s( 1) = (     1          0          0      )
                  (     0          1          0      )
                  (     0          0          1      )

 cart.    s( 1) = (  1.0000000  0.0000000  0.0000000 )
                  (  0.0000000  1.0000000  0.0000000 )
                  (  0.0000000  0.0000000  1.0000000 )


      isym =  2     120 deg rotation - cryst. axis [0,0,1]       

 cryst.   s( 2) = (     0          1          0      )    f =( -0.3333334 )
                  (    -1         -1          0      )       (  0.0000003 )
                  (     0          0          1      )       (  0.0000000 )

 cart.    s( 2) = ( -0.5000000 -0.8660254  0.0000000 )    f =( -0.3333335 )
                  (  0.8660254 -0.5000000  0.0000000 )       (  0.0000002 )
                  (  0.0000000  0.0000000  1.0000000 )       (  0.0000000 )


      isym =  3     120 deg rotation - cryst. axis [0,0,-1]      

 cryst.   s( 3) = (    -1         -1          0      )    f =( -0.3333336 )
                  (     1          0          0      )       ( -0.3333334 )
                  (     0          0          1      )       (  0.0000000 )

 cart.    s( 3) = ( -0.5000000  0.8660254  0.0000000 )    f =( -0.1666669 )
                  ( -0.8660254 -0.5000000  0.0000000 )       ( -0.2886752 )
                  (  0.0000000  0.0000000  1.0000000 )       (  0.0000000 )


      isym =  4     inv. 180 deg rotation - cart. axis [1,0,0]   

 cryst.   s( 4) = (    -1          0          0      )    f =( -0.3333336 )
                  (     1          1          0      )       (  0.0000000 )
                  (     0          0          1      )       (  0.0000000 )

 cart.    s( 4) = ( -1.0000000  0.0000000  0.0000000 )    f =( -0.3333336 )
                  (  0.0000000  1.0000000  0.0000000 )       (  0.0000000 )
                  (  0.0000000  0.0000000  1.0000000 )       (  0.0000000 )


      isym =  5     inv. 180 deg rotation - cryst. axis [0,1,0]  

 cryst.   s( 5) = (     1          1          0      )
                  (     0         -1          0      )
                  (     0          0          1      )

 cart.    s( 5) = (  0.5000000  0.8660254  0.0000000 )
                  (  0.8660254 -0.5000000  0.0000000 )
                  (  0.0000000  0.0000000  1.0000000 )


      isym =  6     inv. 180 deg rotation - cryst. axis [1,1,0]  

 cryst.   s( 6) = (     0         -1          0      )    f =( -0.3333334 )
                  (    -1          0          0      )       ( -0.3333334 )
                  (     0          0          1      )       (  0.0000000 )

 cart.    s( 6) = (  0.5000000 -0.8660254  0.0000000 )    f =( -0.1666667 )
                  ( -0.8660254 -0.5000000  0.0000000 )       ( -0.2886752 )
                  (  0.0000000  0.0000000  1.0000000 )       (  0.0000000 )


     point group C_3v (3m)  
     there are  3 classes
     the character table:

       E     2C3   3s_v 
A_1    1.00  1.00  1.00
A_2    1.00  1.00 -1.00
E      2.00 -1.00  0.00

     the symmetry operations in each class and the name of the first element:

     E        1
          identity                                               
     2C3      2    3
          120 deg rotation - cryst. axis [0,0,1]                 
     3s_v     4    5    6
          inv. 180 deg rotation - cart. axis [1,0,0]             

   Cartesian axes

     site n.     atom                  positions (alat units)
         1           Ga  tau(   1) = (   0.1666668   0.0962250   0.8144844  )
         2           Ga  tau(   2) = (   0.0000001   0.3849001   0.2711914  )
         3           Ga  tau(   3) = (   0.0000001   0.3849001   0.8144844  )
         4           Ga  tau(   4) = (  -0.1666665   0.6735752   0.2711914  )
         5           Ga  tau(   5) = (  -0.1666665   0.6735752   0.8144844  )
         6           Ga  tau(   6) = (   0.5000001   0.0962250   0.2711914  )
         7           Ga  tau(   7) = (   0.5000001   0.0962250   0.8144844  )
         8           Ga  tau(   8) = (   0.3333335   0.3849001   0.2711914  )
         9           Ga  tau(   9) = (   0.3333335   0.3849001   0.8144844  )
        10           Ga  tau(  10) = (   0.1666668   0.6735752   0.2711914  )
        11           Ga  tau(  11) = (   0.1666668   0.6735752   0.8144844  )
        12           Ga  tau(  12) = (   0.8333335   0.0962250   0.2711914  )
        13           Ga  tau(  13) = (   0.8333335   0.0962250   0.8144844  )
        14           Ga  tau(  14) = (   0.6666668   0.3849001   0.2711914  )
        15           Ga  tau(  15) = (   0.6666668   0.3849001   0.8144844  )
        16           Ga  tau(  16) = (   0.5000001   0.6735752   0.2711914  )
        17           Ga  tau(  17) = (   0.5000001   0.6735752   0.8144844  )
        18           Ga  tau(  18) = (  -0.0000002   0.1924502   0.5428379  )
        19           Ga  tau(  19) = (  -0.0000002   0.1924502   1.0861309  )
        20           Ga  tau(  20) = (  -0.1666669   0.4811254   0.5428379  )
        21           Ga  tau(  21) = (  -0.1666669   0.4811254   1.0861309  )
        22           Ga  tau(  22) = (  -0.3333335   0.7698005   0.5428379  )
        23           Ga  tau(  23) = (  -0.3333335   0.7698005   1.0861309  )
        24           Ga  tau(  24) = (   0.3333331   0.1924502   0.5428379  )
        25           Ga  tau(  25) = (   0.3333331   0.1924502   1.0861309  )
        26           Ga  tau(  26) = (   0.1666665   0.4811254   0.5428379  )
        27           Ga  tau(  27) = (   0.1666665   0.4811254   1.0861309  )
        28           Ga  tau(  28) = (  -0.0000002   0.7698005   0.5428379  )
        29           Ga  tau(  29) = (  -0.0000002   0.7698005   1.0861309  )
        30           Ga  tau(  30) = (   0.6666665   0.1924502   0.5428379  )
        31           Ga  tau(  31) = (   0.6666665   0.1924502   1.0861309  )
        32           Ga  tau(  32) = (   0.4999998   0.4811254   0.5428379  )
        33           Ga  tau(  33) = (   0.4999998   0.4811254   1.0861309  )
        34           Ga  tau(  34) = (   0.3333331   0.7698005   0.5428379  )
        35           Ga  tau(  35) = (   0.3333331   0.7698005   1.0861309  )
        36           N   tau(  36) = (   0.1666668   0.0962250   0.4758365  )
        37           N   tau(  37) = (   0.1666668   0.0962250   1.0191295  )
        38           N   tau(  38) = (   0.0000001   0.3849001   0.4758365  )
        39           N   tau(  39) = (   0.0000001   0.3849001   1.0191295  )
        40           N   tau(  40) = (  -0.1666665   0.6735752   0.4758365  )
        41           N   tau(  41) = (  -0.1666665   0.6735752   1.0191295  )
        42           N   tau(  42) = (   0.5000001   0.0962250   0.4758365  )
        43           N   tau(  43) = (   0.5000001   0.0962250   1.0191295  )
        44           N   tau(  44) = (   0.3333335   0.3849001   0.4758365  )
        45           N   tau(  45) = (   0.3333335   0.3849001   1.0191295  )
        46           N   tau(  46) = (   0.1666668   0.6735752   0.4758365  )
        47           N   tau(  47) = (   0.1666668   0.6735752   1.0191295  )
        48           N   tau(  48) = (   0.8333335   0.0962250   0.4758365  )
        49           N   tau(  49) = (   0.8333335   0.0962250   1.0191295  )
        50           N   tau(  50) = (   0.6666668   0.3849001   0.4758365  )
        51           N   tau(  51) = (   0.6666668   0.3849001   1.0191295  )
        52           N   tau(  52) = (   0.5000001   0.6735752   0.4758365  )
        53           N   tau(  53) = (   0.5000001   0.6735752   1.0191295  )
        54           N   tau(  54) = (  -0.0000002   0.1924502   0.2041900  )
        55           N   tau(  55) = (  -0.0000002   0.1924502   0.7474830  )
        56           N   tau(  56) = (  -0.1666669   0.4811254   0.2041900  )
        57           N   tau(  57) = (  -0.1666669   0.4811254   0.7474830  )
        58           N   tau(  58) = (  -0.3333335   0.7698005   0.2041900  )
        59           N   tau(  59) = (  -0.3333335   0.7698005   0.7474830  )
        60           N   tau(  60) = (   0.3333331   0.1924502   0.2041900  )
        61           N   tau(  61) = (   0.3333331   0.1924502   0.7474830  )
        62           N   tau(  62) = (   0.1666665   0.4811254   0.2041900  )
        63           N   tau(  63) = (   0.1666665   0.4811254   0.7474830  )
        64           N   tau(  64) = (  -0.0000002   0.7698005   0.2041900  )
        65           N   tau(  65) = (  -0.0000002   0.7698005   0.7474830  )
        66           N   tau(  66) = (   0.6666665   0.1924502   0.2041900  )
        67           N   tau(  67) = (   0.6666665   0.1924502   0.7474830  )
        68           N   tau(  68) = (   0.4999998   0.4811254   0.2041900  )
        69           N   tau(  69) = (   0.4999998   0.4811254   0.7474830  )
        70           N   tau(  70) = (   0.3333331   0.7698005   0.2041900  )
        71           N   tau(  71) = (   0.3333331   0.7698005   0.7474830  )

   Crystallographic axes

     site n.     atom                  positions (cryst. coord.)
         1           Ga  tau(   1) = (  0.2222223  0.1111110  0.7495811  )
         2           Ga  tau(   2) = (  0.2222223  0.4444444  0.2495811  )
         3           Ga  tau(   3) = (  0.2222223  0.4444444  0.7495811  )
         4           Ga  tau(   4) = (  0.2222223  0.7777777  0.2495811  )
         5           Ga  tau(   5) = (  0.2222223  0.7777777  0.7495811  )
         6           Ga  tau(   6) = (  0.5555557  0.1111110  0.2495811  )
         7           Ga  tau(   7) = (  0.5555557  0.1111110  0.7495811  )
         8           Ga  tau(   8) = (  0.5555557  0.4444444  0.2495811  )
         9           Ga  tau(   9) = (  0.5555557  0.4444444  0.7495811  )
        10           Ga  tau(  10) = (  0.5555557  0.7777777  0.2495811  )
        11           Ga  tau(  11) = (  0.5555557  0.7777777  0.7495811  )
        12           Ga  tau(  12) = (  0.8888890  0.1111110  0.2495811  )
        13           Ga  tau(  13) = (  0.8888890  0.1111110  0.7495811  )
        14           Ga  tau(  14) = (  0.8888890  0.4444444  0.2495811  )
        15           Ga  tau(  15) = (  0.8888890  0.4444444  0.7495811  )
        16           Ga  tau(  16) = (  0.8888890  0.7777777  0.2495811  )
        17           Ga  tau(  17) = (  0.8888890  0.7777777  0.7495811  )
        18           Ga  tau(  18) = (  0.1111110  0.2222224  0.4995811  )
        19           Ga  tau(  19) = (  0.1111110  0.2222224  0.9995811  )
        20           Ga  tau(  20) = (  0.1111110  0.5555557  0.4995811  )
        21           Ga  tau(  21) = (  0.1111110  0.5555557  0.9995811  )
        22           Ga  tau(  22) = (  0.1111110  0.8888891  0.4995811  )
        23           Ga  tau(  23) = (  0.1111110  0.8888891  0.9995811  )
        24           Ga  tau(  24) = (  0.4444443  0.2222224  0.4995811  )
        25           Ga  tau(  25) = (  0.4444443  0.2222224  0.9995811  )
        26           Ga  tau(  26) = (  0.4444443  0.5555557  0.4995811  )
        27           Ga  tau(  27) = (  0.4444443  0.5555557  0.9995811  )
        28           Ga  tau(  28) = (  0.4444443  0.8888891  0.4995811  )
        29           Ga  tau(  29) = (  0.4444443  0.8888891  0.9995811  )
        30           Ga  tau(  30) = (  0.7777777  0.2222224  0.4995811  )
        31           Ga  tau(  31) = (  0.7777777  0.2222224  0.9995811  )
        32           Ga  tau(  32) = (  0.7777777  0.5555557  0.4995811  )
        33           Ga  tau(  33) = (  0.7777777  0.5555557  0.9995811  )
        34           Ga  tau(  34) = (  0.7777777  0.8888891  0.4995811  )
        35           Ga  tau(  35) = (  0.7777777  0.8888891  0.9995811  )
        36           N   tau(  36) = (  0.2222223  0.1111110  0.4379189  )
        37           N   tau(  37) = (  0.2222223  0.1111110  0.9379189  )
        38           N   tau(  38) = (  0.2222223  0.4444444  0.4379189  )
        39           N   tau(  39) = (  0.2222223  0.4444444  0.9379189  )
        40           N   tau(  40) = (  0.2222223  0.7777777  0.4379189  )
        41           N   tau(  41) = (  0.2222223  0.7777777  0.9379189  )
        42           N   tau(  42) = (  0.5555557  0.1111110  0.4379189  )
        43           N   tau(  43) = (  0.5555557  0.1111110  0.9379189  )
        44           N   tau(  44) = (  0.5555557  0.4444444  0.4379189  )
        45           N   tau(  45) = (  0.5555557  0.4444444  0.9379189  )
        46           N   tau(  46) = (  0.5555557  0.7777777  0.4379189  )
        47           N   tau(  47) = (  0.5555557  0.7777777  0.9379189  )
        48           N   tau(  48) = (  0.8888890  0.1111110  0.4379189  )
        49           N   tau(  49) = (  0.8888890  0.1111110  0.9379189  )
        50           N   tau(  50) = (  0.8888890  0.4444444  0.4379189  )
        51           N   tau(  51) = (  0.8888890  0.4444444  0.9379189  )
        52           N   tau(  52) = (  0.8888890  0.7777777  0.4379189  )
        53           N   tau(  53) = (  0.8888890  0.7777777  0.9379189  )
        54           N   tau(  54) = (  0.1111110  0.2222224  0.1879189  )
        55           N   tau(  55) = (  0.1111110  0.2222224  0.6879189  )
        56           N   tau(  56) = (  0.1111110  0.5555557  0.1879189  )
        57           N   tau(  57) = (  0.1111110  0.5555557  0.6879189  )
        58           N   tau(  58) = (  0.1111110  0.8888891  0.1879189  )
        59           N   tau(  59) = (  0.1111110  0.8888891  0.6879189  )
        60           N   tau(  60) = (  0.4444443  0.2222224  0.1879189  )
        61           N   tau(  61) = (  0.4444443  0.2222224  0.6879189  )
        62           N   tau(  62) = (  0.4444443  0.5555557  0.1879189  )
        63           N   tau(  63) = (  0.4444443  0.5555557  0.6879189  )
        64           N   tau(  64) = (  0.4444443  0.8888891  0.1879189  )
        65           N   tau(  65) = (  0.4444443  0.8888891  0.6879189  )
        66           N   tau(  66) = (  0.7777777  0.2222224  0.1879189  )
        67           N   tau(  67) = (  0.7777777  0.2222224  0.6879189  )
        68           N   tau(  68) = (  0.7777777  0.5555557  0.1879189  )
        69           N   tau(  69) = (  0.7777777  0.5555557  0.6879189  )
        70           N   tau(  70) = (  0.7777777  0.8888891  0.1879189  )
        71           N   tau(  71) = (  0.7777777  0.8888891  0.6879189  )

     number of k points=     4  Gaussian smearing, width (Ry)=  0.0100
                       cart. coord. in units 2pi/alat
        k(    1) = (   0.0000000   0.0000000   0.0000000), wk =   0.2500000
        k(    2) = (   0.0000000   0.0000000  -0.4601568), wk =   0.2500000
        k(    3) = (   0.0000000  -0.5773503   0.0000000), wk =   0.7500000
        k(    4) = (   0.0000000  -0.5773503  -0.4601568), wk =   0.7500000

                       cryst. coord.
        k(    1) = (   0.0000000   0.0000000   0.0000000), wk =   0.2500000
        k(    2) = (   0.0000000   0.0000000  -0.5000000), wk =   0.2500000
        k(    3) = (   0.0000000  -0.5000000   0.0000000), wk =   0.7500000
        k(    4) = (   0.0000000  -0.5000000  -0.5000000), wk =   0.7500000

     Dense  grid:   647327 G-vectors     FFT dimensions: ( 120, 120, 120)

     Smooth grid:   463355 G-vectors     FFT dimensions: ( 108, 108, 108)

     Dynamical RAM for                 wfc:      10.54 MB

     Dynamical RAM for     wfc (w. buffer):      10.54 MB

     Dynamical RAM for           str. fact:       0.62 MB

     Dynamical RAM for           local pot:       0.00 MB

     Dynamical RAM for          nlocal pot:      25.34 MB

     Dynamical RAM for                qrad:       3.00 MB

     Dynamical RAM for          rho,v,vnew:       2.24 MB

     Dynamical RAM for               rhoin:       0.75 MB

     Dynamical RAM for            rho*nmix:       4.94 MB

     Dynamical RAM for           G-vectors:       1.27 MB

     Dynamical RAM for          h,s,v(r/c):     106.88 MB

     Dynamical RAM for          <psi|beta>:       5.35 MB

     Dynamical RAM for                 psi:      42.18 MB

     Dynamical RAM for                hpsi:      42.18 MB

     Dynamical RAM for                spsi:      42.18 MB

     Dynamical RAM for      wfcinit/wfcrot:      24.43 MB

     Dynamical RAM for           addusdens:      17.37 MB

     Dynamical RAM for          addusforce:      22.83 MB

     Dynamical RAM for         addusstress:      15.63 MB

     Estimated static dynamical RAM per process >      46.89 MB

     Estimated max dynamical RAM per process >     290.59 MB

     Estimated total dynamical RAM >      35.86 GB

     Atomic positions and unit cell read from directory:
     ./GaN.save/
     Atomic positions from file used, from input discarded
 

     Check: negative core charge=   -0.000003

     The initial density is read from file :
     ./GaN.save/charge-density



     %%%%%%%%%%%%%%%%%%%%%%%%%%%%%%%%%%%%%%%%%%%%%%%%%%%%%%%%%%%%%%%%%%%%%%%%
     %                                                                      %
     % You are using vdW-DF, which was implemented by the Thonhauser group. %
     % Please cite the following two papers that made this development      %
     % possible and the two reviews that describe the various versions:     %
     %                                                                      %
     %   T. Thonhauser et al., PRL 115, 136402 (2015).                      %
     %   T. Thonhauser et al., PRB 76, 125112 (2007).                       %
     %   K. Berland et al., Rep. Prog. Phys. 78, 066501 (2015).             %
     %   D.C. Langreth et al., J. Phys.: Condens. Matter 21, 084203 (2009). %
     %                                                                      %
     % If you are calculating stress with vdW-DF, please also cite:         %
     %                                                                      %
     %   R. Sabatini et al., J. Phys.: Condens. Matter 24, 424209 (2012).   %
     %                                                                      %
     %%%%%%%%%%%%%%%%%%%%%%%%%%%%%%%%%%%%%%%%%%%%%%%%%%%%%%%%%%%%%%%%%%%%%%%%

     %%%%%%%%%%%%%%%%%%%%%%%%%%%%%%%%%%%%%%%%%%%%%%%%%%%%%%%%%%%%%%%%%%%%%%%%
     %                                                                      %
     %  vdW-DF NEWS:                                                        %
     %                                                                      %
     %  * vdW-DF3 is now available. DOI: 10.1021/acs.jctc.0c00471           %
     %    use with input_dft = 'vdW-DF3-opt1' or 'vdW-DF3-opt2'             %
     %                                                                      %
     %  * Unscreened and range-separated vdW-DF hybrid functionals          %
     %    DOI: 10.1063/1.4986522 and 10.1088/1361-648X/ac2ad2               %
     %    use with input_dft = 'vdW-DF-cx0' (etc) and 'vdW-DF-ahcx'         %
     %                                                                      %
     %%%%%%%%%%%%%%%%%%%%%%%%%%%%%%%%%%%%%%%%%%%%%%%%%%%%%%%%%%%%%%%%%%%%%%%%


     Carrying out vdW-DF run using the following parameters:
     Nqs    =  20  Npoints =  1024  r_max =  100.000
     q_mesh =  0.00001000  0.04494208  0.09755937  0.15916263
               0.23128650  0.31572767  0.41458969  0.53033537
               0.66584808  0.82450364  1.01025438  1.22772762
               1.48234092  1.78043706  2.12944203  2.53805004
               3.01644009  3.57652955  4.23227104  5.00000000


     -----------------------------------------------
     Non-local corr. energy    =      19.17518742 Ry
     -----------------------------------------------

     Wavefunctions not found or not readable, recomputing them from scratch
     Starting wfcs are  459 randomized atomic wfcs
     Checking if some PAW data can be deallocated... 
       PAW data deallocated on   58 nodes for type:  1
       PAW data deallocated on   70 nodes for type:  2

     total cpu time spent up to now is        5.6 secs

     Self-consistent Calculation

     iteration #  1     ecut=    70.00 Ry     beta= 0.70
     Davidson diagonalization with overlap

---- Real-time Memory Report at c_bands before calling an iterative solver
           258 MiB given to the printing process from OS
             0 MiB allocation reported by mallinfo(arena+hblkhd)
       1908128 MiB available memory on the node where the printing process lives
------------------
     c_bands:  1 eigenvalues not converged
     ethr =  1.00E-05,  avg # of iterations = 21.5

     Threshold (ethr) on eigenvalues was too large:
     Diagonalizing with lowered threshold

     Davidson diagonalization with overlap

---- Real-time Memory Report at c_bands before calling an iterative solver
           440 MiB given to the printing process from OS
             0 MiB allocation reported by mallinfo(arena+hblkhd)
       1905280 MiB available memory on the node where the printing process lives
------------------
     c_bands:  1 eigenvalues not converged
     ethr =  2.87E-08,  avg # of iterations = 20.0


     -----------------------------------------------
     Non-local corr. energy    =      19.17510308 Ry
     -----------------------------------------------


     total cpu time spent up to now is       79.5 secs

     total energy              =  -10957.96924647 Ry
     estimated scf accuracy    <       0.00000027 Ry

     iteration #  2     ecut=    70.00 Ry     beta= 0.70
     Davidson diagonalization with overlap

---- Real-time Memory Report at c_bands before calling an iterative solver
           443 MiB given to the printing process from OS
             0 MiB allocation reported by mallinfo(arena+hblkhd)
       1905184 MiB available memory on the node where the printing process lives
------------------
     c_bands:  3 eigenvalues not converged
     ethr =  4.17E-11,  avg # of iterations = 20.0


     -----------------------------------------------
     Non-local corr. energy    =      19.17510396 Ry
     -----------------------------------------------


     total cpu time spent up to now is      114.1 secs

     total energy              =  -10957.96924667 Ry
     estimated scf accuracy    <       0.00006144 Ry

     iteration #  3     ecut=    70.00 Ry     beta= 0.70
     Davidson diagonalization with overlap

---- Real-time Memory Report at c_bands before calling an iterative solver
           446 MiB given to the printing process from OS
             0 MiB allocation reported by mallinfo(arena+hblkhd)
       1905132 MiB available memory on the node where the printing process lives
------------------
     ethr =  4.17E-11,  avg # of iterations = 12.5


     -----------------------------------------------
     Non-local corr. energy    =      19.17515139 Ry
     -----------------------------------------------


     total cpu time spent up to now is      141.1 secs

     End of self-consistent calculation

          k = 0.0000 0.0000 0.0000 ( 57971 PWs)   bands (ev):

    -7.1839  -6.8545  -6.8445  -6.8211  -6.8122  -6.8122  -6.7834  -6.7834
    -6.7514  -6.7465  -6.7345  -6.7295  -6.7228  -6.7228  -6.7167  -6.7167
    -6.6925  -6.6914  -6.6914  -6.6828  -6.6826  -6.6826  -6.6805  -6.6758
    -6.6757  -6.6487  -6.6478  -6.6471  -6.6471  -6.6240  -6.6240  -6.6126
    -6.4223  -6.3963  -6.3963  -6.3400  -5.6504  -5.6504  -5.6429  -5.6325
    -5.6325  -5.6228  -5.6208  -5.6208  -5.6121  -5.6121  -5.6082  -5.6082
    -5.6012  -5.5929  -5.5929  -5.5877  -5.5877  -5.5866  -5.5839  -5.5825
    -5.5825  -5.5772  -5.5718  -5.5718  -5.5601  -5.5601  -5.5519  -5.5499
    -5.5499  -5.5463  -5.5453  -5.5392  -5.5392  -5.5323  -5.5323  -5.5275
    -5.5275  -5.5236  -5.5198  -5.5168  -5.5168  -5.5134  -5.5130  -5.5130
    -5.5097  -5.5097  -5.5068  -5.5030  -5.5030  -5.4961  -5.4961  -5.4892
    -5.4856  -5.4856  -5.4823  -5.4810  -5.4810  -5.4784  -5.4766  -5.4732
    -5.4732  -5.4672  -5.4672  -5.4664  -5.4625  -5.4625  -5.4586  -5.4502
    -5.4502  -5.4493  -5.4493  -5.4463  -5.4402  -5.4383  -5.4383  -5.4364
    -5.4364  -5.4343  -5.4342  -5.4328  -5.4328  -5.4220  -5.4220  -5.4188
    -5.4186  -5.4186  -5.4141  -5.4117  -5.4117  -5.4097  -5.4074  -5.4074
    -5.4007  -5.4007  -5.3930  -5.3920  -5.3920  -5.3908  -5.3874  -5.3874
    -5.3859  -5.3781  -5.3781  -5.3629  -5.3629  -5.3602  -5.3585  -5.3585
    -5.3507  -5.3507  -5.3428  -5.3428  -5.3368  -5.3315  -5.3263  -5.3189
    -5.3189  -5.3084  -5.2957  -5.2957  -5.2951  -5.2900  -5.2900  -5.2784
    -5.2784  -5.2705  -5.2681  -5.2681  -5.2600  -5.2600  -5.2588  -5.2551
    -5.2551  -5.2390  -5.2346  -5.2346  -5.2217  -5.2070  -5.2028  -5.2028
    -5.1121  -5.0879  -4.7941  -4.7761  -4.7761  -4.7371  -4.7371  -4.6072
    -4.2590  -4.2376  -4.2376  -4.2266  -4.2002  -4.2002  -4.1959  -4.1959
    -4.1264  -4.1264  -4.0972  -3.8466  -3.7372  -3.4369  -3.4369  -3.4143
    -3.4136  -3.3823  -3.3411  -3.3302  -3.3302  -3.3099  -3.3098  -3.1527
    -3.1375  -3.1375  -3.0436   1.7887   2.4576   2.4889   2.4889   2.5410
     2.6154   2.6410   2.6410   2.6733   2.6733   2.8850   3.0705   3.0773
     3.0858   3.0859   3.1300   3.1300   3.1567   3.1567   3.1590   3.1735
     3.2115   3.2115   3.2164   3.2490   3.2490   3.5964   3.5964   3.7984
     3.8658   3.8658   3.9823   3.9823   4.0495   4.4125   4.5460   4.5460
     4.6114   4.6217   4.6217   4.6270   4.6270   4.6988   4.7669   4.8621
     4.8622   5.6328   5.7133   5.7133   5.7655   5.9561   5.9561   6.1578
     6.1733   6.1733   6.2531   6.2693   6.3325   6.3326   6.4166   6.4219
     6.4219   6.4458   6.4458   6.4561   6.4909   6.4909   6.5525   6.5525
     6.7732   6.8595   6.8677   6.8720   6.8721   6.8857   6.8857   6.9124
     6.9321   6.9322   7.0089   7.0372   7.0597   7.0597   7.0982   7.1941
     7.2087   7.2087   7.2337   7.2337   7.4196   7.4197   7.5636   7.5636
     7.6221   7.6944   7.7036   7.7036   7.8277   7.8700   7.8700   7.9531
     7.9532   8.2207   8.3428   8.3428   8.7287   8.8740   8.8740  10.0793
    12.3229  12.3386  12.5858  13.0078  13.0249  13.0250  13.1110  13.1136
    13.1136  13.1509  13.1921  13.1921  13.2538  13.2538  13.2673  13.2673
    13.3012  13.4004  13.4636  13.4636  13.6665  13.9501  13.9501  13.9901
    14.0258  14.0259  14.2697  14.2698  14.5686  14.5794  14.7195  14.7195
    15.0233  15.1807  15.1983  15.1983  15.3432  15.4125  15.4125  15.7164
    15.7164  15.7747  15.8194  15.8586  15.8586  15.8998  15.8998  15.9215
    15.9411  15.9472  15.9472  16.0039  16.0039  16.0534  16.0534  16.1710
    16.2577  16.2577  16.4829  16.6238  16.6238  16.6523

     occupation numbers 
     1.0000   1.0000   1.0000   1.0000   1.0000   1.0000   1.0000   1.0000
     1.0000   1.0000   1.0000   1.0000   1.0000   1.0000   1.0000   1.0000
     1.0000   1.0000   1.0000   1.0000   1.0000   1.0000   1.0000   1.0000
     1.0000   1.0000   1.0000   1.0000   1.0000   1.0000   1.0000   1.0000
     1.0000   1.0000   1.0000   1.0000   1.0000   1.0000   1.0000   1.0000
     1.0000   1.0000   1.0000   1.0000   1.0000   1.0000   1.0000   1.0000
     1.0000   1.0000   1.0000   1.0000   1.0000   1.0000   1.0000   1.0000
     1.0000   1.0000   1.0000   1.0000   1.0000   1.0000   1.0000   1.0000
     1.0000   1.0000   1.0000   1.0000   1.0000   1.0000   1.0000   1.0000
     1.0000   1.0000   1.0000   1.0000   1.0000   1.0000   1.0000   1.0000
     1.0000   1.0000   1.0000   1.0000   1.0000   1.0000   1.0000   1.0000
     1.0000   1.0000   1.0000   1.0000   1.0000   1.0000   1.0000   1.0000
     1.0000   1.0000   1.0000   1.0000   1.0000   1.0000   1.0000   1.0000
     1.0000   1.0000   1.0000   1.0000   1.0000   1.0000   1.0000   1.0000
     1.0000   1.0000   1.0000   1.0000   1.0000   1.0000   1.0000   1.0000
     1.0000   1.0000   1.0000   1.0000   1.0000   1.0000   1.0000   1.0000
     1.0000   1.0000   1.0000   1.0000   1.0000   1.0000   1.0000   1.0000
     1.0000   1.0000   1.0000   1.0000   1.0000   1.0000   1.0000   1.0000
     1.0000   1.0000   1.0000   1.0000   1.0000   1.0000   1.0000   1.0000
     1.0000   1.0000   1.0000   1.0000   1.0000   1.0000   1.0000   1.0000
     1.0000   1.0000   1.0000   1.0000   1.0000   1.0000   1.0000   1.0000
     1.0000   1.0000   1.0000   1.0000   1.0000   1.0000   1.0000   1.0000
     1.0000   1.0000   1.0000   1.0000   1.0000   1.0000   1.0000   1.0000
     1.0000   1.0000   1.0000   1.0000   1.0000   1.0000   1.0000   1.0000
     1.0000   1.0000   1.0000   1.0000   1.0000   1.0000   1.0000   1.0000
     1.0000   1.0000   1.0000   1.0000   1.0000   1.0000   1.0000   1.0000
     1.0000   1.0000   1.0000   1.0000   1.0000   1.0000   1.0000   1.0000
     1.0000   1.0000   1.0000   1.0000   1.0000   1.0000   1.0000   1.0000
     1.0000   1.0000   1.0000   1.0000   1.0000   1.0000   1.0000   1.0000
     1.0000   1.0000   1.0000   1.0000   1.0000   1.0000   1.0000   1.0000
     1.0000   1.0000   1.0000   1.0000   1.0000   1.0000   1.0000   1.0000
     1.0000   1.0000   1.0000   1.0000   1.0000   1.0000   1.0000   1.0000
     1.0000   1.0000   1.0000   1.0000   1.0000   1.0000   1.0000   1.0000
     1.0000   1.0000   1.0000   1.0000   1.0000   1.0000   1.0000   1.0000
     1.0000   1.0000   1.0000   1.0000   1.0000   1.0000   1.0000   1.0000
     1.0000   1.0000   1.0000   1.0000   1.0000   1.0000   1.0000   1.0000
     1.0000   1.0000   1.0000   1.0000   1.0000   1.0000   1.0000   1.0000
     1.0000   1.0000   1.0000   1.0000   1.0000   1.0000   1.0000   1.0000
     1.0000   1.0000   1.0000   1.0000   1.0000   1.0000   1.0000   1.0000
     1.0000   1.0000   1.0000   1.0000   0.8270   0.2850   0.2850   0.0000
     0.0000   0.0000   0.0000   0.0000   0.0000   0.0000   0.0000   0.0000
     0.0000   0.0000   0.0000   0.0000   0.0000   0.0000   0.0000   0.0000
     0.0000   0.0000   0.0000   0.0000   0.0000   0.0000   0.0000   0.0000
     0.0000   0.0000   0.0000   0.0000   0.0000   0.0000   0.0000   0.0000
     0.0000   0.0000   0.0000   0.0000   0.0000   0.0000   0.0000   0.0000
     0.0000   0.0000   0.0000   0.0000   0.0000   0.0000   0.0000   0.0000
     0.0000   0.0000   0.0000   0.0000   0.0000   0.0000   0.0000   0.0000
     0.0000   0.0000   0.0000   0.0000   0.0000   0.0000

          k = 0.0000 0.0000-0.4602 ( 58014 PWs)   bands (ev):

    -7.0890  -7.0266  -6.7963  -6.7869  -6.7868  -6.7819  -6.7685  -6.7625
    -6.7625  -6.7475  -6.7475  -6.7391  -6.7328  -6.7260  -6.7209  -6.7209
    -6.7113  -6.7062  -6.7062  -6.6908  -6.6908  -6.6800  -6.6716  -6.6716
    -6.6662  -6.6625  -6.6501  -6.6450  -6.6450  -6.6252  -6.6252  -6.6127
    -6.4244  -6.3974  -6.3974  -6.3392  -5.6494  -5.6494  -5.6271  -5.6239
    -5.6239  -5.6196  -5.6196  -5.6137  -5.6137  -5.6074  -5.6065  -5.6065
    -5.6058  -5.5895  -5.5895  -5.5871  -5.5871  -5.5851  -5.5851  -5.5817
    -5.5795  -5.5795  -5.5789  -5.5661  -5.5661  -5.5569  -5.5569  -5.5547
    -5.5528  -5.5501  -5.5496  -5.5431  -5.5431  -5.5374  -5.5374  -5.5333
    -5.5267  -5.5267  -5.5181  -5.5181  -5.5171  -5.5141  -5.5141  -5.5127
    -5.5084  -5.5084  -5.5030  -5.5022  -5.4970  -5.4915  -5.4915  -5.4895
    -5.4895  -5.4873  -5.4873  -5.4867  -5.4824  -5.4815  -5.4815  -5.4754
    -5.4754  -5.4734  -5.4672  -5.4657  -5.4657  -5.4647  -5.4564  -5.4564
    -5.4526  -5.4526  -5.4491  -5.4491  -5.4393  -5.4393  -5.4390  -5.4378
    -5.4348  -5.4348  -5.4337  -5.4295  -5.4295  -5.4222  -5.4222  -5.4203
    -5.4184  -5.4184  -5.4161  -5.4158  -5.4158  -5.4105  -5.4068  -5.4060
    -5.4060  -5.4016  -5.4016  -5.3937  -5.3937  -5.3858  -5.3858  -5.3853
    -5.3822  -5.3815  -5.3815  -5.3676  -5.3642  -5.3628  -5.3628  -5.3561
    -5.3561  -5.3519  -5.3519  -5.3403  -5.3403  -5.3380  -5.3280  -5.3247
    -5.3199  -5.3199  -5.3052  -5.2972  -5.2972  -5.2956  -5.2855  -5.2855
    -5.2799  -5.2798  -5.2688  -5.2688  -5.2623  -5.2592  -5.2592  -5.2585
    -5.2548  -5.2548  -5.2388  -5.2350  -5.2350  -5.2217  -5.2077  -5.2034
    -5.2034  -4.6816  -4.6545  -4.6545  -4.6453  -4.6453  -4.6419  -4.6270
    -4.6270  -4.5941  -4.5474  -4.5473  -4.4098  -4.3192  -4.1457  -3.6705
    -3.6380  -3.6380  -3.6374  -3.6134  -3.6134  -3.6075  -3.6075  -3.5374
    -3.5374  -3.5324  -3.4318  -3.4318  -3.4276  -3.4142  -3.3825  -3.2454
    -3.2049  -3.2049  -3.0601   2.6173   2.6283   2.6332   2.6332   2.6418
     2.6740   2.6740   2.6744   2.6984   2.6985   2.7265   2.7298   2.7338
     2.7339   2.7916   2.7955   2.8003   2.8003   2.8503   2.8671   2.8671
     3.5953   3.7846   3.7846   3.8029   3.8132   3.8132   3.8405   3.8405
     3.8451   3.8617   3.8618   3.9155   3.9390   3.9391   4.1625   4.1625
     4.7823   4.9213   4.9430   4.9430   4.9570   4.9570   4.9773   4.9773
     4.9845   5.1111   5.1111   5.4255   5.4255   5.4650   5.6447   5.6447
     6.2131   6.3237   6.3363   6.3418   6.3448   6.3448   6.3470   6.3470
     6.3796   6.3825   6.3825   6.4086   6.4114   6.4114   6.4598   6.4599
     6.5317   6.7019   6.7984   6.8078   6.8078   6.9038   7.2541   7.2772
     7.2977   7.2977   7.3095   7.3095   7.3632   7.3632   7.3688   7.3973
     7.3973   7.4178   7.4195   7.4195   7.4470   7.4603   7.4768   7.4768
     7.5019   7.5020   7.5818   7.5818   7.5896   7.6223   7.6224   7.6599
     8.1262   8.1263   8.2915   8.2916   8.6193   8.8651   8.8651  11.2235
    11.3616  12.4293  12.5903  12.6427  12.6874  12.6874  12.7106  12.7107
    12.7606  12.7607  12.8047  12.8378  12.9561  12.9562  13.2655  13.9595
    13.9953  13.9954  14.0088  14.0089  14.0205  14.0522  14.0523  14.0746
    14.3957  14.3958  14.6012  14.6012  14.7930  14.7930  14.8855  15.1840
    15.2063  15.2243  15.2243  15.2853  15.2853  15.3317  15.3534  15.4094
    15.4911  15.4912  15.5081  15.5081  15.5370  15.5506  15.5506  15.6109
    15.7195  15.7195  16.0151  16.2637  16.3041  16.3042  16.3392  16.3392
    16.3458  16.3728  16.3728  16.6132  16.6287  16.6287

     occupation numbers 
     1.0000   1.0000   1.0000   1.0000   1.0000   1.0000   1.0000   1.0000
     1.0000   1.0000   1.0000   1.0000   1.0000   1.0000   1.0000   1.0000
     1.0000   1.0000   1.0000   1.0000   1.0000   1.0000   1.0000   1.0000
     1.0000   1.0000   1.0000   1.0000   1.0000   1.0000   1.0000   1.0000
     1.0000   1.0000   1.0000   1.0000   1.0000   1.0000   1.0000   1.0000
     1.0000   1.0000   1.0000   1.0000   1.0000   1.0000   1.0000   1.0000
     1.0000   1.0000   1.0000   1.0000   1.0000   1.0000   1.0000   1.0000
     1.0000   1.0000   1.0000   1.0000   1.0000   1.0000   1.0000   1.0000
     1.0000   1.0000   1.0000   1.0000   1.0000   1.0000   1.0000   1.0000
     1.0000   1.0000   1.0000   1.0000   1.0000   1.0000   1.0000   1.0000
     1.0000   1.0000   1.0000   1.0000   1.0000   1.0000   1.0000   1.0000
     1.0000   1.0000   1.0000   1.0000   1.0000   1.0000   1.0000   1.0000
     1.0000   1.0000   1.0000   1.0000   1.0000   1.0000   1.0000   1.0000
     1.0000   1.0000   1.0000   1.0000   1.0000   1.0000   1.0000   1.0000
     1.0000   1.0000   1.0000   1.0000   1.0000   1.0000   1.0000   1.0000
     1.0000   1.0000   1.0000   1.0000   1.0000   1.0000   1.0000   1.0000
     1.0000   1.0000   1.0000   1.0000   1.0000   1.0000   1.0000   1.0000
     1.0000   1.0000   1.0000   1.0000   1.0000   1.0000   1.0000   1.0000
     1.0000   1.0000   1.0000   1.0000   1.0000   1.0000   1.0000   1.0000
     1.0000   1.0000   1.0000   1.0000   1.0000   1.0000   1.0000   1.0000
     1.0000   1.0000   1.0000   1.0000   1.0000   1.0000   1.0000   1.0000
     1.0000   1.0000   1.0000   1.0000   1.0000   1.0000   1.0000   1.0000
     1.0000   1.0000   1.0000   1.0000   1.0000   1.0000   1.0000   1.0000
     1.0000   1.0000   1.0000   1.0000   1.0000   1.0000   1.0000   1.0000
     1.0000   1.0000   1.0000   1.0000   1.0000   1.0000   1.0000   1.0000
     1.0000   1.0000   1.0000   1.0000   1.0000   1.0000   1.0000   1.0000
     1.0000   1.0000   1.0000   1.0000   1.0000   1.0000   1.0000   1.0000
     1.0000   1.0000   1.0000   1.0000   1.0000   1.0000   1.0000   1.0000
     1.0000   1.0000   1.0000   1.0000   1.0000   1.0000   1.0000   1.0000
     1.0000   1.0000   1.0000   1.0000   1.0000   1.0000   1.0000   1.0000
     1.0000   1.0000   1.0000   1.0000   1.0000   1.0000   1.0000   1.0000
     1.0000   1.0000   1.0000   1.0000   1.0000   1.0000   1.0000   1.0000
     1.0000   1.0000   1.0000   1.0000   1.0000   1.0000   1.0000   1.0000
     1.0000   1.0000   1.0000   1.0000   1.0000   1.0000   1.0000   1.0000
     1.0000   1.0000   1.0000   1.0000   1.0000   1.0000   1.0000   1.0000
     1.0000   1.0000   1.0000   1.0000   1.0000   1.0000   1.0000   1.0000
     1.0000   1.0000   1.0000   1.0000   1.0000   1.0000   1.0000   1.0000
     1.0000   1.0000   1.0000   1.0000   1.0000   1.0000   1.0000   1.0000
     1.0000   1.0000   1.0000   1.0000   1.0000   1.0000   1.0000   1.0000
     1.0000   1.0000   1.0000   1.0000   0.9812   0.3172   0.3171   0.0000
     0.0000   0.0000   0.0000   0.0000   0.0000   0.0000   0.0000   0.0000
     0.0000   0.0000   0.0000   0.0000   0.0000   0.0000   0.0000   0.0000
     0.0000   0.0000   0.0000   0.0000   0.0000   0.0000   0.0000   0.0000
     0.0000   0.0000   0.0000   0.0000   0.0000   0.0000   0.0000   0.0000
     0.0000   0.0000   0.0000   0.0000   0.0000   0.0000   0.0000   0.0000
     0.0000   0.0000   0.0000   0.0000   0.0000   0.0000   0.0000   0.0000
     0.0000   0.0000   0.0000   0.0000   0.0000   0.0000   0.0000   0.0000
     0.0000   0.0000   0.0000   0.0000   0.0000   0.0000

          k = 0.0000-0.5774 0.0000 ( 57942 PWs)   bands (ev):

    -7.0385  -6.9911  -6.8345  -6.8240  -6.7965  -6.7877  -6.7726  -6.7654
    -6.7598  -6.7501  -6.7362  -6.7338  -6.7310  -6.7271  -6.7182  -6.7099
    -6.7093  -6.6988  -6.6978  -6.6926  -6.6858  -6.6783  -6.6768  -6.6747
    -6.6611  -6.6588  -6.6576  -6.6464  -6.6451  -6.6240  -6.6237  -6.6141
    -6.4202  -6.4007  -6.3963  -6.3409  -5.6364  -5.6340  -5.6294  -5.6270
    -5.6179  -5.6146  -5.6139  -5.6127  -5.6090  -5.6057  -5.6053  -5.5996
    -5.5981  -5.5930  -5.5916  -5.5909  -5.5906  -5.5879  -5.5850  -5.5778
    -5.5764  -5.5752  -5.5747  -5.5712  -5.5658  -5.5624  -5.5613  -5.5592
    -5.5534  -5.5527  -5.5487  -5.5469  -5.5441  -5.5436  -5.5414  -5.5348
    -5.5332  -5.5278  -5.5262  -5.5217  -5.5174  -5.5160  -5.5145  -5.5118
    -5.5076  -5.5051  -5.5032  -5.5028  -5.5020  -5.4967  -5.4958  -5.4918
    -5.4918  -5.4916  -5.4868  -5.4816  -5.4797  -5.4788  -5.4781  -5.4768
    -5.4753  -5.4697  -5.4691  -5.4678  -5.4649  -5.4645  -5.4630  -5.4615
    -5.4586  -5.4569  -5.4523  -5.4505  -5.4484  -5.4470  -5.4438  -5.4407
    -5.4377  -5.4365  -5.4345  -5.4328  -5.4307  -5.4266  -5.4259  -5.4203
    -5.4196  -5.4181  -5.4166  -5.4130  -5.4130  -5.4091  -5.4088  -5.4048
    -5.4047  -5.4016  -5.3996  -5.3952  -5.3930  -5.3929  -5.3898  -5.3834
    -5.3800  -5.3792  -5.3731  -5.3706  -5.3662  -5.3613  -5.3560  -5.3528
    -5.3527  -5.3505  -5.3449  -5.3432  -5.3418  -5.3337  -5.3211  -5.3117
    -5.3082  -5.3057  -5.3007  -5.3003  -5.2992  -5.2945  -5.2887  -5.2878
    -5.2840  -5.2793  -5.2771  -5.2650  -5.2623  -5.2600  -5.2560  -5.2517
    -5.2491  -5.2464  -5.2378  -5.2333  -5.2321  -5.2309  -5.2117  -5.2105
    -5.2016  -4.9857  -4.9716  -4.8922  -4.8836  -4.8468  -4.7619  -4.4073
    -4.3868  -4.3808  -4.2947  -4.0926  -4.0815  -4.0500  -4.0010  -3.9027
    -3.7363  -3.7278  -3.7227  -3.7121  -3.6971  -3.6930  -3.6825  -3.6711
    -3.5968  -3.5656  -3.5585  -3.3923  -3.3555  -3.3149  -3.2157  -3.2139
    -3.0899  -3.0714  -3.0517   2.0563   2.1103   2.1277   2.1861   2.2938
     2.4629   2.4781   2.4820   2.4901   2.5263   2.5571   2.5782   2.5815
     2.6064   2.6201   2.6249   2.6912   2.7171   3.1820   3.3777   3.4960
     3.5366   3.5880   3.6493   3.7211   3.7271   3.7922   4.2667   4.4587
     4.4589   4.4690   4.4892   4.5035   4.5189   4.5323   4.6028   4.7426
     4.7430   4.8918   4.9103   5.0398   5.0687   5.0886   5.1785   5.4636
     5.5579   5.5794   5.5905   5.5990   5.6031   5.6995   5.7511   5.8014
     5.9082   5.9579   6.1489   6.1819   6.3858   6.4078   6.4629   6.4730
     6.4765   6.5345   6.5477   6.5814   6.5880   6.6157   6.6288   6.6389
     6.6810   6.6908   6.6952   6.6960   6.7172   6.7446   6.7507   6.7745
     6.7756   6.8148   6.8164   6.8259   6.8387   6.8391   6.8442   6.8537
     6.8669   6.8905   6.9712   6.9758   7.0020   7.0569   7.1947   7.3530
     7.4953   7.5002   7.5131   7.5378   7.5845   7.6149   7.6684   7.9271
     7.9810   8.0783   8.1548   8.2123   8.3707   8.7559   8.8335  11.5529
    11.6863  12.8423  12.8813  13.0406  13.0862  13.2466  13.2625  13.2939
    13.3884  13.5575  13.6299  13.6969  13.7241  13.7366  13.7571  13.7673
    13.8026  13.8405  13.8482  13.8926  13.9495  14.0213  14.0366  14.0926
    14.2337  14.4033  14.4248  14.4717  14.5046  14.5091  14.5988  14.7191
    14.7603  14.8595  14.9675  14.9715  15.0898  15.1261  15.2673  15.3735
    15.8078  15.8244  15.8379  15.8603  15.9127  15.9298  15.9527  16.0030
    16.0537  16.0724  16.0785  16.1101  16.1612  16.1626  16.2137  16.2324
    16.2981  16.3394  16.3887  16.4088  16.4285  16.4408

     occupation numbers 
     1.0000   1.0000   1.0000   1.0000   1.0000   1.0000   1.0000   1.0000
     1.0000   1.0000   1.0000   1.0000   1.0000   1.0000   1.0000   1.0000
     1.0000   1.0000   1.0000   1.0000   1.0000   1.0000   1.0000   1.0000
     1.0000   1.0000   1.0000   1.0000   1.0000   1.0000   1.0000   1.0000
     1.0000   1.0000   1.0000   1.0000   1.0000   1.0000   1.0000   1.0000
     1.0000   1.0000   1.0000   1.0000   1.0000   1.0000   1.0000   1.0000
     1.0000   1.0000   1.0000   1.0000   1.0000   1.0000   1.0000   1.0000
     1.0000   1.0000   1.0000   1.0000   1.0000   1.0000   1.0000   1.0000
     1.0000   1.0000   1.0000   1.0000   1.0000   1.0000   1.0000   1.0000
     1.0000   1.0000   1.0000   1.0000   1.0000   1.0000   1.0000   1.0000
     1.0000   1.0000   1.0000   1.0000   1.0000   1.0000   1.0000   1.0000
     1.0000   1.0000   1.0000   1.0000   1.0000   1.0000   1.0000   1.0000
     1.0000   1.0000   1.0000   1.0000   1.0000   1.0000   1.0000   1.0000
     1.0000   1.0000   1.0000   1.0000   1.0000   1.0000   1.0000   1.0000
     1.0000   1.0000   1.0000   1.0000   1.0000   1.0000   1.0000   1.0000
     1.0000   1.0000   1.0000   1.0000   1.0000   1.0000   1.0000   1.0000
     1.0000   1.0000   1.0000   1.0000   1.0000   1.0000   1.0000   1.0000
     1.0000   1.0000   1.0000   1.0000   1.0000   1.0000   1.0000   1.0000
     1.0000   1.0000   1.0000   1.0000   1.0000   1.0000   1.0000   1.0000
     1.0000   1.0000   1.0000   1.0000   1.0000   1.0000   1.0000   1.0000
     1.0000   1.0000   1.0000   1.0000   1.0000   1.0000   1.0000   1.0000
     1.0000   1.0000   1.0000   1.0000   1.0000   1.0000   1.0000   1.0000
     1.0000   1.0000   1.0000   1.0000   1.0000   1.0000   1.0000   1.0000
     1.0000   1.0000   1.0000   1.0000   1.0000   1.0000   1.0000   1.0000
     1.0000   1.0000   1.0000   1.0000   1.0000   1.0000   1.0000   1.0000
     1.0000   1.0000   1.0000   1.0000   1.0000   1.0000   1.0000   1.0000
     1.0000   1.0000   1.0000   1.0000   1.0000   1.0000   1.0000   1.0000
     1.0000   1.0000   1.0000   1.0000   1.0000   1.0000   1.0000   1.0000
     1.0000   1.0000   1.0000   1.0000   1.0000   1.0000   1.0000   1.0000
     1.0000   1.0000   1.0000   1.0000   1.0000   1.0000   1.0000   1.0000
     1.0000   1.0000   1.0000   1.0000   1.0000   1.0000   1.0000   1.0000
     1.0000   1.0000   1.0000   1.0000   1.0000   1.0000   1.0000   1.0000
     1.0000   1.0000   1.0000   1.0000   1.0000   1.0000   1.0000   1.0000
     1.0000   1.0000   1.0000   1.0000   1.0000   1.0000   1.0000   1.0000
     1.0000   1.0000   1.0000   1.0000   1.0000   1.0000   1.0000   1.0000
     1.0000   1.0000   1.0000   1.0000   1.0000   1.0000   1.0000   1.0000
     1.0000   1.0000   1.0000   1.0000   1.0000   1.0000   1.0000   1.0000
     1.0000   1.0000   1.0000   1.0000   1.0000   1.0000   1.0000   1.0000
     1.0000   1.0000   1.0000   1.0000   1.0000   1.0000   1.0000   1.0000
     1.0000   1.0000   1.0000   1.0000   1.0000   0.7450   0.4416   0.0000
     0.0000   0.0000   0.0000   0.0000   0.0000   0.0000   0.0000   0.0000
     0.0000   0.0000   0.0000   0.0000   0.0000   0.0000   0.0000   0.0000
     0.0000   0.0000   0.0000   0.0000   0.0000   0.0000   0.0000   0.0000
     0.0000   0.0000   0.0000   0.0000   0.0000   0.0000   0.0000   0.0000
     0.0000   0.0000   0.0000   0.0000   0.0000   0.0000   0.0000   0.0000
     0.0000   0.0000   0.0000   0.0000   0.0000   0.0000   0.0000   0.0000
     0.0000   0.0000   0.0000   0.0000   0.0000   0.0000   0.0000   0.0000
     0.0000   0.0000   0.0000   0.0000   0.0000   0.0000

          k = 0.0000-0.5774-0.4602 ( 57848 PWs)   bands (ev):

    -6.9603  -6.9305  -6.9205  -6.8693  -6.8012  -6.7935  -6.7622  -6.7610
    -6.7569  -6.7437  -6.7424  -6.7414  -6.7309  -6.7222  -6.7168  -6.7147
    -6.7011  -6.6987  -6.6952  -6.6909  -6.6865  -6.6837  -6.6809  -6.6799
    -6.6747  -6.6651  -6.6537  -6.6461  -6.6448  -6.6249  -6.6248  -6.6143
    -6.4228  -6.4017  -6.3975  -6.3401  -5.6324  -5.6313  -5.6282  -5.6191
    -5.6177  -5.6154  -5.6116  -5.6092  -5.6084  -5.6052  -5.6024  -5.6004
    -5.5986  -5.5939  -5.5915  -5.5886  -5.5879  -5.5827  -5.5824  -5.5809
    -5.5787  -5.5768  -5.5760  -5.5713  -5.5702  -5.5685  -5.5644  -5.5623
    -5.5597  -5.5548  -5.5547  -5.5475  -5.5457  -5.5412  -5.5376  -5.5355
    -5.5333  -5.5314  -5.5242  -5.5232  -5.5214  -5.5179  -5.5162  -5.5148
    -5.5148  -5.5067  -5.5062  -5.5041  -5.5014  -5.4977  -5.4951  -5.4931
    -5.4922  -5.4880  -5.4865  -5.4850  -5.4796  -5.4786  -5.4780  -5.4763
    -5.4736  -5.4698  -5.4688  -5.4664  -5.4636  -5.4623  -5.4606  -5.4591
    -5.4565  -5.4532  -5.4513  -5.4490  -5.4444  -5.4435  -5.4403  -5.4389
    -5.4372  -5.4329  -5.4328  -5.4277  -5.4267  -5.4248  -5.4207  -5.4199
    -5.4191  -5.4170  -5.4142  -5.4117  -5.4102  -5.4063  -5.4051  -5.4040
    -5.4025  -5.4016  -5.3989  -5.3964  -5.3899  -5.3889  -5.3826  -5.3811
    -5.3809  -5.3737  -5.3718  -5.3676  -5.3663  -5.3583  -5.3568  -5.3545
    -5.3532  -5.3520  -5.3437  -5.3409  -5.3364  -5.3347  -5.3192  -5.3124
    -5.3115  -5.3065  -5.3053  -5.3018  -5.2985  -5.2898  -5.2849  -5.2829
    -5.2791  -5.2782  -5.2746  -5.2671  -5.2632  -5.2589  -5.2555  -5.2505
    -5.2499  -5.2480  -5.2450  -5.2382  -5.2328  -5.2322  -5.2313  -5.2122
    -5.2080  -5.2022  -5.1847  -4.8782  -4.8656  -4.8190  -4.7114  -4.1589
    -4.1307  -4.1056  -4.0620  -4.0136  -4.0132  -3.9889  -3.9867  -3.9743
    -3.9550  -3.9061  -3.8931  -3.8541  -3.7921  -3.7473  -3.6977  -3.6810
    -3.4873  -3.4602  -3.4297  -3.3869  -3.3830  -3.3585  -3.3535  -3.2432
    -3.1691  -3.1562  -3.0825   1.9877   2.0805   2.3450   2.3748   2.3943
     2.3997   2.4083   2.4088   2.4935   2.5982   2.7582   2.8255   2.8597
     2.8762   2.8849   2.9270   2.9564   3.0020   3.0284   3.0560   3.0799
     3.0978   3.1173   3.1258   3.1364   3.2506   3.3061   4.3212   4.4868
     4.4908   4.5965   4.7277   4.8739   4.8824   4.8852   4.9096   4.9308
     5.0422   5.0762   5.1533   5.2058   5.2623   5.3123   5.3450   5.3857
     5.5374   5.6032   5.6289   5.6310   5.6517   5.7080   5.7132   5.8225
     5.8602   5.8731   5.9252   6.0203   6.0419   6.0725   6.1197   6.1261
     6.1406   6.1911   6.2252   6.2343   6.2830   6.3221   6.3292   6.3346
     6.3374   6.4145   6.4175   6.4331   6.6193   6.8331   6.8582   6.9507
     6.9708   6.9948   7.0057   7.0585   7.0620   7.0809   7.0945   7.1014
     7.1363   7.1575   7.1709   7.2044   7.2044   7.2315   7.3253   7.3318
     7.5369   7.5754   7.5920   7.6408   7.6739   7.7492   7.7815   7.8240
     7.9714   8.0063   8.0394   8.0519   8.3141   8.7744   8.8282  12.1376
    12.1708  12.1813  12.3261  12.7444  12.8048  13.1138  13.1219  13.1480
    13.2308  13.4825  13.5845  13.5884  13.6060  13.6183  13.6380  13.6413
    13.6501  13.6580  13.7216  13.7923  13.8651  13.9883  14.3333  14.7548
    14.7605  14.7788  14.8015  14.8405  14.8429  14.8496  14.8665  14.9227
    14.9928  15.0591  15.1882  15.4393  15.4407  15.4926  15.5243  15.5425
    15.5492  15.6416  15.6426  15.6973  15.7041  15.7849  15.7926  15.8264
    15.8974  16.0217  16.0522  16.0574  16.1159  16.1834  16.1858  16.1940
    16.2444  16.2511  16.2614  16.3461  16.3469  16.4020

     occupation numbers 
     1.0000   1.0000   1.0000   1.0000   1.0000   1.0000   1.0000   1.0000
     1.0000   1.0000   1.0000   1.0000   1.0000   1.0000   1.0000   1.0000
     1.0000   1.0000   1.0000   1.0000   1.0000   1.0000   1.0000   1.0000
     1.0000   1.0000   1.0000   1.0000   1.0000   1.0000   1.0000   1.0000
     1.0000   1.0000   1.0000   1.0000   1.0000   1.0000   1.0000   1.0000
     1.0000   1.0000   1.0000   1.0000   1.0000   1.0000   1.0000   1.0000
     1.0000   1.0000   1.0000   1.0000   1.0000   1.0000   1.0000   1.0000
     1.0000   1.0000   1.0000   1.0000   1.0000   1.0000   1.0000   1.0000
     1.0000   1.0000   1.0000   1.0000   1.0000   1.0000   1.0000   1.0000
     1.0000   1.0000   1.0000   1.0000   1.0000   1.0000   1.0000   1.0000
     1.0000   1.0000   1.0000   1.0000   1.0000   1.0000   1.0000   1.0000
     1.0000   1.0000   1.0000   1.0000   1.0000   1.0000   1.0000   1.0000
     1.0000   1.0000   1.0000   1.0000   1.0000   1.0000   1.0000   1.0000
     1.0000   1.0000   1.0000   1.0000   1.0000   1.0000   1.0000   1.0000
     1.0000   1.0000   1.0000   1.0000   1.0000   1.0000   1.0000   1.0000
     1.0000   1.0000   1.0000   1.0000   1.0000   1.0000   1.0000   1.0000
     1.0000   1.0000   1.0000   1.0000   1.0000   1.0000   1.0000   1.0000
     1.0000   1.0000   1.0000   1.0000   1.0000   1.0000   1.0000   1.0000
     1.0000   1.0000   1.0000   1.0000   1.0000   1.0000   1.0000   1.0000
     1.0000   1.0000   1.0000   1.0000   1.0000   1.0000   1.0000   1.0000
     1.0000   1.0000   1.0000   1.0000   1.0000   1.0000   1.0000   1.0000
     1.0000   1.0000   1.0000   1.0000   1.0000   1.0000   1.0000   1.0000
     1.0000   1.0000   1.0000   1.0000   1.0000   1.0000   1.0000   1.0000
     1.0000   1.0000   1.0000   1.0000   1.0000   1.0000   1.0000   1.0000
     1.0000   1.0000   1.0000   1.0000   1.0000   1.0000   1.0000   1.0000
     1.0000   1.0000   1.0000   1.0000   1.0000   1.0000   1.0000   1.0000
     1.0000   1.0000   1.0000   1.0000   1.0000   1.0000   1.0000   1.0000
     1.0000   1.0000   1.0000   1.0000   1.0000   1.0000   1.0000   1.0000
     1.0000   1.0000   1.0000   1.0000   1.0000   1.0000   1.0000   1.0000
     1.0000   1.0000   1.0000   1.0000   1.0000   1.0000   1.0000   1.0000
     1.0000   1.0000   1.0000   1.0000   1.0000   1.0000   1.0000   1.0000
     1.0000   1.0000   1.0000   1.0000   1.0000   1.0000   1.0000   1.0000
     1.0000   1.0000   1.0000   1.0000   1.0000   1.0000   1.0000   1.0000
     1.0000   1.0000   1.0000   1.0000   1.0000   1.0000   1.0000   1.0000
     1.0000   1.0000   1.0000   1.0000   1.0000   1.0000   1.0000   1.0000
     1.0000   1.0000   1.0000   1.0000   1.0000   1.0000   1.0000   1.0000
     1.0000   1.0000   1.0000   1.0000   1.0000   1.0000   1.0000   1.0000
     1.0000   1.0000   1.0000   1.0000   1.0000   1.0000   1.0000   1.0000
     1.0000   1.0000   1.0000   1.0000   1.0000   1.0000   1.0000   1.0000
     1.0000   1.0000   1.0000   1.0000   1.0000   0.6795   0.4631   0.0000
     0.0000   0.0000   0.0000   0.0000   0.0000   0.0000   0.0000   0.0000
     0.0000   0.0000   0.0000   0.0000   0.0000   0.0000   0.0000   0.0000
     0.0000   0.0000   0.0000   0.0000   0.0000   0.0000   0.0000   0.0000
     0.0000   0.0000   0.0000   0.0000   0.0000   0.0000   0.0000   0.0000
     0.0000   0.0000   0.0000   0.0000   0.0000   0.0000   0.0000   0.0000
     0.0000   0.0000   0.0000   0.0000   0.0000   0.0000   0.0000   0.0000
     0.0000   0.0000   0.0000   0.0000   0.0000   0.0000   0.0000   0.0000
     0.0000   0.0000   0.0000   0.0000   0.0000   0.0000

     the Fermi energy is     8.8193 ev

!    total energy              =  -10957.96924883 Ry
     total all-electron energy =   -140240.489122 Ry
     estimated scf accuracy    <       0.00000007 Ry
     smearing contrib. (-TS)   =      -0.01079381 Ry
     internal energy E=F+TS    =  -10957.95845503 Ry

     The total energy is F=E-TS. E is the sum of the following terms:
     one-electron contribution =   -3415.25983360 Ry
     hartree contribution      =    2367.86479182 Ry
     xc contribution           =   -1599.53943792 Ry
     ewald contribution        =   -3952.99259011 Ry
     one-center paw contrib.   =   -4358.03138523 Ry
      -> PAW hartree energy AE =     144.52190738 Ry
      -> PAW hartree energy PS =    -143.10339182 Ry
      -> PAW xc energy AE      =    -156.94313263 Ry
      -> PAW xc energy PS      =      39.72937082 Ry
      -> total E_H with PAW    =    2369.28330738 Ry
      -> total E_XC with PAW   =   -1716.75319973 Ry

     convergence has been achieved in   3 iterations


     -----------------------------------------------
     Non-local corr. energy    =      19.17515139 Ry
     -----------------------------------------------


     Forces acting on atoms (cartesian axes, Ry/au):

     atom    1 type  1   force =     0.00000000    0.00000000    0.00021407
     atom    2 type  1   force =     0.00032557   -0.00022583    0.00013626
     atom    3 type  1   force =    -0.00013301    0.00009263   -0.00010593
     atom    4 type  1   force =    -0.00003279    0.00039487    0.00013626
     atom    5 type  1   force =     0.00001372   -0.00016150   -0.00010593
     atom    6 type  1   force =    -0.00035836   -0.00016904    0.00013626
     atom    7 type  1   force =     0.00014672    0.00006887   -0.00010593
     atom    8 type  1   force =    -0.00032557   -0.00022583    0.00013626
     atom    9 type  1   force =     0.00013301    0.00009263   -0.00010593
     atom   10 type  1   force =     0.00000000    0.00000000    0.00023683
     atom   11 type  1   force =     0.00000000    0.00000000    0.00024452
     atom   12 type  1   force =     0.00035836   -0.00016904    0.00013626
     atom   13 type  1   force =    -0.00014672    0.00006887   -0.00010593
     atom   14 type  1   force =     0.00000000    0.00000000    0.00004870
     atom   15 type  1   force =     0.00000000    0.00000000    0.00093793
     atom   16 type  1   force =     0.00003279    0.00039487    0.00013626
     atom   17 type  1   force =    -0.00001372   -0.00016150   -0.00010593
     atom   18 type  1   force =     0.00017979   -0.00010380    0.00032342
     atom   19 type  1   force =     0.00003995   -0.00002306   -0.00074682
     atom   20 type  1   force =    -0.00042331   -0.00024440    0.00022607
     atom   21 type  1   force =    -0.00017234   -0.00009950   -0.00026751
     atom   22 type  1   force =     0.00000000    0.00020760    0.00032342
     atom   23 type  1   force =     0.00000000    0.00004613   -0.00074682
     atom   24 type  1   force =    -0.00017979   -0.00010380    0.00032342
     atom   25 type  1   force =    -0.00003995   -0.00002306   -0.00074682
     atom   26 type  1   force =     0.00000000    0.00021971    0.00010434
     atom   27 type  1   force =     0.00000000    0.00029040   -0.00030617
     atom   28 type  1   force =     0.00019028   -0.00010986    0.00010434
     atom   29 type  1   force =     0.00025150   -0.00014520   -0.00030617
     atom   30 type  1   force =     0.00000000    0.00048879    0.00022607
     atom   31 type  1   force =     0.00000000    0.00019900   -0.00026751
     atom   32 type  1   force =     0.00042331   -0.00024440    0.00022607
     atom   33 type  1   force =     0.00017234   -0.00009950   -0.00026751
     atom   34 type  1   force =    -0.00019028   -0.00010986    0.00010434
     atom   35 type  1   force =    -0.00025150   -0.00014520   -0.00030617
     atom   36 type  2   force =     0.00000000    0.00000000    0.00053868
     atom   37 type  2   force =     0.00000000    0.00000000    0.00098477
     atom   38 type  2   force =     0.00015091   -0.00053110   -0.00011670
     atom   39 type  2   force =     0.00011235   -0.00000516    0.00010227
     atom   40 type  2   force =    -0.00038449    0.00039624   -0.00011670
     atom   41 type  2   force =     0.00005171    0.00009988    0.00010227
     atom   42 type  2   force =    -0.00053540    0.00013486   -0.00011670
     atom   43 type  2   force =    -0.00006064   -0.00009472    0.00010227
     atom   44 type  2   force =    -0.00015091   -0.00053110   -0.00011670
     atom   45 type  2   force =    -0.00011235   -0.00000516    0.00010227
     atom   46 type  2   force =     0.00000000    0.00000000   -0.00015086
     atom   47 type  2   force =     0.00000000    0.00000000    0.00014704
     atom   48 type  2   force =     0.00053540    0.00013486   -0.00011670
     atom   49 type  2   force =     0.00006064   -0.00009472    0.00010227
     atom   50 type  2   force =     0.00000000    0.00000000    0.00036957
     atom   51 type  2   force =     0.00000000    0.00000000   -0.00053753
     atom   52 type  2   force =     0.00038449    0.00039624   -0.00011670
     atom   53 type  2   force =    -0.00005171    0.00009988    0.00010227
     atom   54 type  2   force =     0.00010682   -0.00006167   -0.00054187
     atom   55 type  2   force =    -0.00004671    0.00002697    0.00029860
     atom   56 type  2   force =     0.00011562    0.00006675   -0.00011055
     atom   57 type  2   force =    -0.00039666   -0.00022901   -0.00000247
     atom   58 type  2   force =     0.00000000    0.00012334   -0.00054187
     atom   59 type  2   force =     0.00000000   -0.00005394    0.00029860
     atom   60 type  2   force =    -0.00010682   -0.00006167   -0.00054187
     atom   61 type  2   force =     0.00004671    0.00002697    0.00029860
     atom   62 type  2   force =     0.00000000   -0.00061091    0.00009928
     atom   63 type  2   force =     0.00000000    0.00036014   -0.00011937
     atom   64 type  2   force =    -0.00052906    0.00030545    0.00009928
     atom   65 type  2   force =     0.00031189   -0.00018007   -0.00011937
     atom   66 type  2   force =     0.00000000   -0.00013350   -0.00011055
     atom   67 type  2   force =    -0.00000000    0.00045803   -0.00000247
     atom   68 type  2   force =    -0.00011562    0.00006675   -0.00011055
     atom   69 type  2   force =     0.00039666   -0.00022901   -0.00000247
     atom   70 type  2   force =     0.00052906    0.00030545    0.00009928
     atom   71 type  2   force =    -0.00031189   -0.00018007   -0.00011937
     The non-local contrib.  to forces
     atom    1 type  1   force =     0.00000000    0.00000000   -0.00771003
     atom    2 type  1   force =     0.03889749    0.15336573    0.07300005
     atom    3 type  1   force =     0.00806268    0.02950426   -0.01910708
     atom    4 type  1   force =     0.15226736   -0.04299665    0.07300005
     atom    5 type  1   force =     0.02958278   -0.00776964   -0.01910708
     atom    6 type  1   force =     0.11336987   -0.11036908    0.07300005
     atom    7 type  1   force =     0.02152010   -0.02173462   -0.01910708
     atom    8 type  1   force =    -0.03889749    0.15336573    0.07300005
     atom    9 type  1   force =    -0.00806268    0.02950426   -0.01910708
     atom   10 type  1   force =     0.00000000   -0.00000000    0.01983485
     atom   11 type  1   force =     0.00000000   -0.00000000   -0.00055032
     atom   12 type  1   force =    -0.11336987   -0.11036908    0.07300005
     atom   13 type  1   force =    -0.02152010   -0.02173462   -0.01910708
     atom   14 type  1   force =     0.00000000    0.00000000    0.00123217
     atom   15 type  1   force =     0.00000000    0.00000000    0.00371551
     atom   16 type  1   force =    -0.15226736   -0.04299665    0.07300005
     atom   17 type  1   force =    -0.02958278   -0.00776964   -0.01910708
     atom   18 type  1   force =    -0.18162042    0.10485860    0.02934483
     atom   19 type  1   force =     0.03641734   -0.02102556   -0.17178799
     atom   20 type  1   force =    -0.01582700   -0.00913773    0.01057245
     atom   21 type  1   force =    -0.00948370   -0.00547542   -0.00691645
     atom   22 type  1   force =     0.00000000   -0.20971719    0.02934483
     atom   23 type  1   force =     0.00000000    0.04205112   -0.17178799
     atom   24 type  1   force =     0.18162042    0.10485860    0.02934483
     atom   25 type  1   force =    -0.03641734   -0.02102556   -0.17178799
     atom   26 type  1   force =     0.00000000    0.01265514    0.00321661
     atom   27 type  1   force =     0.00000000    0.00813405    0.01254799
     atom   28 type  1   force =     0.01095967   -0.00632757    0.00321661
     atom   29 type  1   force =     0.00704429   -0.00406702    0.01254799
     atom   30 type  1   force =     0.00000000    0.01827545    0.01057245
     atom   31 type  1   force =    -0.00000000    0.01095083   -0.00691645
     atom   32 type  1   force =     0.01582700   -0.00913773    0.01057245
     atom   33 type  1   force =     0.00948370   -0.00547542   -0.00691645
     atom   34 type  1   force =    -0.01095967   -0.00632757    0.00321661
     atom   35 type  1   force =    -0.00704429   -0.00406702    0.01254799
     atom   36 type  2   force =     0.00000000   -0.00000000    0.51975351
     atom   37 type  2   force =     0.00000000    0.00000000    0.04277843
     atom   38 type  2   force =     0.00498977    0.01360021    0.00982556
     atom   39 type  2   force =     0.01751682    0.03990877   -0.00242229
     atom   40 type  2   force =     0.01427301   -0.00247884    0.00982556
     atom   41 type  2   force =     0.04332042   -0.00478437   -0.00242229
     atom   42 type  2   force =     0.00928324   -0.01112137    0.00982556
     atom   43 type  2   force =     0.02580360   -0.03512440   -0.00242229
     atom   44 type  2   force =    -0.00498977    0.01360021    0.00982556
     atom   45 type  2   force =    -0.01751682    0.03990877   -0.00242229
     atom   46 type  2   force =     0.00000000    0.00000000    0.01169694
     atom   47 type  2   force =     0.00000000    0.00000000    0.00570209
     atom   48 type  2   force =    -0.00928324   -0.01112137    0.00982556
     atom   49 type  2   force =    -0.02580360   -0.03512440   -0.00242229
     atom   50 type  2   force =     0.00000000   -0.00000000    0.02715785
     atom   51 type  2   force =     0.00000000   -0.00000000    0.00411666
     atom   52 type  2   force =    -0.01427301   -0.00247884    0.00982556
     atom   53 type  2   force =    -0.04332042   -0.00478437   -0.00242229
     atom   54 type  2   force =    -0.37373485    0.21577591   -0.15845391
     atom   55 type  2   force =    -0.01788043    0.01032327    0.09046609
     atom   56 type  2   force =    -0.03298496   -0.01904387   -0.03349412
     atom   57 type  2   force =    -0.00456037   -0.00263293    0.01896844
     atom   58 type  2   force =     0.00000000   -0.43155183   -0.15845391
     atom   59 type  2   force =     0.00000000   -0.02064655    0.09046609
     atom   60 type  2   force =     0.37373485    0.21577591   -0.15845391
     atom   61 type  2   force =     0.01788043    0.01032327    0.09046609
     atom   62 type  2   force =     0.00000000    0.00015423    0.01369802
     atom   63 type  2   force =     0.00000000    0.00831339    0.01028335
     atom   64 type  2   force =     0.00013357   -0.00007711    0.01369802
     atom   65 type  2   force =     0.00719961   -0.00415669    0.01028335
     atom   66 type  2   force =     0.00000000    0.03808775   -0.03349412
     atom   67 type  2   force =     0.00000000    0.00526586    0.01896844
     atom   68 type  2   force =     0.03298496   -0.01904387   -0.03349412
     atom   69 type  2   force =     0.00456037   -0.00263293    0.01896844
     atom   70 type  2   force =    -0.00013357   -0.00007711    0.01369802
     atom   71 type  2   force =    -0.00719961   -0.00415669    0.01028335
     The ionic contribution  to forces
     atom    1 type  1   force =    -0.00003430    0.00001998    0.90307752
     atom    2 type  1   force =     3.80856981   -5.32563719    0.43972086
     atom    3 type  1   force =     0.35094218   -0.71051346    0.22011888
     atom    4 type  1   force =    -2.70789168    5.96118637    0.43971641
     atom    5 type  1   force =    -0.43988688    0.65924170    0.22011887
     atom    6 type  1   force =    -6.51648307   -0.63548862    0.43971609
     atom    7 type  1   force =    -0.79086106    0.05133393    0.22011868
     atom    8 type  1   force =    -3.80863056   -5.32562685    0.43972324
     atom    9 type  1   force =    -0.35100803   -0.71051239    0.22011921
     atom   10 type  1   force =    -0.00003333    0.00002212    0.15974041
     atom   11 type  1   force =    -0.00003271    0.00002175    0.20539093
     atom   12 type  1   force =     6.51642432   -0.63549746    0.43972018
     atom   13 type  1   force =     0.79079624    0.05133355    0.22011854
     atom   14 type  1   force =    -0.00003321    0.00002209    0.33480072
     atom   15 type  1   force =    -0.00003195    0.00002132    0.28952074
     atom   16 type  1   force =     2.70781543    5.96118781    0.43972284
     atom   17 type  1   force =     0.43982022    0.65924239    0.22011906
     atom   18 type  1   force =     2.78948691   -1.61051519   -6.38601544
     atom   19 type  1   force =     4.43222284   -2.55894923    5.68413611
     atom   20 type  1   force =     0.09122619    0.05263396   -1.37616374
     atom   21 type  1   force =     0.24182468    0.13958397    1.53792095
     atom   22 type  1   force =     0.00003806    3.22095529   -6.38604275
     atom   23 type  1   force =     0.00003851    5.11783721    5.68415961
     atom   24 type  1   force =    -2.78941125   -1.61051542   -6.38604126
     atom   25 type  1   force =    -4.43215841   -2.55895648    5.68415890
     atom   26 type  1   force =     0.00003448   -1.75174947   -1.93715395
     atom   27 type  1   force =     0.00003410   -1.95137540    2.34268816
     atom   28 type  1   force =    -1.51701583    0.87584835   -1.93715998
     atom   29 type  1   force =    -1.68989762    0.97566172    2.34269428
     atom   30 type  1   force =     0.00002996   -0.10532560   -1.37616353
     atom   31 type  1   force =     0.00002838   -0.27922268    1.53792103
     atom   32 type  1   force =    -0.09116083    0.05263086   -1.37616405
     atom   33 type  1   force =    -0.24176065    0.13957981    1.53792310
     atom   34 type  1   force =     1.51707630    0.87584337   -1.93715434
     atom   35 type  1   force =     1.68995726    0.97565669    2.34268830
     atom   36 type  2   force =    -0.00003674    0.00002246   -8.85110454
     atom   37 type  2   force =    -0.00002940    0.00001787    2.30695945
     atom   38 type  2   force =     0.58049552   -1.19802515   -1.21425932
     atom   39 type  2   force =     0.27647760   -0.75372209    0.67656106
     atom   40 type  2   force =    -0.74730307    1.10179232   -1.21426002
     atom   41 type  2   force =    -0.51453237    0.61635033    0.67656069
     atom   42 type  2   force =    -1.32782986    0.09628933   -1.21425992
     atom   43 type  2   force =    -0.79103947    0.13742496    0.67656092
     atom   44 type  2   force =    -0.58055674   -1.19802583   -1.21425844
     atom   45 type  2   force =    -0.27653747   -0.75372154    0.67656075
     atom   46 type  2   force =    -0.00002965    0.00001922   -0.68401944
     atom   47 type  2   force =    -0.00002956    0.00001917    0.37516096
     atom   48 type  2   force =     1.32776980    0.09629082   -1.21425905
     atom   49 type  2   force =     0.79098302    0.13742650    0.67656137
     atom   50 type  2   force =    -0.00002917    0.00001913   -0.66703762
     atom   51 type  2   force =    -0.00002893    0.00001897    0.22809925
     atom   52 type  2   force =     0.74724432    1.10179314   -1.21425831
     atom   53 type  2   force =     0.51447506    0.61635243    0.67656085
     atom   54 type  2   force =     6.89295298   -3.97965226    2.61478826
     atom   55 type  2   force =     0.25300565   -0.14607562   -0.73556022
     atom   56 type  2   force =     0.45203406    0.26095096    0.37690792
     atom   57 type  2   force =     0.01178012    0.00676604   -0.39101835
     atom   58 type  2   force =     0.00005179    7.95930984    2.61481705
     atom   59 type  2   force =     0.00003090    0.29209289   -0.73555894
     atom   60 type  2   force =    -6.89293662   -3.97970265    2.61481544
     atom   61 type  2   force =    -0.25294556   -0.14607650   -0.73555931
     atom   62 type  2   force =     0.00002906   -1.47749956    0.17209163
     atom   63 type  2   force =     0.00002953   -0.30877406   -0.34711687
     atom   64 type  2   force =    -1.27951174    0.73872524    0.17209279
     atom   65 type  2   force =    -0.26736070    0.15435952   -0.34711693
     atom   66 type  2   force =     0.00002575   -0.52195185    0.37690770
     atom   67 type  2   force =     0.00002924   -0.01358822   -0.39101854
     atom   68 type  2   force =    -0.45197594    0.26094721    0.37690855
     atom   69 type  2   force =    -0.01172140    0.00676595   -0.39101846
     atom   70 type  2   force =     1.27956571    0.73872276    0.17209180
     atom   71 type  2   force =     0.26741978    0.15435946   -0.34711675
     The local contribution  to forces
     atom    1 type  1   force =    -0.00015901    0.00020178   -0.89585351
     atom    2 type  1   force =    -3.84656230    5.17418063   -0.51195728
     atom    3 type  1   force =    -0.35921199    0.68181220   -0.20170267
     atom    4 type  1   force =     2.55746208   -5.91790684   -0.51195228
     atom    5 type  1   force =     0.41059852   -0.65153795   -0.20169989
     atom    6 type  1   force =     6.40386587    0.74429692   -0.51195756
     atom    7 type  1   force =     0.76965909   -0.02965499   -0.20170119
     atom    8 type  1   force =     3.84626755    5.17420610   -0.51195378
     atom    9 type  1   force =     0.35889319    0.68181248   -0.20170008
     atom   10 type  1   force =    -0.00015093    0.00020947   -0.17933430
     atom   11 type  1   force =    -0.00015914    0.00021078   -0.20484571
     atom   12 type  1   force =    -6.40417667    0.74429845   -0.51195638
     atom   13 type  1   force =    -0.76996154   -0.02965525   -0.20170164
     atom   14 type  1   force =    -0.00014197    0.00020249   -0.33546709
     atom   15 type  1   force =    -0.00015139    0.00020665   -0.29256438
     atom   16 type  1   force =    -2.55775605   -5.91788149   -0.51195620
     atom   17 type  1   force =    -0.41091739   -0.65153813   -0.20170241
     atom   18 type  1   force =    -2.60930221    1.50652054    6.35712742
     atom   19 type  1   force =    -4.46720488    2.57918236   -5.51630925
     atom   20 type  1   force =    -0.07504472   -0.04445714    1.36584863
     atom   21 type  1   force =    -0.23182156   -0.13497065   -1.53207604
     atom   22 type  1   force =     0.00100188   -3.01465539    6.35715543
     atom   23 type  1   force =     0.00100164   -5.15999335   -5.51634212
     atom   24 type  1   force =     2.61131945    1.50652126    6.35715473
     atom   25 type  1   force =     4.46923619    2.57918905   -5.51634084
     atom   26 type  1   force =     0.00101365    1.73895173    1.93376489
     atom   27 type  1   force =     0.00101351    1.94313268   -2.35551930
     atom   28 type  1   force =     1.50746310   -0.87028535    1.93377220
     atom   29 type  1   force =     1.68429011   -0.97237776   -2.35552713
     atom   30 type  1   force =     0.00102784    0.08727690    1.36584916
     atom   31 type  1   force =     0.00102807    0.26830657   -1.53207562
     atom   32 type  1   force =     0.07707608   -0.04444992    1.36584972
     atom   33 type  1   force =     0.23385183   -0.13496578   -1.53207818
     atom   34 type  1   force =    -1.50542787   -0.87027954    1.93376351
     atom   35 type  1   force =    -1.68225418   -0.97236997   -2.35551822
     atom   36 type  2   force =    -0.00000926    0.00001367    8.33993233
     atom   37 type  2   force =    -0.00001341    0.00001744   -2.34811678
     atom   38 type  2   force =    -0.58529879    1.18414383    1.20426816
     atom   39 type  2   force =    -0.29364729    0.71447393   -0.67416220
     atom   40 type  2   force =     0.73282677   -1.09891817    1.20426720
     atom   41 type  2   force =     0.47190706   -0.61150487   -0.67416188
     atom   42 type  2   force =     1.31811303   -0.08517378    1.20426705
     atom   43 type  2   force =     0.76554160   -0.10291602   -0.67416193
     atom   44 type  2   force =     0.58527314    1.18414303    1.20426674
     atom   45 type  2   force =     0.29362049    0.71447419   -0.67416166
     atom   46 type  2   force =    -0.00001280    0.00001797    0.67217022
     atom   47 type  2   force =    -0.00001340    0.00001755   -0.38074491
     atom   48 type  2   force =    -1.31813872   -0.08517324    1.20426634
     atom   49 type  2   force =    -0.76556714   -0.10291686   -0.67416228
     atom   50 type  2   force =    -0.00001245    0.00001806    0.64048888
     atom   51 type  2   force =    -0.00001212    0.00001726   -0.23279260
     atom   52 type  2   force =    -0.73285216   -1.09891797    1.20426869
     atom   53 type  2   force =    -0.47193387   -0.61150544   -0.67416180
     atom   54 type  2   force =    -6.52501046    3.76722851   -2.45956899
     atom   55 type  2   force =    -0.23537106    0.13589474    0.64672107
     atom   56 type  2   force =    -0.41934847   -0.24220620   -0.34419007
     atom   57 type  2   force =    -0.00758291   -0.00446922    0.37219797
     atom   58 type  2   force =     0.00006209   -7.53463282   -2.45959740
     atom   59 type  2   force =     0.00008090   -0.27192057    0.64671884
     atom   60 type  2   force =     6.52521392    3.76726672   -2.45959799
     atom   61 type  2   force =     0.23553426    0.13589618    0.64671921
     atom   62 type  2   force =     0.00008557    1.47663302   -0.18561916
     atom   63 type  2   force =     0.00008302    0.30089544    0.33672761
     atom   64 type  2   force =     1.27893267   -0.73839272   -0.18562118
     atom   65 type  2   force =     0.26070398   -0.15051281    0.33672803
[...]
     atom   40 type  2   force =     0.00000000    0.00000000    0.00000000
     atom   41 type  2   force =     0.00000000    0.00000000    0.00000000
     atom   42 type  2   force =     0.00000000    0.00000000    0.00000000
     atom   43 type  2   force =     0.00000000    0.00000000    0.00000000
     atom   44 type  2   force =     0.00000000    0.00000000    0.00000000
     atom   45 type  2   force =     0.00000000    0.00000000    0.00000000
     atom   46 type  2   force =     0.00000000    0.00000000    0.00000000
     atom   47 type  2   force =     0.00000000    0.00000000    0.00000000
     atom   48 type  2   force =     0.00000000    0.00000000    0.00000000
     atom   49 type  2   force =     0.00000000    0.00000000    0.00000000
     atom   50 type  2   force =     0.00000000    0.00000000    0.00000000
     atom   51 type  2   force =     0.00000000    0.00000000    0.00000000
     atom   52 type  2   force =     0.00000000    0.00000000    0.00000000
     atom   53 type  2   force =     0.00000000    0.00000000    0.00000000
     atom   54 type  2   force =     0.00000000    0.00000000    0.00000000
     atom   55 type  2   force =     0.00000000    0.00000000    0.00000000
     atom   56 type  2   force =     0.00000000    0.00000000    0.00000000
     atom   57 type  2   force =     0.00000000    0.00000000    0.00000000
     atom   58 type  2   force =     0.00000000    0.00000000    0.00000000
     atom   59 type  2   force =     0.00000000    0.00000000    0.00000000
     atom   60 type  2   force =     0.00000000    0.00000000    0.00000000
     atom   61 type  2   force =     0.00000000    0.00000000    0.00000000
     atom   62 type  2   force =     0.00000000    0.00000000    0.00000000
     atom   63 type  2   force =     0.00000000    0.00000000    0.00000000
     atom   64 type  2   force =     0.00000000    0.00000000    0.00000000
     atom   65 type  2   force =     0.00000000    0.00000000    0.00000000
     atom   66 type  2   force =     0.00000000    0.00000000    0.00000000
     atom   67 type  2   force =     0.00000000    0.00000000    0.00000000
     atom   68 type  2   force =     0.00000000    0.00000000    0.00000000
     atom   69 type  2   force =     0.00000000    0.00000000    0.00000000
     atom   70 type  2   force =     0.00000000    0.00000000    0.00000000
     atom   71 type  2   force =     0.00000000    0.00000000    0.00000000
     The SCF correction term to forces
     atom    1 type  1   force =     0.00000000   -0.00000000   -0.00006720
     atom    2 type  1   force =     0.00000567    0.00016919    0.00008905
     atom    3 type  1   force =     0.00000298   -0.00003358   -0.00002420
     atom    4 type  1   force =     0.00014936   -0.00007969    0.00008905
     atom    5 type  1   force =    -0.00002759    0.00001937   -0.00002420
     atom    6 type  1   force =     0.00014369   -0.00008950    0.00008905
     atom    7 type  1   force =    -0.00003057    0.00001421   -0.00002420
     atom    8 type  1   force =    -0.00000567    0.00016919    0.00008905
     atom    9 type  1   force =    -0.00000298   -0.00003358   -0.00002420
     atom   10 type  1   force =     0.00000000   -0.00000000   -0.00001057
     atom   11 type  1   force =     0.00000000   -0.00000000   -0.00002424
     atom   12 type  1   force =    -0.00014369   -0.00008950    0.00008905
     atom   13 type  1   force =     0.00003057    0.00001421   -0.00002420
     atom   14 type  1   force =     0.00000000   -0.00000000    0.00002114
     atom   15 type  1   force =     0.00000000   -0.00000000   -0.00001164
     atom   16 type  1   force =    -0.00014936   -0.00007969    0.00008905
     atom   17 type  1   force =     0.00002759    0.00001937   -0.00002420
     atom   18 type  1   force =     0.00014207   -0.00008203    0.00014724
     atom   19 type  1   force =    -0.00000744    0.00000430   -0.00030328
     atom   20 type  1   force =     0.00002163    0.00001249    0.00009856
     atom   21 type  1   force =     0.00001233    0.00000712   -0.00012511
     atom   22 type  1   force =    -0.00000000    0.00016406    0.00014724
     atom   23 type  1   force =    -0.00000000   -0.00000859   -0.00030328
     atom   24 type  1   force =    -0.00014208   -0.00008203    0.00014724
     atom   25 type  1   force =     0.00000744    0.00000430   -0.00030328
     atom   26 type  1   force =    -0.00000000   -0.00000413    0.00009368
     atom   27 type  1   force =    -0.00000000    0.00004528   -0.00010536
     atom   28 type  1   force =    -0.00000358    0.00000207    0.00009368
     atom   29 type  1   force =     0.00003921   -0.00002264   -0.00010536
     atom   30 type  1   force =    -0.00000000   -0.00002498    0.00009856
     atom   31 type  1   force =    -0.00000000   -0.00001424   -0.00012511
     atom   32 type  1   force =    -0.00002163    0.00001249    0.00009856
     atom   33 type  1   force =    -0.00001233    0.00000712   -0.00012511
     atom   34 type  1   force =     0.00000357    0.00000207    0.00009368
     atom   35 type  1   force =    -0.00003921   -0.00002264   -0.00010536
     atom   36 type  2   force =    -0.00000000    0.00000000    0.00005333
     atom   37 type  2   force =    -0.00000000    0.00000000   -0.00010216
     atom   38 type  2   force =     0.00000023    0.00000605    0.00006110
     atom   39 type  2   force =    -0.00000087    0.00001378   -0.00005893
     atom   40 type  2   force =     0.00000535   -0.00000282    0.00006110
     atom   41 type  2   force =     0.00001150   -0.00000764   -0.00005893
     atom   42 type  2   force =     0.00000512   -0.00000322    0.00006110
     atom   43 type  2   force =     0.00001236   -0.00000614   -0.00005893
     atom   44 type  2   force =    -0.00000023    0.00000605    0.00006110
     atom   45 type  2   force =     0.00000087    0.00001378   -0.00005893
     atom   46 type  2   force =    -0.00000000    0.00000000    0.00003849
     atom   47 type  2   force =    -0.00000000    0.00000000   -0.00003049
     atom   48 type  2   force =    -0.00000512   -0.00000322    0.00006110
     atom   49 type  2   force =    -0.00001236   -0.00000614   -0.00005893
     atom   50 type  2   force =    -0.00000000    0.00000000    0.00005097
     atom   51 type  2   force =    -0.00000000    0.00000000   -0.00004240
     atom   52 type  2   force =    -0.00000535   -0.00000282    0.00006110
     atom   53 type  2   force =    -0.00001150   -0.00000764   -0.00005893
     atom   54 type  2   force =    -0.00002148    0.00001240    0.00000231
     atom   55 type  2   force =     0.00001377   -0.00000795   -0.00000633
     atom   56 type  2   force =     0.00000663    0.00000383   -0.00000295
     atom   57 type  2   force =     0.00000287    0.00000166    0.00000470
     atom   58 type  2   force =    -0.00000000   -0.00002481    0.00000231
     atom   59 type  2   force =     0.00000000    0.00001590   -0.00000633
     atom   60 type  2   force =     0.00002148    0.00001240    0.00000231
     atom   61 type  2   force =    -0.00001377   -0.00000795   -0.00000633
     atom   62 type  2   force =     0.00000000    0.00003855   -0.00000564
     atom   63 type  2   force =     0.00000000   -0.00000417    0.00000549
     atom   64 type  2   force =     0.00003339   -0.00001928   -0.00000564
     atom   65 type  2   force =    -0.00000361    0.00000208    0.00000549
     atom   66 type  2   force =     0.00000000   -0.00000765   -0.00000295
     atom   67 type  2   force =     0.00000000   -0.00000332    0.00000470
     atom   68 type  2   force =    -0.00000663    0.00000383   -0.00000295
     atom   69 type  2   force =    -0.00000287    0.00000166    0.00000470
     atom   70 type  2   force =    -0.00003339   -0.00001928   -0.00000564
     atom   71 type  2   force =     0.00000361    0.00000208    0.00000549

     Total force =     0.003694     Total SCF correction =     0.000935
     SCF correction compared to forces is large: reduce conv_thr to get better values


     Computing stress (Cartesian axis) and pressure



     -----------------------------------------------
     Non-local corr. energy    =      19.17515139 Ry
     -----------------------------------------------

          total   stress  (Ry/bohr**3)                   (kbar)     P=       29.21
   0.00019045   0.00000000   0.00000000           28.02        0.00        0.00
   0.00000000   0.00019045   0.00000000            0.00       28.02        0.00
   0.00000000   0.00000000   0.00021474            0.00        0.00       31.59

     kinetic stress (kbar)  18180.81     -0.00      0.00
                                0.00  18180.81     -0.00
                                0.00     -0.00  18195.81

     local   stress (kbar)   4123.77     -0.07     -0.00
                               -0.07   4123.68      0.00
                               -0.00      0.00   2616.70

     nonloc. stress (kbar)     30.09      0.00      0.00
                                0.00     30.09      0.00
                                0.00      0.00     34.67

     hartree stress (kbar)  19600.85     -0.00     -0.00
                               -0.00  19600.85      0.00
                               -0.00      0.00  20277.71

     exc-cor stress (kbar)   5040.57      0.00      0.00
                                0.00   5040.57      0.00
                                0.00      0.00   5041.25

     corecor stress (kbar) -13735.94     -0.00      0.00
                               -0.00 -13735.94      0.00
                                0.00      0.00 -13735.79

     ewald   stress (kbar) -33370.43      0.09      0.00
                                0.09 -33370.31     -0.00
                                0.00     -0.00 -32556.17

     hubbard stress (kbar)      0.00      0.00      0.00
                                0.00      0.00      0.00
                                0.00      0.00      0.00

     DFT-D   stress (kbar)      0.00      0.00      0.00
                                0.00      0.00      0.00
                                0.00      0.00      0.00

     XDM     stress (kbar)      0.00      0.00      0.00
                                0.00      0.00      0.00
                                0.00      0.00      0.00

     dft-nl  stress (kbar)    158.29     -0.00     -0.00
                               -0.00    158.29     -0.00
                               -0.00     -0.00    157.41

     TS-vdW  stress (kbar)      0.00      0.00      0.00
                                0.00      0.00      0.00
                                0.00      0.00      0.00

     MDB     stress (kbar)      0.00      0.00      0.00
                                0.00      0.00      0.00
                                0.00      0.00      0.00

     3D-RISM stress (kbar)      0.00      0.00      0.00
                                0.00      0.00      0.00
                                0.00      0.00      0.00


     BFGS Geometry Optimization
     Energy error            =      0.0E+00 Ry
     Gradient error          =      9.8E-04 Ry/Bohr

     bfgs converged in   1 scf cycles and   0 bfgs steps
     (criteria: energy <  1.0E-04 Ry, force <  1.0E-03 Ry/Bohr)

     End of BFGS Geometry Optimization

     Final energy             =  -10957.9692488329 Ry
Begin final coordinates

ATOMIC_POSITIONS (angstrom)
Ga            1.6222756606        0.9366198184        7.8990025845
Ga            0.0198731482        3.7259685584        2.6473703258
Ga           -0.0019575672        3.7448910128        7.9279578493
Ga           -1.6301013525        6.5838082248        2.6473703258
Ga           -1.6246293840        6.5554410434        7.9279578493
Ga            4.8391237856        0.9296667313        2.6473703258
Ga            4.8664264696        0.9391114582        7.9279578493
Ga            3.2246781730        3.7259685584        2.6473703258
Ga            3.2465088884        3.7448910128        7.9279578493
Ga            1.6222756606        6.5563425246        2.6402337177
Ga            1.6222756606        6.5563425246        7.9282336487
Ga            8.1390727868        0.9296667313        2.6473703258
Ga            8.1117701028        0.9391114582        7.9279578493
Ga            6.4890982862        3.7464811715        2.6278315034
Ga            6.4890982862        3.7464811715        7.9295768722
Ga            4.8746526737        6.5838082248        2.6473703258
Ga            4.8691807052        6.5554410434        7.9279578493
Ga            0.0178447808        1.8629386231        5.2559899698
Ga            0.0080125928        1.8686152395       10.5961188889
Ga           -1.6214039987        4.6836073498        5.2767926386
Ga           -1.6178690252        4.6856482677       10.5847779262
Ga           -3.2445503819        7.5135727994        5.2559899698
Ga           -3.2445503819        7.5022195666       10.5961188889
Ga            3.2266997067        1.8629386231        5.2559899698
Ga            3.2365318947        1.8686152395       10.5961188889
Ga            1.6222722437        4.6802403551        5.2841773964
Ga            1.6222722437        4.6803351502       10.5714846665
Ga           -0.0024817805        7.4943968749        5.2841773964
Ga           -0.0023996855        7.4943494774       10.5714846665
Ga            6.4890948693        1.8722353461        5.2767926386
Ga            6.4890948693        1.8681535103       10.5847779262
Ga            4.8659484862        4.6836073498        5.2767926386
Ga            4.8624135127        4.6856482677       10.5847779262
Ga            3.2470262680        7.4943968749        5.2841773964
Ga            3.2469441730        7.4943494774       10.5714846665
N             1.6222756606        0.9366198184        4.7940024449
N             1.6222756606        0.9366198184        9.9063933517
N             0.0001192279        3.7521631806        4.6355232670
N             0.0017255343        3.7523568186        9.9116296651
N            -1.6172931044        6.5536035169        4.6355232670
N            -1.6163222558        6.5548978001        9.9116296651
N             4.8716859540        0.9336768170        4.6355232670
N             4.8710504962        0.9321888959        9.9116296651
N             3.2444320933        3.7521631806        4.6355232670
N             3.2428257869        3.7523568186        9.9116296651
N             1.6222756606        6.5563425246        4.6336102702
N             1.6222756606        6.5563425246        9.9191602821
N             8.1065106184        0.9336768170        4.6355232670
N             8.1071460762        0.9321888959        9.9116296651
N             6.4890982862        3.7464811715        4.6251886162
N             6.4890982862        3.7464811715        9.9253242152
N             4.8618444256        6.5536035169        4.6355232670
N             4.8608735770        6.5548978001        9.9116296651
N            -0.1428476855        1.9557144618        1.9343470253
N            -0.0129093890        1.8806945513        7.2809387058
N            -1.6160608128        4.6866922396        1.9957333583
N            -1.6231929745        4.6825744842        7.2713561137
N            -3.2445503819        7.3280211221        1.9343470253
N            -3.2445503819        7.4780609430        7.2809387058
N             3.3873921730        1.9557144618        1.9343470253
N             3.2574538765        1.8806945513        7.2809387058
N             1.6222722437        4.6897371683        1.9874116948
N             1.6222722437        4.6841817015        7.2741452674
N             0.0057427010        7.4896484683        1.9874116948
N             0.0009315256        7.4924262018        7.2741452674
N             6.4890948693        1.8660655664        1.9957333583
N             6.4890948693        1.8743010774        7.2713561137
N             4.8606053003        4.6866922396        1.9957333583
N             4.8677374620        4.6825744842        7.2713561137
N             3.2388017865        7.4896484683        1.9874116948
N             3.2436129619        7.4924262018        7.2741452674
End final coordinates



     Writing all to output data dir ./GaN.save/
 
     init_run     :      3.80s CPU      4.06s WALL (       1 calls)
     electrons    :    131.38s CPU    135.96s WALL (       1 calls)
     forces       :      1.78s CPU      1.83s WALL (       1 calls)
     stress       :     17.40s CPU     17.54s WALL (       1 calls)

     Called by init_run:
     wfcinit      :      2.15s CPU      2.25s WALL (       1 calls)
     wfcinit:atom :      0.02s CPU      0.02s WALL (       1 calls)
     wfcinit:wfcr :      1.95s CPU      2.00s WALL (       1 calls)
     potinit      :      0.82s CPU      0.92s WALL (       1 calls)
     hinit0       :      0.58s CPU      0.61s WALL (       1 calls)

     Called by electrons:
     c_bands      :    126.78s CPU    131.00s WALL (       4 calls)
     sum_band     :      2.45s CPU      2.50s WALL (       4 calls)
     v_of_rho     :      1.67s CPU      1.82s WALL (       4 calls)
     v_h          :      0.01s CPU      0.02s WALL (       4 calls)
     v_xc         :      2.38s CPU      2.55s WALL (       6 calls)
     newd         :      0.17s CPU      0.19s WALL (       4 calls)
     PAW_pot      :      0.60s CPU      0.62s WALL (       4 calls)
     mix_rho      :      0.03s CPU      0.03s WALL (       4 calls)
     vdW_kernel   :      0.25s CPU      0.25s WALL (       1 calls)

     Called by c_bands:
     init_us_2    :      0.14s CPU      0.17s WALL (       9 calls)
     init_us_2:cp :      0.14s CPU      0.17s WALL (       9 calls)
     cegterg      :    113.92s CPU    115.89s WALL (       4 calls)

     Called by sum_band:
     sum_band:wei :      0.00s CPU      0.00s WALL (       4 calls)
     sum_band:loo :      2.17s CPU      2.20s WALL (       4 calls)
     sum_band:buf :      0.00s CPU      0.00s WALL (       4 calls)
     sum_band:ini :      0.11s CPU      0.11s WALL (       4 calls)
     sum_band:cal :      0.81s CPU      0.82s WALL (       4 calls)
     sum_band:bec :      0.02s CPU      0.02s WALL (       4 calls)
     addusdens    :      0.18s CPU      0.19s WALL (       4 calls)
     addusd:skk   :      0.02s CPU      0.02s WALL (       8 calls)
     addusd:dgemm :      0.11s CPU      0.12s WALL (       8 calls)
     addusd:qvan2 :      0.04s CPU      0.05s WALL (       8 calls)

     Called by *egterg:
     cdiaghg      :     63.04s CPU     63.87s WALL (      74 calls)
     cegterg:over :      9.98s CPU     10.21s WALL (      71 calls)
     cegterg:upda :      6.41s CPU      6.56s WALL (      71 calls)
     cegterg:last :      4.60s CPU      4.64s WALL (       8 calls)
     h_psi        :     24.56s CPU     25.00s WALL (      76 calls)
     s_psi        :      5.03s CPU      5.08s WALL (      76 calls)
     g_psi        :      0.05s CPU      0.05s WALL (      71 calls)

     Called by h_psi:
     h_psi:calbec :      5.41s CPU      5.47s WALL (      76 calls)
     vloc_psi     :     13.89s CPU     14.09s WALL (      76 calls)
     add_vuspsi   :      5.03s CPU      5.08s WALL (      76 calls)

     General routines
     calbec       :      7.26s CPU      7.34s WALL (      85 calls)
     fft          :      0.92s CPU      0.94s WALL (     420 calls)
     ffts         :      0.01s CPU      0.01s WALL (       8 calls)
     fftw         :     13.67s CPU     13.87s WALL (   19588 calls)
     interpolate  :      0.02s CPU      0.02s WALL (       4 calls)
 
     Parallel routines

     PAW routines
     PAW_pot      :      0.60s CPU      0.62s WALL (       4 calls)
     PAW_symme    :      0.01s CPU      0.01s WALL (       7 calls)
 
     PWSCF        :   2m35.16s CPU   2m42.74s WALL

 
   This run was terminated on:  21:34:22  18Feb2024            

=------------------------------------------------------------------------------=
   JOB DONE.
=------------------------------------------------------------------------------=
