
     Program PWSCF v.7.1 starts on 27Mar2024 at 21:16: 4 

     This program is part of the open-source Quantum ESPRESSO suite
     for quantum simulation of materials; please cite
         "P. Giannozzi et al., J. Phys.:Condens. Matter 21 395502 (2009);
         "P. Giannozzi et al., J. Phys.:Condens. Matter 29 465901 (2017);
         "P. Giannozzi et al., J. Chem. Phys. 152 154105 (2020);
          URL http://www.quantum-espresso.org", 
     in publications or presentations arising from this work. More details at
     http://www.quantum-espresso.org/quote

     Parallel version (MPI & OpenMP), running on      27 processor cores
     Number of MPI processes:                27
     Threads/MPI process:                     1

     MPI processes distributed on     1 nodes
     1973059 MiB available memory on the printing compute node when the environment starts
 
     Reading input from espresso.pwi
Warning: card &CELL ignored
Warning: card    CELL_DYNAMICS    = 'BFGS' ignored
Warning: card / ignored

     Current dimensions of program PWSCF are:
     Max number of different atomic species (ntypx) = 10
     Max number of k-points (npk) =  40000
     Max angular momentum in pseudopotentials (lmaxx) =  4
     file Ga.pbe-dn-kjpaw_psl.1.0.0.UPF: wavefunction(s)  4S renormalized
     file N.pbe-n-kjpaw_psl.1.0.0.UPF: wavefunction(s)  2S renormalized

     **************************************************************************
     Initializing libbeef V0.1.2 with the BEEF-vdW functional.
     Citation: Wellendorff et al., PRB 85, 235149 (2012).
     **************************************************************************


     IMPORTANT: XC functional enforced from input :
     Exchange-correlation= BEEF-VDW
                           (   1   4  43  14   2   0   0)
     Any further DFT definition will be discarded
     Please, verify this is what you really want

 
     R & G space division:  proc/nbgrp/npool/nimage =      27
     Subspace diagonalization in iterative solution of the eigenvalue problem:
     a serial algorithm will be used

 
     Parallelization info
     --------------------
     sticks:   dense  smooth     PW     G-vecs:    dense   smooth      PW
     Min         134     107     28                10662     7629    1068
     Max         135     108     29                10667     7636    1077
     Sum        3643    2905    769               287969   206075   28939
 
     Using Slab Decomposition
 


     bravais-lattice index     =            4
     lattice parameter (alat)  =      12.2626  a.u.
     unit-cell volume          =    2602.7676 (a.u.)^3
     number of atoms/cell      =           32
     number of atomic types    =            2
     number of electrons       =       294.00
     number of Kohn-Sham states=          176
     kinetic-energy cutoff     =      70.0000  Ry
     charge density cutoff     =     350.0000  Ry
     scf convergence threshold =      1.0E-07
     mixing beta               =       0.7000
     number of iterations used =            8  plain     mixing
     energy convergence thresh.=      1.0E-04
     force convergence thresh. =      1.0E-03
     Exchange-correlation= BEEF-VDW
                           (   1   4  43  14   2   0   0)
     nstep                     =           50


     celldm(1)=  12.262616  celldm(2)=   0.000000  celldm(3)=   1.629879
     celldm(4)=   0.000000  celldm(5)=   0.000000  celldm(6)=   0.000000

     crystal axes: (cart. coord. in units of alat)
               a(1) = (   1.000000   0.000000   0.000000 )  
               a(2) = (  -0.500000   0.866025   0.000000 )  
               a(3) = (   0.000000   0.000000   1.629879 )  

     reciprocal axes: (cart. coord. in units 2 pi/alat)
               b(1) = (  1.000000  0.577350 -0.000000 )  
               b(2) = (  0.000000  1.154701  0.000000 )  
               b(3) = (  0.000000 -0.000000  0.613542 )  


     PseudoPot. # 1 for Ga read from file:
     /trace/group/acmegroup/atimmins/packages/espresso/pseudo/psl_1.0.0/pslibrary.1.0.0/pbe/PSEUDOPOTENTIALS/Ga.pbe-dn-kjpaw_psl.1.0.0.UPF
     MD5 check sum: cd2a01e492f15b435d17032472d8505c
     Pseudo is Projector augmented-wave + core cor, Zval = 13.0
     Generated using 'atomic' code by A. Dal Corso  v.7.1
     Shape of augmentation charge: PSQ
     Using radial grid of 1205 points,  6 beta functions with: 
                l(1) =   0
                l(2) =   0
                l(3) =   1
                l(4) =   1
                l(5) =   2
                l(6) =   2
     Q(r) pseudized with 0 coefficients 


     PseudoPot. # 2 for N  read from file:
     /trace/group/acmegroup/atimmins/packages/espresso/pseudo/psl_1.0.0/pslibrary.1.0.0/pbe/PSEUDOPOTENTIALS/N.pbe-n-kjpaw_psl.1.0.0.UPF
     MD5 check sum: f77f775694dac7e2c3fe1c82443d1a16
     Pseudo is Projector augmented-wave + core cor, Zval =  5.0
     Generated using 'atomic' code by A. Dal Corso  v.7.1
     Shape of augmentation charge: PSQ
     Using radial grid of 1085 points,  4 beta functions with: 
                l(1) =   0
                l(2) =   0
                l(3) =   1
                l(4) =   1
     Q(r) pseudized with 0 coefficients 


     atomic species   valence    mass     pseudopotential
        Ga            13.00    69.72300     Ga( 1.00)
        N              5.00    14.00700     N ( 1.00)

      6 Sym. Ops. (no inversion) found ( 4 have fractional translation)


                                    s                        frac. trans.

      isym =  1     identity                                     

 cryst.   s( 1) = (     1          0          0      )
                  (     0          1          0      )
                  (     0          0          1      )

 cart.    s( 1) = (  1.0000000  0.0000000  0.0000000 )
                  (  0.0000000  1.0000000  0.0000000 )
                  (  0.0000000  0.0000000  1.0000000 )


      isym =  2     120 deg rotation - cryst. axis [0,0,1]       

 cryst.   s( 2) = (     0          1          0      )    f =(  0.4999999 )
                  (    -1         -1          0      )       (  0.0000004 )
                  (     0          0          1      )       (  0.0000000 )

 cart.    s( 2) = ( -0.5000000 -0.8660254  0.0000000 )    f =(  0.4999998 )
                  (  0.8660254 -0.5000000  0.0000000 )       (  0.0000003 )
                  (  0.0000000  0.0000000  1.0000000 )       (  0.0000000 )


      isym =  3     120 deg rotation - cryst. axis [0,0,-1]      

 cryst.   s( 3) = (    -1         -1          0      )    f =(  0.4999996 )
                  (     1          0          0      )       (  0.4999999 )
                  (     0          0          1      )       (  0.0000000 )

 cart.    s( 3) = ( -0.5000000  0.8660254  0.0000000 )    f =(  0.2499996 )
                  ( -0.8660254 -0.5000000  0.0000000 )       (  0.4330127 )
                  (  0.0000000  0.0000000  1.0000000 )       (  0.0000000 )


      isym =  4     inv. 180 deg rotation - cart. axis [1,0,0]   

 cryst.   s( 4) = (    -1          0          0      )    f =(  0.4999996 )
                  (     1          1          0      )       (  0.0000000 )
                  (     0          0          1      )       (  0.0000000 )

 cart.    s( 4) = ( -1.0000000  0.0000000  0.0000000 )    f =(  0.4999996 )
                  (  0.0000000  1.0000000  0.0000000 )       (  0.0000000 )
                  (  0.0000000  0.0000000  1.0000000 )       (  0.0000000 )


      isym =  5     inv. 180 deg rotation - cryst. axis [0,1,0]  

 cryst.   s( 5) = (     1          1          0      )
                  (     0         -1          0      )
                  (     0          0          1      )

 cart.    s( 5) = (  0.5000000  0.8660254  0.0000000 )
                  (  0.8660254 -0.5000000  0.0000000 )
                  (  0.0000000  0.0000000  1.0000000 )


      isym =  6     inv. 180 deg rotation - cryst. axis [1,1,0]  

 cryst.   s( 6) = (     0         -1          0      )    f =(  0.4999999 )
                  (    -1          0          0      )       (  0.4999999 )
                  (     0          0          1      )       (  0.0000000 )

 cart.    s( 6) = (  0.5000000 -0.8660254  0.0000000 )    f =(  0.2500000 )
                  ( -0.8660254 -0.5000000  0.0000000 )       (  0.4330127 )
                  (  0.0000000  0.0000000  1.0000000 )       (  0.0000000 )


     point group C_3v (3m)  
     there are  3 classes
     the character table:

       E     2C3   3s_v 
A_1    1.00  1.00  1.00
A_2    1.00  1.00 -1.00
E      2.00 -1.00  0.00

     the symmetry operations in each class and the name of the first element:

     E        1
          identity                                               
     2C3      2    3
          120 deg rotation - cryst. axis [0,0,1]                 
     3s_v     4    5    6
          inv. 180 deg rotation - cart. axis [1,0,0]             

   Cartesian axes

     site n.     atom                  positions (alat units)
         1           Ga  tau(   1) = (   0.2500002   0.1443375   0.4067871  )
         2           Ga  tau(   2) = (   0.2500002   0.1443375   1.2217266  )
         3           Ga  tau(   3) = (   0.0000002   0.5773502   0.4067871  )
         4           Ga  tau(   4) = (   0.0000002   0.5773502   1.2217266  )
         5           Ga  tau(   5) = (   0.7500002   0.1443375   0.4067871  )
         6           Ga  tau(   6) = (   0.7500002   0.1443375   1.2217266  )
         7           Ga  tau(   7) = (   0.5000002   0.5773502   0.4067871  )
         8           Ga  tau(   8) = (   0.5000002   0.5773502   1.2217266  )
         9           Ga  tau(   9) = (  -0.0000003   0.2886754   0.8142568  )
        10           Ga  tau(  10) = (  -0.0000003   0.2886754   1.6291964  )
        11           Ga  tau(  11) = (  -0.2500003   0.7216881   0.8142568  )
        12           Ga  tau(  12) = (  -0.2500003   0.7216881   1.6291964  )
        13           Ga  tau(  13) = (   0.4999997   0.2886754   0.8142568  )
        14           Ga  tau(  14) = (   0.4999997   0.2886754   1.6291964  )
        15           Ga  tau(  15) = (   0.2499997   0.7216881   0.8142568  )
        16           Ga  tau(  16) = (   0.2499997   0.7216881   1.6291964  )
        17           N   tau(  17) = (   0.2500002   0.1443375   1.5286943  )
        18           N   tau(  18) = (   0.0000002   0.5773502   0.7137548  )
        19           N   tau(  19) = (   0.0000002   0.5773502   1.5286943  )
        20           N   tau(  20) = (   0.7500002   0.1443375   0.7137548  )
        21           N   tau(  21) = (   0.7500002   0.1443375   1.5286943  )
        22           N   tau(  22) = (   0.5000002   0.5773502   0.7137548  )
        23           N   tau(  23) = (   0.5000002   0.5773502   1.5286943  )
        24           N   tau(  24) = (  -0.0000003   0.2886754   0.3062850  )
        25           N   tau(  25) = (  -0.0000003   0.2886754   1.1212245  )
        26           N   tau(  26) = (  -0.2500003   0.7216881   0.3062850  )
        27           N   tau(  27) = (  -0.2500003   0.7216881   1.1212245  )
        28           N   tau(  28) = (   0.4999997   0.2886754   0.3062850  )
        29           N   tau(  29) = (   0.4999997   0.2886754   1.1212245  )
        30           N   tau(  30) = (   0.2499997   0.7216881   0.3062850  )
        31           N   tau(  31) = (   0.2499997   0.7216881   1.1212245  )
        32           Ga  tau(  32) = (   0.2500002   0.1443375   0.7137548  )

   Crystallographic axes

     site n.     atom                  positions (cryst. coord.)
         1           Ga  tau(   1) = (  0.3333335  0.1666666  0.2495811  )
         2           Ga  tau(   2) = (  0.3333335  0.1666666  0.7495811  )
         3           Ga  tau(   3) = (  0.3333335  0.6666666  0.2495811  )
         4           Ga  tau(   4) = (  0.3333335  0.6666666  0.7495811  )
         5           Ga  tau(   5) = (  0.8333335  0.1666666  0.2495811  )
         6           Ga  tau(   6) = (  0.8333335  0.1666666  0.7495811  )
         7           Ga  tau(   7) = (  0.8333335  0.6666666  0.2495811  )
         8           Ga  tau(   8) = (  0.8333335  0.6666666  0.7495811  )
         9           Ga  tau(   9) = (  0.1666665  0.3333336  0.4995811  )
        10           Ga  tau(  10) = (  0.1666665  0.3333336  0.9995811  )
        11           Ga  tau(  11) = (  0.1666665  0.8333336  0.4995811  )
        12           Ga  tau(  12) = (  0.1666665  0.8333336  0.9995811  )
        13           Ga  tau(  13) = (  0.6666665  0.3333336  0.4995811  )
        14           Ga  tau(  14) = (  0.6666665  0.3333336  0.9995811  )
        15           Ga  tau(  15) = (  0.6666665  0.8333336  0.4995811  )
        16           Ga  tau(  16) = (  0.6666665  0.8333336  0.9995811  )
        17           N   tau(  17) = (  0.3333335  0.1666666  0.9379189  )
        18           N   tau(  18) = (  0.3333335  0.6666666  0.4379189  )
        19           N   tau(  19) = (  0.3333335  0.6666666  0.9379189  )
        20           N   tau(  20) = (  0.8333335  0.1666666  0.4379189  )
        21           N   tau(  21) = (  0.8333335  0.1666666  0.9379189  )
        22           N   tau(  22) = (  0.8333335  0.6666666  0.4379189  )
        23           N   tau(  23) = (  0.8333335  0.6666666  0.9379189  )
        24           N   tau(  24) = (  0.1666665  0.3333336  0.1879189  )
        25           N   tau(  25) = (  0.1666665  0.3333336  0.6879189  )
        26           N   tau(  26) = (  0.1666665  0.8333336  0.1879189  )
        27           N   tau(  27) = (  0.1666665  0.8333336  0.6879189  )
        28           N   tau(  28) = (  0.6666665  0.3333336  0.1879189  )
        29           N   tau(  29) = (  0.6666665  0.3333336  0.6879189  )
        30           N   tau(  30) = (  0.6666665  0.8333336  0.1879189  )
        31           N   tau(  31) = (  0.6666665  0.8333336  0.6879189  )
        32           Ga  tau(  32) = (  0.3333335  0.1666666  0.4379189  )

     number of k points=     8  Gaussian smearing, width (Ry)=  0.0100
                       cart. coord. in units 2pi/alat
        k(    1) = (   0.0000000   0.0000000   0.0000000), wk =   0.0625000
        k(    2) = (   0.0000000   0.0000000  -0.3067712), wk =   0.0625000
        k(    3) = (   0.0000000   0.2886751   0.0000000), wk =   0.3750000
        k(    4) = (   0.0000000   0.2886751  -0.3067712), wk =   0.3750000
        k(    5) = (   0.0000000  -0.5773503   0.0000000), wk =   0.1875000
        k(    6) = (   0.0000000  -0.5773503  -0.3067712), wk =   0.1875000
        k(    7) = (   0.2500000   0.4330127   0.0000000), wk =   0.3750000
        k(    8) = (   0.2500000   0.4330127  -0.3067712), wk =   0.3750000

                       cryst. coord.
        k(    1) = (   0.0000000   0.0000000   0.0000000), wk =   0.0625000
        k(    2) = (   0.0000000   0.0000000  -0.5000000), wk =   0.0625000
        k(    3) = (   0.0000000   0.2500000   0.0000000), wk =   0.3750000
        k(    4) = (   0.0000000   0.2500000  -0.5000000), wk =   0.3750000
        k(    5) = (   0.0000000  -0.5000000   0.0000000), wk =   0.1875000
        k(    6) = (   0.0000000  -0.5000000  -0.5000000), wk =   0.1875000
        k(    7) = (   0.2500000   0.2500000   0.0000000), wk =   0.3750000
        k(    8) = (   0.2500000   0.2500000  -0.5000000), wk =   0.3750000

     Dense  grid:   287969 G-vectors     FFT dimensions: (  80,  80, 120)

     Smooth grid:   206075 G-vectors     FFT dimensions: (  72,  72, 108)

     Dynamical RAM for                 wfc:       2.56 MB

     Dynamical RAM for     wfc (w. buffer):      23.03 MB

     Dynamical RAM for           str. fact:       0.33 MB

     Dynamical RAM for           local pot:       0.00 MB

     Dynamical RAM for          nlocal pot:       6.19 MB

     Dynamical RAM for                qrad:       3.00 MB

     Dynamical RAM for          rho,v,vnew:       1.22 MB

     Dynamical RAM for               rhoin:       0.41 MB

     Dynamical RAM for            rho*nmix:       2.60 MB

     Dynamical RAM for           G-vectors:       0.67 MB

     Dynamical RAM for          h,s,v(r/c):      22.69 MB

     Dynamical RAM for          <psi|beta>:       1.14 MB

     Dynamical RAM for                 psi:      10.24 MB

     Dynamical RAM for                hpsi:      10.24 MB

     Dynamical RAM for                spsi:      10.24 MB

     Dynamical RAM for      wfcinit/wfcrot:       7.23 MB

     Dynamical RAM for           addusdens:      33.04 MB

     Dynamical RAM for          addusforce:      38.40 MB

     Dynamical RAM for         addusstress:      32.72 MB

     Estimated static dynamical RAM per process >      36.56 MB

     Estimated max dynamical RAM per process >      93.71 MB

     Estimated total dynamical RAM >       2.47 GB

     Check: negative core charge=   -0.000003

     Initial potential from superposition of free atoms

     starting charge     295.9497, renormalised to     294.0000


     %%%%%%%%%%%%%%%%%%%%%%%%%%%%%%%%%%%%%%%%%%%%%%%%%%%%%%%%%%%%%%%%%%%%%%%%
     %                                                                      %
     % You are using vdW-DF, which was implemented by the Thonhauser group. %
     % Please cite the following two papers that made this development      %
     % possible and the two reviews that describe the various versions:     %
     %                                                                      %
     %   T. Thonhauser et al., PRL 115, 136402 (2015).                      %
     %   T. Thonhauser et al., PRB 76, 125112 (2007).                       %
     %   K. Berland et al., Rep. Prog. Phys. 78, 066501 (2015).             %
     %   D.C. Langreth et al., J. Phys.: Condens. Matter 21, 084203 (2009). %
     %                                                                      %
     % If you are calculating stress with vdW-DF, please also cite:         %
     %                                                                      %
     %   R. Sabatini et al., J. Phys.: Condens. Matter 24, 424209 (2012).   %
     %                                                                      %
     %%%%%%%%%%%%%%%%%%%%%%%%%%%%%%%%%%%%%%%%%%%%%%%%%%%%%%%%%%%%%%%%%%%%%%%%

     %%%%%%%%%%%%%%%%%%%%%%%%%%%%%%%%%%%%%%%%%%%%%%%%%%%%%%%%%%%%%%%%%%%%%%%%
     %                                                                      %
     %  vdW-DF NEWS:                                                        %
     %                                                                      %
     %  * vdW-DF3 is now available. DOI: 10.1021/acs.jctc.0c00471           %
     %    use with input_dft = 'vdW-DF3-opt1' or 'vdW-DF3-opt2'             %
     %                                                                      %
     %  * Unscreened and range-separated vdW-DF hybrid functionals          %
     %    DOI: 10.1063/1.4986522 and 10.1088/1361-648X/ac2ad2               %
     %    use with input_dft = 'vdW-DF-cx0' (etc) and 'vdW-DF-ahcx'         %
     %                                                                      %
     %%%%%%%%%%%%%%%%%%%%%%%%%%%%%%%%%%%%%%%%%%%%%%%%%%%%%%%%%%%%%%%%%%%%%%%%


     Carrying out vdW-DF run using the following parameters:
     Nqs    =  20  Npoints =  1024  r_max =  100.000
     q_mesh =  0.00001000  0.04494208  0.09755937  0.15916263
               0.23128650  0.31572767  0.41458969  0.53033537
               0.66584808  0.82450364  1.01025438  1.22772762
               1.48234092  1.78043706  2.12944203  2.53805004
               3.01644009  3.57652955  4.23227104  5.00000000


     -----------------------------------------------
     Non-local corr. energy    =       8.60643575 Ry
     -----------------------------------------------

     Starting wfcs are  213 randomized atomic wfcs
     Checking if some PAW data can be deallocated... 
       PAW data deallocated on   15 nodes for type:  1
       PAW data deallocated on   12 nodes for type:  2

     total cpu time spent up to now is        4.3 secs

     Self-consistent Calculation

     iteration #  1     ecut=    70.00 Ry     beta= 0.70
     Davidson diagonalization with overlap

---- Real-time Memory Report at c_bands before calling an iterative solver
           252 MiB given to the printing process from OS
             0 MiB allocation reported by mallinfo(arena+hblkhd)
       1971185 MiB available memory on the node where the printing process lives
------------------
     ethr =  1.00E-02,  avg # of iterations =  4.8


     -----------------------------------------------
     Non-local corr. energy    =       9.01494526 Ry
     -----------------------------------------------


     total cpu time spent up to now is       12.6 secs

     total energy              =   -5245.55583226 Ry
     estimated scf accuracy    <       9.71262902 Ry

     iteration #  2     ecut=    70.00 Ry     beta= 0.70
     Davidson diagonalization with overlap

---- Real-time Memory Report at c_bands before calling an iterative solver
           285 MiB given to the printing process from OS
             0 MiB allocation reported by mallinfo(arena+hblkhd)
       1970338 MiB available memory on the node where the printing process lives
------------------
     ethr =  3.30E-03,  avg # of iterations =  6.9


     -----------------------------------------------
     Non-local corr. energy    =       8.97412131 Ry
     -----------------------------------------------


     total cpu time spent up to now is       28.5 secs

     total energy              =   -5245.80505603 Ry
     estimated scf accuracy    <      29.12467411 Ry

     iteration #  3     ecut=    70.00 Ry     beta= 0.70
     Davidson diagonalization with overlap

---- Real-time Memory Report at c_bands before calling an iterative solver
           302 MiB given to the printing process from OS
             0 MiB allocation reported by mallinfo(arena+hblkhd)
       1970005 MiB available memory on the node where the printing process lives
------------------
     ethr =  3.30E-03,  avg # of iterations =  8.4


     -----------------------------------------------
     Non-local corr. energy    =       8.97108782 Ry
     -----------------------------------------------


     total cpu time spent up to now is       43.5 secs

     total energy              =   -5247.35950707 Ry
     estimated scf accuracy    <      36.79006982 Ry

     iteration #  4     ecut=    70.00 Ry     beta= 0.70
     Davidson diagonalization with overlap

---- Real-time Memory Report at c_bands before calling an iterative solver
           306 MiB given to the printing process from OS
             0 MiB allocation reported by mallinfo(arena+hblkhd)
       1969997 MiB available memory on the node where the printing process lives
------------------
     ethr =  3.30E-03,  avg # of iterations =  7.3


     -----------------------------------------------
     Non-local corr. energy    =       9.01025858 Ry
     -----------------------------------------------


     total cpu time spent up to now is       55.9 secs

     total energy              =   -5251.58826710 Ry
     estimated scf accuracy    <       0.57682197 Ry

     iteration #  5     ecut=    70.00 Ry     beta= 0.70
     Davidson diagonalization with overlap

---- Real-time Memory Report at c_bands before calling an iterative solver
           308 MiB given to the printing process from OS
             0 MiB allocation reported by mallinfo(arena+hblkhd)
       1970032 MiB available memory on the node where the printing process lives
------------------
     ethr =  1.96E-04,  avg # of iterations =  7.5


     -----------------------------------------------
     Non-local corr. energy    =       9.06257869 Ry
     -----------------------------------------------


     total cpu time spent up to now is       69.1 secs

     total energy              =   -5251.68185452 Ry
     estimated scf accuracy    <       0.11177256 Ry

     iteration #  6     ecut=    70.00 Ry     beta= 0.70
     Davidson diagonalization with overlap

---- Real-time Memory Report at c_bands before calling an iterative solver
           314 MiB given to the printing process from OS
             0 MiB allocation reported by mallinfo(arena+hblkhd)
       1969973 MiB available memory on the node where the printing process lives
------------------
     ethr =  3.80E-05,  avg # of iterations = 11.3


     -----------------------------------------------
     Non-local corr. energy    =       9.08469128 Ry
     -----------------------------------------------


     total cpu time spent up to now is       87.7 secs

     total energy              =   -5251.65694825 Ry
     estimated scf accuracy    <       0.33197477 Ry

     iteration #  7     ecut=    70.00 Ry     beta= 0.70
     Davidson diagonalization with overlap

---- Real-time Memory Report at c_bands before calling an iterative solver
           314 MiB given to the printing process from OS
             0 MiB allocation reported by mallinfo(arena+hblkhd)
       1970044 MiB available memory on the node where the printing process lives
------------------
     ethr =  3.80E-05,  avg # of iterations = 11.0


     -----------------------------------------------
     Non-local corr. energy    =       9.09122337 Ry
     -----------------------------------------------


     total cpu time spent up to now is      104.9 secs

     total energy              =   -5251.71001472 Ry
     estimated scf accuracy    <       0.07719710 Ry

     iteration #  8     ecut=    70.00 Ry     beta= 0.70
     Davidson diagonalization with overlap

---- Real-time Memory Report at c_bands before calling an iterative solver
           314 MiB given to the printing process from OS
             0 MiB allocation reported by mallinfo(arena+hblkhd)
       1970006 MiB available memory on the node where the printing process lives
------------------
     ethr =  2.63E-05,  avg # of iterations = 10.0


     -----------------------------------------------
     Non-local corr. energy    =       9.08984473 Ry
     -----------------------------------------------


     total cpu time spent up to now is      119.2 secs

     total energy              =   -5251.71902406 Ry
     estimated scf accuracy    <       0.01743856 Ry

     iteration #  9     ecut=    70.00 Ry     beta= 0.70
     Davidson diagonalization with overlap

---- Real-time Memory Report at c_bands before calling an iterative solver
           315 MiB given to the printing process from OS
             0 MiB allocation reported by mallinfo(arena+hblkhd)
       1969983 MiB available memory on the node where the printing process lives
------------------
     ethr =  5.93E-06,  avg # of iterations =  8.1


     -----------------------------------------------
     Non-local corr. energy    =       9.08945354 Ry
     -----------------------------------------------


     total cpu time spent up to now is      130.8 secs

     total energy              =   -5251.72112767 Ry
     estimated scf accuracy    <       0.00100599 Ry

     iteration # 10     ecut=    70.00 Ry     beta= 0.70
     Davidson diagonalization with overlap

---- Real-time Memory Report at c_bands before calling an iterative solver
           315 MiB given to the printing process from OS
             0 MiB allocation reported by mallinfo(arena+hblkhd)
       1969961 MiB available memory on the node where the printing process lives
------------------
     ethr =  3.42E-07,  avg # of iterations =  5.6


     -----------------------------------------------
     Non-local corr. energy    =       9.08815121 Ry
     -----------------------------------------------


     total cpu time spent up to now is      145.1 secs

     total energy              =   -5251.72171997 Ry
     estimated scf accuracy    <       0.00020429 Ry

     iteration # 11     ecut=    70.00 Ry     beta= 0.70
     Davidson diagonalization with overlap

---- Real-time Memory Report at c_bands before calling an iterative solver
           317 MiB given to the printing process from OS
             0 MiB allocation reported by mallinfo(arena+hblkhd)
       1970001 MiB available memory on the node where the printing process lives
------------------
     ethr =  6.95E-08,  avg # of iterations =  9.3


     -----------------------------------------------
     Non-local corr. energy    =       9.08740552 Ry
     -----------------------------------------------


     total cpu time spent up to now is      158.3 secs

     total energy              =   -5251.72173391 Ry
     estimated scf accuracy    <       0.00004773 Ry

     iteration # 12     ecut=    70.00 Ry     beta= 0.70
     Davidson diagonalization with overlap

---- Real-time Memory Report at c_bands before calling an iterative solver
           317 MiB given to the printing process from OS
             0 MiB allocation reported by mallinfo(arena+hblkhd)
       1969997 MiB available memory on the node where the printing process lives
------------------
     ethr =  1.62E-08,  avg # of iterations =  8.1


     -----------------------------------------------
     Non-local corr. energy    =       9.08740351 Ry
     -----------------------------------------------


     total cpu time spent up to now is      171.7 secs

     total energy              =   -5251.72174063 Ry
     estimated scf accuracy    <       0.00002575 Ry

     iteration # 13     ecut=    70.00 Ry     beta= 0.70
     Davidson diagonalization with overlap

---- Real-time Memory Report at c_bands before calling an iterative solver
           317 MiB given to the printing process from OS
             0 MiB allocation reported by mallinfo(arena+hblkhd)
       1969998 MiB available memory on the node where the printing process lives
------------------
     ethr =  8.76E-09,  avg # of iterations =  9.1


     -----------------------------------------------
     Non-local corr. energy    =       9.08761835 Ry
     -----------------------------------------------


     total cpu time spent up to now is      186.5 secs

     total energy              =   -5251.72174596 Ry
     estimated scf accuracy    <       0.00000432 Ry

     iteration # 14     ecut=    70.00 Ry     beta= 0.70
     Davidson diagonalization with overlap

---- Real-time Memory Report at c_bands before calling an iterative solver
           317 MiB given to the printing process from OS
             0 MiB allocation reported by mallinfo(arena+hblkhd)
       1969999 MiB available memory on the node where the printing process lives
------------------
     ethr =  1.47E-09,  avg # of iterations =  9.3


     -----------------------------------------------
     Non-local corr. energy    =       9.08767173 Ry
     -----------------------------------------------


     total cpu time spent up to now is      203.4 secs

     total energy              =   -5251.72174676 Ry
     estimated scf accuracy    <       0.00000650 Ry

     iteration # 15     ecut=    70.00 Ry     beta= 0.70
     Davidson diagonalization with overlap

---- Real-time Memory Report at c_bands before calling an iterative solver
           317 MiB given to the printing process from OS
             0 MiB allocation reported by mallinfo(arena+hblkhd)
       1969992 MiB available memory on the node where the printing process lives
------------------
     ethr =  1.47E-09,  avg # of iterations =  8.5


     -----------------------------------------------
     Non-local corr. energy    =       9.08788891 Ry
     -----------------------------------------------


     total cpu time spent up to now is      214.5 secs

     total energy              =   -5251.72174643 Ry
     estimated scf accuracy    <       0.00000245 Ry

     iteration # 16     ecut=    70.00 Ry     beta= 0.70
     Davidson diagonalization with overlap

---- Real-time Memory Report at c_bands before calling an iterative solver
           317 MiB given to the printing process from OS
             0 MiB allocation reported by mallinfo(arena+hblkhd)
       1970012 MiB available memory on the node where the printing process lives
------------------
     ethr =  8.34E-10,  avg # of iterations =  7.1


     -----------------------------------------------
     Non-local corr. energy    =       9.08794953 Ry
     -----------------------------------------------


     total cpu time spent up to now is      224.9 secs

     total energy              =   -5251.72174647 Ry
     estimated scf accuracy    <       0.00000077 Ry

     iteration # 17     ecut=    70.00 Ry     beta= 0.70
     Davidson diagonalization with overlap

---- Real-time Memory Report at c_bands before calling an iterative solver
           318 MiB given to the printing process from OS
             0 MiB allocation reported by mallinfo(arena+hblkhd)
       1969978 MiB available memory on the node where the printing process lives
------------------
     ethr =  2.61E-10,  avg # of iterations =  6.8


     -----------------------------------------------
     Non-local corr. energy    =       9.08805082 Ry
     -----------------------------------------------


     total cpu time spent up to now is      240.3 secs

     total energy              =   -5251.72174680 Ry
     estimated scf accuracy    <       0.00000039 Ry

     iteration # 18     ecut=    70.00 Ry     beta= 0.70
     Davidson diagonalization with overlap

---- Real-time Memory Report at c_bands before calling an iterative solver
           318 MiB given to the printing process from OS
             0 MiB allocation reported by mallinfo(arena+hblkhd)
       1969939 MiB available memory on the node where the printing process lives
------------------
     ethr =  1.34E-10,  avg # of iterations =  8.6


     -----------------------------------------------
     Non-local corr. energy    =       9.08800264 Ry
     -----------------------------------------------


     total cpu time spent up to now is      253.3 secs

     total energy              =   -5251.72174681 Ry
     estimated scf accuracy    <       0.00000023 Ry

     iteration # 19     ecut=    70.00 Ry     beta= 0.70
     Davidson diagonalization with overlap

---- Real-time Memory Report at c_bands before calling an iterative solver
           318 MiB given to the printing process from OS
             0 MiB allocation reported by mallinfo(arena+hblkhd)
       1970020 MiB available memory on the node where the printing process lives
------------------
     ethr =  7.79E-11,  avg # of iterations =  4.4


     -----------------------------------------------
     Non-local corr. energy    =       9.08794901 Ry
     -----------------------------------------------


     total cpu time spent up to now is      260.9 secs

     total energy              =   -5251.72174678 Ry
     estimated scf accuracy    <       0.00000010 Ry

     iteration # 20     ecut=    70.00 Ry     beta= 0.70
     Davidson diagonalization with overlap

---- Real-time Memory Report at c_bands before calling an iterative solver
           318 MiB given to the printing process from OS
             0 MiB allocation reported by mallinfo(arena+hblkhd)
       1970195 MiB available memory on the node where the printing process lives
------------------
     ethr =  3.55E-11,  avg # of iterations =  3.5


     -----------------------------------------------
     Non-local corr. energy    =       9.08792107 Ry
     -----------------------------------------------


     total cpu time spent up to now is      268.0 secs

     End of self-consistent calculation

          k = 0.0000 0.0000 0.0000 ( 25781 PWs)   bands (ev):

    -7.7175  -7.6819  -7.6819  -7.3914  -7.3914  -6.5795  -6.3533  -6.3533
    -6.3513  -6.2036  -6.1941  -6.1941  -6.0928  -6.0928  -6.0380  -5.8612
    -5.7997  -5.7701  -5.6979  -5.6971  -5.6970  -5.6753  -5.6753  -5.6557
    -5.5070  -5.4971  -5.4971  -5.4069  -5.3725  -5.3725  -5.3453  -5.3453
    -5.2372  -5.2018  -5.2018  -5.1524  -5.1523  -5.0532  -5.0402  -5.0402
    -4.7453  -4.7305  -4.7305  -4.7053  -4.7052  -4.6927  -4.6927  -4.6800
    -4.6800  -4.6624  -4.6593  -4.6408  -4.6408  -4.6219  -4.6021  -4.6021
    -4.5836  -4.5827  -4.5827  -4.5760  -4.5760  -4.5616  -4.5616  -4.5564
    -4.5435  -4.5435  -4.5047  -4.4992  -4.4992  -4.4795  -4.4759  -4.4759
    -4.4723  -4.4612  -4.4612  -4.4376  -4.4376  -4.4184  -4.4182  -4.4095
    -4.4095  -4.3446  -4.3446  -4.3409  -4.3336  -4.2995  -4.2676  -4.2676
    -3.3650  -3.3650  -3.1707  -3.0303  -3.0303  -2.9929  -2.9929  -2.9232
    -2.8238  -2.5742  -2.5742  -2.5293   0.2499   2.4275   2.5563   2.5564
     2.7586   2.7848   2.9290   2.9291   3.1293   3.1293   3.2660   4.0800
     4.0801   4.1849   5.1491   5.1492   5.3491   5.5091   5.7719   6.4169
     6.6743   6.6743   7.0207   7.0208   7.2405   7.2428   7.2428   7.2731
     7.2889   7.2889   7.3615   7.4331   7.4331   7.5433   7.5587   7.5588
     8.1197   8.1198   8.1357   8.1735   8.4946   8.4946   8.6318   8.6318
     9.1308   9.1309   9.5603  10.1552  10.1554  11.1103  13.0104  13.2621
    13.2853  13.2854  13.2958  13.4247  13.4247  13.6948  14.2389  14.2889
    14.2890  14.3243  14.5954  14.5955  15.2417  15.2417  15.7126  16.5594
    16.6310  16.6310  16.6625  16.9082  16.9082  17.0571  17.4015  17.7072

     occupation numbers 
     1.0000   1.0000   1.0000   1.0000   1.0000   1.0000   1.0000   1.0000
     1.0000   1.0000   1.0000   1.0000   1.0000   1.0000   1.0000   1.0000
     1.0000   1.0000   1.0000   1.0000   1.0000   1.0000   1.0000   1.0000
     1.0000   1.0000   1.0000   1.0000   1.0000   1.0000   1.0000   1.0000
     1.0000   1.0000   1.0000   1.0000   1.0000   1.0000   1.0000   1.0000
     1.0000   1.0000   1.0000   1.0000   1.0000   1.0000   1.0000   1.0000
     1.0000   1.0000   1.0000   1.0000   1.0000   1.0000   1.0000   1.0000
     1.0000   1.0000   1.0000   1.0000   1.0000   1.0000   1.0000   1.0000
     1.0000   1.0000   1.0000   1.0000   1.0000   1.0000   1.0000   1.0000
     1.0000   1.0000   1.0000   1.0000   1.0000   1.0000   1.0000   1.0000
     1.0000   1.0000   1.0000   1.0000   1.0000   1.0000   1.0000   1.0000
     1.0000   1.0000   1.0000   1.0000   1.0000   1.0000   1.0000   1.0000
     1.0000   1.0000   1.0000   1.0000   1.0000   1.0000   1.0000   1.0000
     1.0000   1.0000   1.0000   1.0000   1.0000   1.0000   1.0000   1.0000
     1.0000   1.0000   1.0000   1.0000   1.0000   1.0000   1.0000   1.0000
     1.0000   1.0000   1.0000   1.0000   1.0000   1.0000   1.0000   1.0000
     1.0000   1.0000   1.0000   1.0000   1.0000   1.0000   1.0000   1.0000
     1.0000   1.0000   1.0000   1.0000   1.0000   1.0000   1.0000   1.0000
     0.7121   0.7118   0.0000   0.0000   0.0000   0.0000   0.0000   0.0000
     0.0000   0.0000   0.0000   0.0000   0.0000   0.0000   0.0000   0.0000
     0.0000   0.0000   0.0000   0.0000   0.0000   0.0000   0.0000   0.0000
     0.0000   0.0000   0.0000   0.0000   0.0000   0.0000   0.0000   0.0000

          k = 0.0000 0.0000-0.3068 ( 25758 PWs)   bands (ev):

    -7.7174  -7.6819  -7.6819  -7.3914  -7.3914  -6.5531  -6.3527  -6.3527
    -6.3450  -6.2507  -6.1879  -6.1879  -6.1004  -6.1004  -6.0041  -5.8966
    -5.7952  -5.7729  -5.7097  -5.6989  -5.6989  -5.6734  -5.6734  -5.6434
    -5.5070  -5.4974  -5.4974  -5.4068  -5.3726  -5.3726  -5.3456  -5.3456
    -5.2445  -5.1944  -5.1944  -5.1581  -5.1581  -5.0564  -5.0407  -5.0407
    -4.7331  -4.7290  -4.7290  -4.7041  -4.7041  -4.6932  -4.6932  -4.6767
    -4.6767  -4.6638  -4.6605  -4.6425  -4.6425  -4.6351  -4.6048  -4.6047
    -4.5995  -4.5871  -4.5871  -4.5818  -4.5732  -4.5732  -4.5671  -4.5671
    -4.5514  -4.5421  -4.5421  -4.5043  -4.4973  -4.4972  -4.4801  -4.4757
    -4.4757  -4.4706  -4.4579  -4.4579  -4.4382  -4.4382  -4.4185  -4.4099
    -4.4099  -4.3994  -4.3448  -4.3448  -4.3409  -4.2676  -4.2676  -3.7104
    -3.4920  -3.3614  -3.3614  -3.1016  -3.1016  -2.9576  -2.9091  -2.9091
    -2.8287  -2.5872  -2.5872  -2.5269   0.2150   2.4946   2.4947   2.6459
     2.7470   2.8906   2.8907   3.2894   3.4531   3.4532   3.4961   3.6534
     3.6567   3.6568   3.9185   5.8931   5.8932   6.0815   6.0815   6.2845
     6.3237   6.4919   6.8647   6.8647   6.8790   6.9239   6.9239   7.4285
     7.4285   7.5930   7.6387   7.6388   7.6982   7.7095   7.8665   7.8665
     7.9578   8.0329   8.0601   8.0601   8.4179   8.4180   8.6431   8.6431
     8.7011   9.1453   9.1454  10.1461  10.1463  12.2467  12.2796  13.0307
    13.2373  13.2373  13.3477  13.3478  13.3709  13.5795  14.0521  14.0521
    14.0767  14.4679  14.4680  14.5735  16.0225  16.2764  16.2764  16.4221
    16.5989  16.6535  16.6535  16.7489  16.7489  17.0312  17.3241  17.3241

     occupation numbers 
     1.0000   1.0000   1.0000   1.0000   1.0000   1.0000   1.0000   1.0000
     1.0000   1.0000   1.0000   1.0000   1.0000   1.0000   1.0000   1.0000
     1.0000   1.0000   1.0000   1.0000   1.0000   1.0000   1.0000   1.0000
     1.0000   1.0000   1.0000   1.0000   1.0000   1.0000   1.0000   1.0000
     1.0000   1.0000   1.0000   1.0000   1.0000   1.0000   1.0000   1.0000
     1.0000   1.0000   1.0000   1.0000   1.0000   1.0000   1.0000   1.0000
     1.0000   1.0000   1.0000   1.0000   1.0000   1.0000   1.0000   1.0000
     1.0000   1.0000   1.0000   1.0000   1.0000   1.0000   1.0000   1.0000
     1.0000   1.0000   1.0000   1.0000   1.0000   1.0000   1.0000   1.0000
     1.0000   1.0000   1.0000   1.0000   1.0000   1.0000   1.0000   1.0000
     1.0000   1.0000   1.0000   1.0000   1.0000   1.0000   1.0000   1.0000
     1.0000   1.0000   1.0000   1.0000   1.0000   1.0000   1.0000   1.0000
     1.0000   1.0000   1.0000   1.0000   1.0000   1.0000   1.0000   1.0000
     1.0000   1.0000   1.0000   1.0000   1.0000   1.0000   1.0000   1.0000
     1.0000   1.0000   1.0000   1.0000   1.0000   1.0000   1.0000   1.0000
     1.0000   1.0000   1.0000   1.0000   1.0000   1.0000   1.0000   1.0000
     1.0000   1.0000   1.0000   1.0000   1.0000   1.0000   1.0000   1.0000
     1.0000   1.0000   1.0000   1.0000   1.0000   1.0000   1.0000   1.0000
     1.0000   0.6585   0.6581   0.0000   0.0000   0.0000   0.0000   0.0000
     0.0000   0.0000   0.0000   0.0000   0.0000   0.0000   0.0000   0.0000
     0.0000   0.0000   0.0000   0.0000   0.0000   0.0000   0.0000   0.0000
     0.0000   0.0000   0.0000   0.0000   0.0000   0.0000   0.0000   0.0000

          k = 0.0000 0.2887 0.0000 ( 25764 PWs)   bands (ev):

    -7.7170  -7.6853  -7.6823  -7.3908  -7.3882  -6.5161  -6.3621  -6.3608
    -6.3079  -6.2128  -6.1895  -6.1515  -6.0997  -6.0882  -6.0137  -5.8450
    -5.7892  -5.7624  -5.7071  -5.6940  -5.6926  -5.6600  -5.6474  -5.6376
    -5.5068  -5.5001  -5.4925  -5.4189  -5.3818  -5.3702  -5.3327  -5.3291
    -5.2385  -5.2020  -5.2014  -5.1512  -5.1449  -5.0825  -5.0558  -5.0090
    -4.7410  -4.7314  -4.7305  -4.6965  -4.6957  -4.6866  -4.6859  -4.6776
    -4.6699  -4.6596  -4.6482  -4.6360  -4.6348  -4.6187  -4.6076  -4.6014
    -4.5908  -4.5889  -4.5823  -4.5719  -4.5647  -4.5644  -4.5589  -4.5533
    -4.5501  -4.5448  -4.5232  -4.5145  -4.5106  -4.4994  -4.4930  -4.4822
    -4.4757  -4.4645  -4.4639  -4.4449  -4.4368  -4.4289  -4.4237  -4.4099
    -4.4051  -4.3679  -4.3592  -4.3544  -4.2860  -4.2761  -4.2088  -4.1680
    -3.7678  -3.4480  -3.3162  -3.2919  -3.1261  -3.0336  -2.9962  -2.9499
    -2.8793  -2.5804  -2.4963  -2.4367   0.0450   2.6400   2.8289   2.9687
     3.0745   3.1752   3.1903   3.3630   3.4248   3.5059   3.6889   4.2521
     4.3168   4.5498   5.0743   5.1314   5.2914   5.4184   5.7941   5.9554
     6.1530   6.5454   6.5778   6.6222   6.7454   6.8393   7.1066   7.1400
     7.2232   7.3381   7.4250   7.4603   7.4804   7.5745   7.6057   7.6803
     7.7107   7.7192   7.8253   7.9320   8.0742   8.1821   8.3059   8.4014
     8.4166   8.9623   9.0470   9.4876   9.9009  12.1169  13.6533  13.7082
    13.7569  13.9617  13.9678  14.0058  14.1039  14.1796  14.2918  14.6180
    14.8465  15.0852  15.1544  15.2412  15.2818  15.3853  15.8638  16.6014
    16.6442  16.7422  16.7956  16.9012  17.0209  17.0344  17.1009  17.2771

     occupation numbers 
     1.0000   1.0000   1.0000   1.0000   1.0000   1.0000   1.0000   1.0000
     1.0000   1.0000   1.0000   1.0000   1.0000   1.0000   1.0000   1.0000
     1.0000   1.0000   1.0000   1.0000   1.0000   1.0000   1.0000   1.0000
     1.0000   1.0000   1.0000   1.0000   1.0000   1.0000   1.0000   1.0000
     1.0000   1.0000   1.0000   1.0000   1.0000   1.0000   1.0000   1.0000
     1.0000   1.0000   1.0000   1.0000   1.0000   1.0000   1.0000   1.0000
     1.0000   1.0000   1.0000   1.0000   1.0000   1.0000   1.0000   1.0000
     1.0000   1.0000   1.0000   1.0000   1.0000   1.0000   1.0000   1.0000
     1.0000   1.0000   1.0000   1.0000   1.0000   1.0000   1.0000   1.0000
     1.0000   1.0000   1.0000   1.0000   1.0000   1.0000   1.0000   1.0000
     1.0000   1.0000   1.0000   1.0000   1.0000   1.0000   1.0000   1.0000
     1.0000   1.0000   1.0000   1.0000   1.0000   1.0000   1.0000   1.0000
     1.0000   1.0000   1.0000   1.0000   1.0000   1.0000   1.0000   1.0000
     1.0000   1.0000   1.0000   1.0000   1.0000   1.0000   1.0000   1.0000
     1.0000   1.0000   1.0000   1.0000   1.0000   1.0000   1.0000   1.0000
     1.0000   1.0000   1.0000   1.0000   1.0000   1.0000   1.0000   1.0000
     1.0000   1.0000   1.0000   1.0000   1.0000   1.0000   1.0000   1.0000
     1.0000   1.0000   1.0000   1.0000   1.0000   1.0000   1.0000   1.0000
     1.0000   0.9896   0.9237   0.0008   0.0000   0.0000   0.0000   0.0000
     0.0000   0.0000   0.0000   0.0000   0.0000   0.0000   0.0000   0.0000
     0.0000   0.0000   0.0000   0.0000   0.0000   0.0000   0.0000   0.0000
     0.0000   0.0000   0.0000   0.0000   0.0000   0.0000   0.0000   0.0000

          k = 0.0000 0.2887-0.3068 ( 25732 PWs)   bands (ev):

    -7.7169  -7.6852  -7.6823  -7.3908  -7.3882  -6.5018  -6.3617  -6.3566
    -6.2888  -6.2356  -6.1829  -6.1658  -6.1113  -6.0960  -5.9862  -5.8632
    -5.7929  -5.7658  -5.7118  -5.6992  -5.6936  -5.6592  -5.6457  -5.6295
    -5.5067  -5.5004  -5.4924  -5.4189  -5.3816  -5.3704  -5.3312  -5.3293
    -5.2420  -5.1970  -5.1947  -5.1569  -5.1500  -5.0846  -5.0564  -5.0099
    -4.7386  -4.7293  -4.7293  -4.6960  -4.6958  -4.6852  -4.6850  -4.6782
    -4.6629  -4.6550  -4.6503  -4.6345  -4.6334  -4.6259  -4.6085  -4.6043
    -4.5911  -4.5891  -4.5843  -4.5812  -4.5706  -4.5638  -4.5590  -4.5560
    -4.5466  -4.5445  -4.5230  -4.5152  -4.5101  -4.5066  -4.4933  -4.4830
    -4.4768  -4.4747  -4.4637  -4.4625  -4.4427  -4.4371  -4.4249  -4.4202
    -4.4103  -4.4028  -4.3592  -4.3561  -4.3544  -4.2797  -4.2762  -3.7585
    -3.5807  -3.5321  -3.4369  -3.3632  -3.1558  -3.0768  -3.0610  -2.8473
    -2.7792  -2.6456  -2.5317  -2.4779   0.0085   2.7619   2.8490   3.0045
     3.0802   3.1216   3.2644   3.4355   3.6643   3.6810   3.8654   3.8754
     3.9092   4.2931   4.4996   5.6416   5.6526   5.8077   5.8337   5.9563
     6.0286   6.3372   6.5359   6.5390   6.6218   6.9422   7.0926   7.1111
     7.1807   7.2236   7.3733   7.3892   7.4692   7.5933   7.6513   7.7317
     7.7528   7.7692   7.8441   7.9494   8.1145   8.2408   8.2870   8.4059
     8.4663   8.9799   9.1173   9.2957   9.8673  12.8221  12.8624  13.4131
    13.6037  13.8143  13.8259  14.0405  14.0901  14.1988  14.3675  14.7808
    14.8624  14.9032  15.2718  15.3907  16.0898  16.1337  16.1621  16.2953
    16.5185  16.5418  16.7927  16.8555  16.9128  16.9895  17.1549  17.3668

     occupation numbers 
     1.0000   1.0000   1.0000   1.0000   1.0000   1.0000   1.0000   1.0000
     1.0000   1.0000   1.0000   1.0000   1.0000   1.0000   1.0000   1.0000
     1.0000   1.0000   1.0000   1.0000   1.0000   1.0000   1.0000   1.0000
     1.0000   1.0000   1.0000   1.0000   1.0000   1.0000   1.0000   1.0000
     1.0000   1.0000   1.0000   1.0000   1.0000   1.0000   1.0000   1.0000
     1.0000   1.0000   1.0000   1.0000   1.0000   1.0000   1.0000   1.0000
     1.0000   1.0000   1.0000   1.0000   1.0000   1.0000   1.0000   1.0000
     1.0000   1.0000   1.0000   1.0000   1.0000   1.0000   1.0000   1.0000
     1.0000   1.0000   1.0000   1.0000   1.0000   1.0000   1.0000   1.0000
     1.0000   1.0000   1.0000   1.0000   1.0000   1.0000   1.0000   1.0000
     1.0000   1.0000   1.0000   1.0000   1.0000   1.0000   1.0000   1.0000
     1.0000   1.0000   1.0000   1.0000   1.0000   1.0000   1.0000   1.0000
     1.0000   1.0000   1.0000   1.0000   1.0000   1.0000   1.0000   1.0000
     1.0000   1.0000   1.0000   1.0000   1.0000   1.0000   1.0000   1.0000
     1.0000   1.0000   1.0000   1.0000   1.0000   1.0000   1.0000   1.0000
     1.0000   1.0000   1.0000   1.0000   1.0000   1.0000   1.0000   1.0000
     1.0000   1.0000   1.0000   1.0000   1.0000   1.0000   1.0000   1.0000
     1.0000   1.0000   1.0000   1.0000   1.0000   1.0000   1.0000   1.0000
     1.0000   0.9833   0.7578   0.1241   0.0000   0.0000   0.0000   0.0000
     0.0000   0.0000   0.0000   0.0000   0.0000   0.0000   0.0000   0.0000
     0.0000   0.0000   0.0000   0.0000   0.0000   0.0000   0.0000   0.0000
     0.0000   0.0000   0.0000   0.0000   0.0000   0.0000   0.0000   0.0000

          k = 0.0000-0.5774 0.0000 ( 25772 PWs)   bands (ev):

    -7.7164  -7.6887  -7.6828  -7.3901  -7.3849  -6.4499  -6.3709  -6.3672
    -6.2543  -6.2165  -6.1847  -6.1371  -6.0990  -6.0837  -5.9805  -5.8313
    -5.7660  -5.7482  -5.7353  -5.6902  -5.6881  -5.6455  -5.6247  -5.6075
    -5.5078  -5.4969  -5.4873  -5.4397  -5.3892  -5.3669  -5.3127  -5.2985
    -5.2331  -5.2240  -5.2025  -5.1503  -5.1335  -5.0973  -5.0729  -4.9859
    -4.7379  -4.7338  -4.7321  -4.6988  -4.6984  -4.6798  -4.6690  -4.6603
    -4.6564  -4.6382  -4.6306  -4.6286  -4.6266  -4.6158  -4.6038  -4.5981
    -4.5954  -4.5934  -4.5831  -4.5785  -4.5702  -4.5621  -4.5580  -4.5532
    -4.5439  -4.5375  -4.5286  -4.5229  -4.5204  -4.5130  -4.5074  -4.4791
    -4.4633  -4.4600  -4.4567  -4.4469  -4.4445  -4.4345  -4.4153  -4.4110
    -4.3906  -4.3813  -4.3776  -4.3687  -4.3069  -4.2910  -4.2838  -3.8773
    -3.8453  -3.7920  -3.7311  -3.5139  -3.1792  -3.0375  -3.0045  -2.9000
    -2.8137  -2.7115  -2.4292  -2.4047  -0.1078   3.1058   3.2051   3.2167
     3.3463   3.4610   3.4903   3.7143   3.7637   4.2988   4.3093   4.6779
     4.7031   4.7097   5.2515   5.2583   5.3519   5.3581   5.4760   5.5026
     5.6937   5.9804   6.0183   6.0532   6.1606   6.4872   6.7269   7.1631
     7.1853   7.2137   7.2176   7.2513   7.2654   7.3181   7.3479   7.5597
     7.5837   7.6287   7.6602   7.8197   7.9253   7.9379   8.0274   8.0598
     8.4755   8.4828   8.7359   9.3339   9.6820  13.3531  13.4573  14.1184
    14.2128  14.2906  14.5297  14.5661  14.7251  14.9421  14.9676  15.1133
    15.1963  15.2413  15.4052  15.6447  16.1948  16.2658  16.3761  16.4717
    16.5785  16.6373  16.6959  16.7674  16.8847  16.9171  16.9938  17.0013

     occupation numbers 
     1.0000   1.0000   1.0000   1.0000   1.0000   1.0000   1.0000   1.0000
     1.0000   1.0000   1.0000   1.0000   1.0000   1.0000   1.0000   1.0000
     1.0000   1.0000   1.0000   1.0000   1.0000   1.0000   1.0000   1.0000
     1.0000   1.0000   1.0000   1.0000   1.0000   1.0000   1.0000   1.0000
     1.0000   1.0000   1.0000   1.0000   1.0000   1.0000   1.0000   1.0000
     1.0000   1.0000   1.0000   1.0000   1.0000   1.0000   1.0000   1.0000
     1.0000   1.0000   1.0000   1.0000   1.0000   1.0000   1.0000   1.0000
     1.0000   1.0000   1.0000   1.0000   1.0000   1.0000   1.0000   1.0000
     1.0000   1.0000   1.0000   1.0000   1.0000   1.0000   1.0000   1.0000
     1.0000   1.0000   1.0000   1.0000   1.0000   1.0000   1.0000   1.0000
     1.0000   1.0000   1.0000   1.0000   1.0000   1.0000   1.0000   1.0000
     1.0000   1.0000   1.0000   1.0000   1.0000   1.0000   1.0000   1.0000
     1.0000   1.0000   1.0000   1.0000   1.0000   1.0000   1.0000   1.0000
     1.0000   1.0000   1.0000   1.0000   1.0000   1.0000   1.0000   1.0000
     1.0000   1.0000   1.0000   1.0000   1.0000   1.0000   1.0000   1.0000
     1.0000   1.0000   1.0000   1.0000   1.0000   1.0000   1.0000   1.0000
     1.0000   1.0000   1.0000   1.0000   1.0000   1.0000   1.0000   1.0000
     1.0000   1.0000   1.0000   1.0000   1.0000   1.0000   1.0000   1.0000
     1.0000   1.0000   1.0000   0.0604   0.0000   0.0000   0.0000   0.0000
     0.0000   0.0000   0.0000   0.0000   0.0000   0.0000   0.0000   0.0000
     0.0000   0.0000   0.0000   0.0000   0.0000   0.0000   0.0000   0.0000
     0.0000   0.0000   0.0000   0.0000   0.0000   0.0000   0.0000   0.0000

          k = 0.0000-0.5774-0.3068 ( 25740 PWs)   bands (ev):

    -7.7163  -7.6887  -7.6828  -7.3901  -7.3849  -6.4476  -6.3706  -6.3629
    -6.2329  -6.2102  -6.1777  -6.1551  -6.1216  -6.0917  -5.9651  -5.8175
    -5.7878  -5.7598  -5.7313  -5.6949  -5.6887  -5.6456  -5.6203  -5.6047
    -5.5080  -5.4963  -5.4871  -5.4396  -5.3889  -5.3672  -5.3130  -5.2929
    -5.2359  -5.2221  -5.1953  -5.1559  -5.1359  -5.1000  -5.0737  -4.9864
    -4.7378  -4.7349  -4.7315  -4.6981  -4.6969  -4.6804  -4.6679  -4.6664
    -4.6557  -4.6426  -4.6361  -4.6273  -4.6256  -4.6123  -4.6019  -4.5988
    -4.5945  -4.5891  -4.5814  -4.5813  -4.5619  -4.5618  -4.5572  -4.5514
    -4.5439  -4.5373  -4.5319  -4.5246  -4.5205  -4.5131  -4.5066  -4.4778
    -4.4638  -4.4630  -4.4549  -4.4455  -4.4362  -4.4311  -4.4166  -4.4112
    -4.3814  -4.3813  -4.3687  -4.3596  -4.2980  -4.2838  -4.2238  -4.1676
    -4.1582  -3.4963  -3.3708  -3.2836  -3.1993  -3.1477  -3.0417  -2.9619
    -2.8209  -2.8011  -2.4870  -2.4353  -0.1582   3.1558   3.2244   3.3730
     3.4552   3.5910   3.6645   3.7891   3.8304   3.8985   4.0706   4.0929
     4.3419   5.2177   5.3758   5.5221   5.5410   5.5928   5.6248   5.7048
     5.9784   6.0287   6.1479   6.1912   6.2100   6.3189   6.3265   6.4675
     6.5843   6.6480   6.9411   6.9941   7.2938   7.3081   7.5133   7.5916
     7.6292   7.6671   7.8599   7.9365   7.9508   8.2491   8.3251   8.3537
     8.5512   8.6046   8.6206   9.3509   9.6329  13.3256  13.4780  13.5459
    13.8111  14.5427  14.7208  14.8624  15.0014  15.0460  15.0749  15.1535
    15.2803  15.3841  15.3929  15.5514  16.1057  16.2485  16.3723  16.4757
    16.5383  16.5909  16.8511  16.8544  16.9605  17.0201  17.0684  17.1681

     occupation numbers 
     1.0000   1.0000   1.0000   1.0000   1.0000   1.0000   1.0000   1.0000
     1.0000   1.0000   1.0000   1.0000   1.0000   1.0000   1.0000   1.0000
     1.0000   1.0000   1.0000   1.0000   1.0000   1.0000   1.0000   1.0000
     1.0000   1.0000   1.0000   1.0000   1.0000   1.0000   1.0000   1.0000
     1.0000   1.0000   1.0000   1.0000   1.0000   1.0000   1.0000   1.0000
     1.0000   1.0000   1.0000   1.0000   1.0000   1.0000   1.0000   1.0000
     1.0000   1.0000   1.0000   1.0000   1.0000   1.0000   1.0000   1.0000
     1.0000   1.0000   1.0000   1.0000   1.0000   1.0000   1.0000   1.0000
     1.0000   1.0000   1.0000   1.0000   1.0000   1.0000   1.0000   1.0000
     1.0000   1.0000   1.0000   1.0000   1.0000   1.0000   1.0000   1.0000
     1.0000   1.0000   1.0000   1.0000   1.0000   1.0000   1.0000   1.0000
     1.0000   1.0000   1.0000   1.0000   1.0000   1.0000   1.0000   1.0000
     1.0000   1.0000   1.0000   1.0000   1.0000   1.0000   1.0000   1.0000
     1.0000   1.0000   1.0000   1.0000   1.0000   1.0000   1.0000   1.0000
     1.0000   1.0000   1.0000   1.0000   1.0000   1.0000   1.0000   1.0000
     1.0000   1.0000   1.0000   1.0000   1.0000   1.0000   1.0000   1.0000
     1.0000   1.0000   1.0000   1.0000   1.0000   1.0000   1.0000   1.0000
     1.0000   1.0000   1.0000   1.0000   1.0000   1.0000   1.0000   1.0000
     1.0000   1.0000   1.0000   0.0419   0.0000   0.0000   0.0000   0.0000
     0.0000   0.0000   0.0000   0.0000   0.0000   0.0000   0.0000   0.0000
     0.0000   0.0000   0.0000   0.0000   0.0000   0.0000   0.0000   0.0000
     0.0000   0.0000   0.0000   0.0000   0.0000   0.0000   0.0000   0.0000

          k = 0.2500 0.4330 0.0000 ( 25702 PWs)   bands (ev):

    -7.7164  -7.6879  -7.6836  -7.3888  -7.3862  -6.4532  -6.3747  -6.3601
    -6.2589  -6.2125  -6.1872  -6.1322  -6.0989  -6.0865  -5.9822  -5.8305
    -5.7685  -5.7499  -5.7153  -5.7127  -5.6806  -5.6415  -5.6208  -5.6145
    -5.5074  -5.4968  -5.4894  -5.4337  -5.3819  -5.3728  -5.3274  -5.2984
    -5.2333  -5.2149  -5.2069  -5.1550  -5.1260  -5.0945  -5.0781  -4.9810
    -4.7364  -4.7349  -4.7308  -4.7060  -4.6975  -4.6743  -4.6719  -4.6643
    -4.6585  -4.6353  -4.6321  -4.6282  -4.6245  -4.6190  -4.6125  -4.5965
    -4.5918  -4.5894  -4.5874  -4.5782  -4.5708  -4.5596  -4.5538  -4.5513
    -4.5463  -4.5392  -4.5294  -4.5241  -4.5224  -4.5152  -4.5027  -4.4835
    -4.4735  -4.4641  -4.4538  -4.4492  -4.4426  -4.4339  -4.4175  -4.4126
    -4.4047  -4.3881  -4.3722  -4.3672  -4.2958  -4.2858  -4.0651  -4.0183
    -3.9489  -3.8283  -3.5180  -3.4622  -3.4014  -3.3290  -2.8983  -2.7450
    -2.7162  -2.6370  -2.4996  -2.4206  -0.0975   3.0014   3.0326   3.1843
     3.4209   3.4938   3.6630   4.0153   4.0233   4.0718   4.1296   4.3673
     4.6254   4.8425   4.9110   5.0041   5.2518   5.3848   5.5511   5.5830
     5.8476   6.0271   6.1167   6.5305   6.5952   6.7358   6.7741   6.9117
     6.9641   7.0007   7.0933   7.2578   7.3502   7.3999   7.4219   7.4528
     7.5855   7.6155   7.7763   7.8647   7.9168   7.9187   8.0382   8.0916
     8.3833   8.5044   8.5359   9.2747   9.3654  13.1697  14.2226  14.2813
    14.3686  14.4061  14.4323  14.5491  14.7057  14.7409  14.8945  14.9147
    15.1484  15.4406  15.5986  15.8473  15.9776  16.1849  16.3147  16.4006
    16.4952  16.5925  16.7095  16.7704  16.8731  16.9065  17.0256  17.0765

     occupation numbers 
     1.0000   1.0000   1.0000   1.0000   1.0000   1.0000   1.0000   1.0000
     1.0000   1.0000   1.0000   1.0000   1.0000   1.0000   1.0000   1.0000
     1.0000   1.0000   1.0000   1.0000   1.0000   1.0000   1.0000   1.0000
     1.0000   1.0000   1.0000   1.0000   1.0000   1.0000   1.0000   1.0000
     1.0000   1.0000   1.0000   1.0000   1.0000   1.0000   1.0000   1.0000
     1.0000   1.0000   1.0000   1.0000   1.0000   1.0000   1.0000   1.0000
     1.0000   1.0000   1.0000   1.0000   1.0000   1.0000   1.0000   1.0000
     1.0000   1.0000   1.0000   1.0000   1.0000   1.0000   1.0000   1.0000
     1.0000   1.0000   1.0000   1.0000   1.0000   1.0000   1.0000   1.0000
     1.0000   1.0000   1.0000   1.0000   1.0000   1.0000   1.0000   1.0000
     1.0000   1.0000   1.0000   1.0000   1.0000   1.0000   1.0000   1.0000
     1.0000   1.0000   1.0000   1.0000   1.0000   1.0000   1.0000   1.0000
     1.0000   1.0000   1.0000   1.0000   1.0000   1.0000   1.0000   1.0000
     1.0000   1.0000   1.0000   1.0000   1.0000   1.0000   1.0000   1.0000
     1.0000   1.0000   1.0000   1.0000   1.0000   1.0000   1.0000   1.0000
     1.0000   1.0000   1.0000   1.0000   1.0000   1.0000   1.0000   1.0000
     1.0000   1.0000   1.0000   1.0000   1.0000   1.0000   1.0000   1.0000
     1.0000   1.0000   1.0000   1.0000   1.0000   1.0000   1.0000   1.0000
     1.0000   1.0000   1.0000   0.1744   0.0301   0.0000   0.0000   0.0000
     0.0000   0.0000   0.0000   0.0000   0.0000   0.0000   0.0000   0.0000
     0.0000   0.0000   0.0000   0.0000   0.0000   0.0000   0.0000   0.0000
     0.0000   0.0000   0.0000   0.0000   0.0000   0.0000   0.0000   0.0000

          k = 0.2500 0.4330-0.3068 ( 25730 PWs)   bands (ev):

    -7.7163  -7.6879  -7.6836  -7.3888  -7.3862  -6.4499  -6.3740  -6.3572
    -6.2338  -6.2151  -6.1790  -6.1484  -6.1180  -6.0959  -5.9662  -5.8207
    -5.7881  -5.7546  -5.7197  -5.7130  -5.6830  -5.6415  -5.6173  -5.6110
    -5.5075  -5.4964  -5.4891  -5.4336  -5.3821  -5.3727  -5.3275  -5.2934
    -5.2366  -5.2110  -5.2015  -5.1603  -5.1284  -5.0974  -5.0788  -4.9813
    -4.7366  -4.7360  -4.7297  -4.7046  -4.6970  -4.6782  -4.6730  -4.6644
    -4.6621  -4.6354  -4.6295  -4.6287  -4.6270  -4.6163  -4.6091  -4.6010
    -4.5902  -4.5873  -4.5859  -4.5746  -4.5652  -4.5579  -4.5550  -4.5510
    -4.5464  -4.5409  -4.5325  -4.5237  -4.5226  -4.5144  -4.5022  -4.4823
    -4.4702  -4.4556  -4.4541  -4.4487  -4.4432  -4.4222  -4.4150  -4.4072
    -4.3977  -4.3874  -4.3768  -4.3710  -4.2979  -4.2910  -4.2639  -4.0273
    -3.8439  -3.7903  -3.7389  -3.3283  -3.1240  -3.0697  -2.9788  -2.7989
    -2.7653  -2.7072  -2.6665  -2.4256  -0.1550   3.0767   3.2991   3.4593
     3.4786   3.5740   3.6320   3.6518   3.7301   3.8031   4.0083   4.6463
     4.7362   4.8107   4.8535   5.0113   5.2114   5.7159   5.7812   5.8879
     5.9606   6.1400   6.2165   6.4060   6.4918   6.5278   6.6074   6.6986
     6.7691   6.8102   6.8146   6.9014   6.9285   7.3749   7.4116   7.4908
     7.5841   7.8584   7.8836   7.8961   8.0576   8.1222   8.1908   8.3119
     8.3242   8.5308   8.7694   9.2290   9.3831  13.4419  13.5791  13.9310
    14.0053  14.1017  14.5159  14.7725  14.8948  15.1242  15.2762  15.3337
    15.5008  15.6050  15.7937  15.8361  15.9399  16.0637  16.1719  16.2012
    16.3722  16.4767  16.6470  16.7072  16.7947  16.9776  16.9962  17.1441

     occupation numbers 
     1.0000   1.0000   1.0000   1.0000   1.0000   1.0000   1.0000   1.0000
     1.0000   1.0000   1.0000   1.0000   1.0000   1.0000   1.0000   1.0000
     1.0000   1.0000   1.0000   1.0000   1.0000   1.0000   1.0000   1.0000
     1.0000   1.0000   1.0000   1.0000   1.0000   1.0000   1.0000   1.0000
     1.0000   1.0000   1.0000   1.0000   1.0000   1.0000   1.0000   1.0000
     1.0000   1.0000   1.0000   1.0000   1.0000   1.0000   1.0000   1.0000
     1.0000   1.0000   1.0000   1.0000   1.0000   1.0000   1.0000   1.0000
     1.0000   1.0000   1.0000   1.0000   1.0000   1.0000   1.0000   1.0000
     1.0000   1.0000   1.0000   1.0000   1.0000   1.0000   1.0000   1.0000
     1.0000   1.0000   1.0000   1.0000   1.0000   1.0000   1.0000   1.0000
     1.0000   1.0000   1.0000   1.0000   1.0000   1.0000   1.0000   1.0000
     1.0000   1.0000   1.0000   1.0000   1.0000   1.0000   1.0000   1.0000
     1.0000   1.0000   1.0000   1.0000   1.0000   1.0000   1.0000   1.0000
     1.0000   1.0000   1.0000   1.0000   1.0000   1.0000   1.0000   1.0000
     1.0000   1.0000   1.0000   1.0000   1.0000   1.0000   1.0000   1.0000
     1.0000   1.0000   1.0000   1.0000   1.0000   1.0000   1.0000   1.0000
     1.0000   1.0000   1.0000   1.0000   1.0000   1.0000   1.0000   1.0000
     1.0000   1.0000   1.0000   1.0000   1.0000   1.0000   1.0000   1.0000
     1.0000   1.0000   1.0000   0.3220   0.0196   0.0000   0.0000   0.0000
     0.0000   0.0000   0.0000   0.0000   0.0000   0.0000   0.0000   0.0000
     0.0000   0.0000   0.0000   0.0000   0.0000   0.0000   0.0000   0.0000
     0.0000   0.0000   0.0000   0.0000   0.0000   0.0000   0.0000   0.0000

     the Fermi energy is     9.1846 ev

!    total energy              =   -5251.72174678 Ry
     total all-electron energy =    -67844.002958 Ry
     estimated scf accuracy    <       0.00000001 Ry
     smearing contrib. (-TS)   =      -0.00478567 Ry
     internal energy E=F+TS    =   -5251.71696110 Ry

     The total energy is F=E-TS. E is the sum of the following terms:
     one-electron contribution =   -1609.90448040 Ry
     hartree contribution      =    1118.60566555 Ry
     xc contribution           =    -759.94163263 Ry
     ewald contribution        =   -1905.91046658 Ry
     one-center paw contrib.   =   -2094.56604704 Ry
      -> PAW hartree energy AE =     291.26100141 Ry
      -> PAW hartree energy PS =    -288.34799807 Ry
      -> PAW xc energy AE      =    -314.00842871 Ry
      -> PAW xc energy PS      =      79.56749576 Ry
      -> total E_H with PAW    =    1121.51866889 Ry
      -> total E_XC with PAW   =    -994.38256558 Ry

     convergence has been achieved in  20 iterations


     -----------------------------------------------
     Non-local corr. energy    =       9.08792107 Ry
     -----------------------------------------------


     Forces acting on atoms (cartesian axes, Ry/au):

     atom    1 type  1   force =     0.00000000    0.00000000   -0.35020497
     atom    2 type  1   force =     0.00000000    0.00000000    0.02920638
     atom    3 type  1   force =     0.00847542    0.00489329   -0.01313694
     atom    4 type  1   force =     0.01448363    0.00836212    0.00510568
     atom    5 type  1   force =     0.00000000   -0.00978658   -0.01313694
     atom    6 type  1   force =     0.00000000   -0.01672425    0.00510568
     atom    7 type  1   force =    -0.00847542    0.00489329   -0.01313694
     atom    8 type  1   force =    -0.01448363    0.00836212    0.00510568
     atom    9 type  1   force =    -0.28090589    0.16218109    0.12235695
     atom   10 type  1   force =     0.00474287   -0.00273830   -0.01975468
     atom   11 type  1   force =     0.00000000   -0.32436218    0.12235695
     atom   12 type  1   force =     0.00000000    0.00547660   -0.01975468
     atom   13 type  1   force =     0.28090589    0.16218109    0.12235695
     atom   14 type  1   force =    -0.00474287   -0.00273830   -0.01975468
     atom   15 type  1   force =     0.00000000    0.00000000    0.01798128
     atom   16 type  1   force =     0.00000000    0.00000000   -0.00249652
     atom   17 type  2   force =     0.00000000    0.00000000    0.00118603
     atom   18 type  2   force =     0.00144740    0.00083566   -0.00536553
     atom   19 type  2   force =    -0.00250153   -0.00144426    0.00438703
     atom   20 type  2   force =     0.00000000   -0.00167132   -0.00536553
     atom   21 type  2   force =     0.00000000    0.00288851    0.00438703
     atom   22 type  2   force =    -0.00144740    0.00083566   -0.00536553
     atom   23 type  2   force =     0.00250153   -0.00144426    0.00438703
     atom   24 type  2   force =    -0.00019387    0.00011193    0.01720027
     atom   25 type  2   force =    -0.00095962    0.00055403   -0.01072944
     atom   26 type  2   force =     0.00000000   -0.00022386    0.01720027
     atom   27 type  2   force =     0.00000000   -0.00110807   -0.01072944
     atom   28 type  2   force =     0.00019387    0.00011193    0.01720027
     atom   29 type  2   force =     0.00095962    0.00055403   -0.01072944
     atom   30 type  2   force =     0.00000000    0.00000000    0.00882549
     atom   31 type  2   force =     0.00000000    0.00000000   -0.00403023
     atom   32 type  1   force =     0.00000000    0.00000000   -0.00065746
     The non-local contrib.  to forces
     atom    1 type  1   force =     0.00000000    0.00000000    0.67312426
     atom    2 type  1   force =     0.00000000    0.00000000   -0.11607594
     atom    3 type  1   force =    -0.05881549   -0.03395714    0.07023039
     atom    4 type  1   force =    -0.07616026   -0.04397115   -0.02635807
     atom    5 type  1   force =     0.00000000    0.06791428    0.07023039
     atom    6 type  1   force =     0.00000000    0.08794229   -0.02635807
     atom    7 type  1   force =     0.05881549   -0.03395714    0.07023039
     atom    8 type  1   force =     0.07616026   -0.04397115   -0.02635807
     atom    9 type  1   force =     0.40397490   -0.23323502   -0.18498087
     atom   10 type  1   force =    -0.02075225    0.01198132    0.12935581
     atom   11 type  1   force =     0.00000000    0.46647003   -0.18498087
     atom   12 type  1   force =     0.00000000   -0.02396263    0.12935581
     atom   13 type  1   force =    -0.40397490   -0.23323502   -0.18498087
     atom   14 type  1   force =     0.02075225    0.01198132    0.12935581
     atom   15 type  1   force =     0.00000000    0.00000000   -0.11694285
     atom   16 type  1   force =     0.00000000    0.00000000    0.01939706
     atom   17 type  2   force =     0.00000000    0.00000000   -0.00157158
     atom   18 type  2   force =    -0.00720539   -0.00416003    0.02103206
     atom   19 type  2   force =    -0.01198495   -0.00691951    0.01176872
     atom   20 type  2   force =     0.00000000    0.00832007    0.02103206
     atom   21 type  2   force =     0.00000000    0.01383903    0.01176872
     atom   22 type  2   force =     0.00720539   -0.00416003    0.02103206
     atom   23 type  2   force =     0.01198495   -0.00691951    0.01176872
     atom   24 type  2   force =     0.01104488   -0.00637677    0.07173927
     atom   25 type  2   force =     0.01269349   -0.00732859   -0.04325816
     atom   26 type  2   force =     0.00000000    0.01275353    0.07173927
     atom   27 type  2   force =     0.00000000    0.01465718   -0.04325816
     atom   28 type  2   force =    -0.01104488   -0.00637677    0.07173927
     atom   29 type  2   force =    -0.01269349   -0.00732859   -0.04325816
     atom   30 type  2   force =     0.00000000    0.00000000    0.05299556
     atom   31 type  2   force =     0.00000000    0.00000000   -0.01691382
     atom   32 type  1   force =     0.00000000    0.00000000    0.02693999
     The ionic contribution  to forces
     atom    1 type  1   force =    -0.00003333    0.00002030  -15.05556552
     atom    2 type  1   force =    -0.00003333    0.00002030    5.57978386
     atom    3 type  1   force =    -0.00003334    0.00002124   -4.09231076
     atom    4 type  1   force =    -0.00003332    0.00002122    3.44263938
     atom    5 type  1   force =    -0.00003251    0.00002077   -4.09231098
     atom    6 type  1   force =    -0.00003254    0.00002077    3.44263916
     atom    7 type  1   force =    -0.00003251    0.00002171   -4.09231087
     atom    8 type  1   force =    -0.00003253    0.00002169    3.44263927
     atom    9 type  1   force =   -10.18593745    5.88085209    5.49662999
     atom   10 type  1   force =    -0.20807080    0.12012686   -1.11898156
     atom   11 type  1   force =     0.00001166  -11.76185156    5.49667161
     atom   12 type  1   force =     0.00003215   -0.24031812   -1.11898271
     atom   13 type  1   force =    10.18606321    5.88091138    5.49666994
     atom   14 type  1   force =     0.20813670    0.12012783   -1.11898244
     atom   15 type  1   force =     0.00004100   -0.00002514    2.03946030
     atom   16 type  1   force =     0.00003371   -0.00002054   -0.95544483
     atom   17 type  2   force =    -0.00002983    0.00001855   -0.15864965
     atom   18 type  2   force =    -0.00002982    0.00001901   -0.15865046
     atom   19 type  2   force =    -0.00002980    0.00001898   -0.15864977
     atom   20 type  2   force =    -0.00002943    0.00001879   -0.15865024
     atom   21 type  2   force =    -0.00002947    0.00001879   -0.15864955
     atom   22 type  2   force =    -0.00002941    0.00001926   -0.15865034
     atom   23 type  2   force =    -0.00002943    0.00001923   -0.15864966
     atom   24 type  2   force =    -0.59706615    0.34471415   -2.21429394
     atom   25 type  2   force =    -0.59706615    0.34471415    1.89699312
     atom   26 type  2   force =     0.00002828   -0.68948712   -2.21429849
     atom   27 type  2   force =     0.00002828   -0.68948713    1.89699790
     atom   28 type  2   force =     0.59712619    0.34471623   -2.21429850
     atom   29 type  2   force =     0.59712620    0.34471624    1.89699746
     atom   30 type  2   force =     0.00003067   -0.00001908   -1.58910753
     atom   31 type  2   force =     0.00003067   -0.00001908    1.27180671
     atom   32 type  1   force =    -0.00007756    0.00004822   -0.41249090
     The local contribution  to forces
     atom    1 type  1   force =    -0.00007761    0.00024997   14.00337643
     atom    2 type  1   force =    -0.00007739    0.00024722   -5.43423031
     atom    3 type  1   force =     0.06711809    0.03904680    4.00851198
     atom    4 type  1   force =     0.09072283    0.05267564   -3.41161923
     atom    5 type  1   force =    -0.00007153   -0.07734569    4.00851194
     atom    6 type  1   force =    -0.00007189   -0.10460316   -3.41161927
     atom    7 type  1   force =    -0.06727253    0.03904508    4.00851198
     atom    8 type  1   force =    -0.09087745    0.05267543   -3.41161921
     atom    9 type  1   force =     9.47714811   -5.47150431   -5.17947874
     atom   10 type  1   force =     0.23484751   -0.13545765    0.97007457
     atom   11 type  1   force =     0.00110695   10.94157020   -5.17949765
     atom   12 type  1   force =     0.00109040    0.26942259    0.97007559
     atom   13 type  1   force =    -9.47501459   -5.47154108   -5.17951159
     atom   14 type  1   force =    -0.23265705   -0.13545817    0.97007572
     atom   15 type  1   force =     0.00108378   -0.00049258   -1.90524834
     atom   16 type  1   force =     0.00109529   -0.00049464    0.93341735
     atom   17 type  2   force =    -0.00001029    0.00002241    0.16116604
     atom   18 type  2   force =     0.00845949    0.00497404    0.13238754
     atom   19 type  2   force =     0.00929042    0.00539259    0.15123005
     atom   20 type  2   force =     0.00000887   -0.00978480    0.13238759
     atom   21 type  2   force =    -0.00000984   -0.01071746    0.15123006
     atom   22 type  2   force =    -0.00850045    0.00490837    0.13238757
     atom   23 type  2   force =    -0.00931098    0.00539254    0.15123005
     atom   24 type  2   force =     0.58616140   -0.33840968    2.16059505
     atom   25 type  2   force =     0.58371992   -0.33700010   -1.86542877
     atom   26 type  2   force =     0.00008469    0.67670608    2.16059633
     atom   27 type  2   force =     0.00008464    0.67388712   -1.86543031
     atom   28 type  2   force =    -0.58599231   -0.33841025    2.16059697
     atom   29 type  2   force =    -0.58355108   -0.33700074   -1.86543094
     atom   30 type  2   force =     0.00008420   -0.00003756    1.54553402
     atom   31 type  2   force =     0.00008412   -0.00003754   -1.25946306
     atom   32 type  1   force =    -0.00008058    0.00019076    0.38497122
     The core correction contribution to forces
     atom    1 type  1   force =    -0.00000624    0.00001817    0.02857859
     atom    2 type  1   force =    -0.00000627    0.00001824   -0.00052004
     atom    3 type  1   force =     0.00011001    0.00008579    0.00016195
     atom    4 type  1   force =    -0.00012218   -0.00004823    0.00019810
     atom    5 type  1   force =    -0.00000588   -0.00011624    0.00016196
     atom    6 type  1   force =    -0.00000587    0.00015185    0.00019809
     atom    7 type  1   force =    -0.00012251    0.00008582    0.00016195
     atom    8 type  1   force =     0.00010965   -0.00004823    0.00019810
     atom    9 type  1   force =     0.02513241   -0.01450083   -0.01015816
     atom   10 type  1   force =    -0.00007501    0.00005273   -0.00035375
     atom   11 type  1   force =     0.00007974    0.02889134   -0.01015753
     atom   12 type  1   force =     0.00008019   -0.00021609   -0.00035376
     atom   13 type  1   force =    -0.02497230   -0.01450026   -0.01015806
     atom   14 type  1   force =     0.00023619    0.00005273   -0.00035376
     atom   15 type  1   force =     0.00008043   -0.00003660    0.00041050
     atom   16 type  1   force =     0.00008060   -0.00003665   -0.00002343
     atom   17 type  2   force =     0.00000025   -0.00000034    0.00003565
     atom   18 type  2   force =     0.00017373    0.00010041   -0.00040625
     atom   19 type  2   force =     0.00019555    0.00011241   -0.00016942
     atom   20 type  2   force =     0.00000061   -0.00020092   -0.00040625
     atom   21 type  2   force =     0.00000024   -0.00022584   -0.00016941
     atom   22 type  2   force =    -0.00017404    0.00010036   -0.00040625
     atom   23 type  2   force =    -0.00019505    0.00011241   -0.00016942
     atom   24 type  2   force =    -0.00021459    0.00012386   -0.00108640
     atom   25 type  2   force =    -0.00018934    0.00010927    0.00069544
     atom   26 type  2   force =    -0.00000248   -0.00024384   -0.00108670
     atom   27 type  2   force =    -0.00000249   -0.00021465    0.00069572
     atom   28 type  2   force =     0.00020989    0.00012401   -0.00108671
     atom   29 type  2   force =     0.00018460    0.00010942    0.00069573
     atom   30 type  2   force =    -0.00000235    0.00000131   -0.00084727
     atom   31 type  2   force =    -0.00000236    0.00000131    0.00027357
     atom   32 type  1   force =    -0.00000626    0.00001367   -0.00040276
     The Hubbard contrib.    to forces
     atom    1 type  1   force =     0.00000000    0.00000000    0.00000000
     atom    2 type  1   force =     0.00000000    0.00000000    0.00000000
     atom    3 type  1   force =     0.00000000    0.00000000    0.00000000
     atom    4 type  1   force =     0.00000000    0.00000000    0.00000000
     atom    5 type  1   force =     0.00000000    0.00000000    0.00000000
     atom    6 type  1   force =     0.00000000    0.00000000    0.00000000
     atom    7 type  1   force =     0.00000000    0.00000000    0.00000000
     atom    8 type  1   force =     0.00000000    0.00000000    0.00000000
     atom    9 type  1   force =     0.00000000    0.00000000    0.00000000
     atom   10 type  1   force =     0.00000000    0.00000000    0.00000000
     atom   11 type  1   force =     0.00000000    0.00000000    0.00000000
     atom   12 type  1   force =     0.00000000    0.00000000    0.00000000
     atom   13 type  1   force =     0.00000000    0.00000000    0.00000000
     atom   14 type  1   force =     0.00000000    0.00000000    0.00000000
     atom   15 type  1   force =     0.00000000    0.00000000    0.00000000
     atom   16 type  1   force =     0.00000000    0.00000000    0.00000000
     atom   17 type  2   force =     0.00000000    0.00000000    0.00000000
     atom   18 type  2   force =     0.00000000    0.00000000    0.00000000
     atom   19 type  2   force =     0.00000000    0.00000000    0.00000000
     atom   20 type  2   force =     0.00000000    0.00000000    0.00000000
     atom   21 type  2   force =     0.00000000    0.00000000    0.00000000
     atom   22 type  2   force =     0.00000000    0.00000000    0.00000000
     atom   23 type  2   force =     0.00000000    0.00000000    0.00000000
     atom   24 type  2   force =     0.00000000    0.00000000    0.00000000
     atom   25 type  2   force =     0.00000000    0.00000000    0.00000000
     atom   26 type  2   force =     0.00000000    0.00000000    0.00000000
     atom   27 type  2   force =     0.00000000    0.00000000    0.00000000
     atom   28 type  2   force =     0.00000000    0.00000000    0.00000000
     atom   29 type  2   force =     0.00000000    0.00000000    0.00000000
     atom   30 type  2   force =     0.00000000    0.00000000    0.00000000
     atom   31 type  2   force =     0.00000000    0.00000000    0.00000000
     atom   32 type  1   force =     0.00000000    0.00000000    0.00000000
     The SCF correction term to forces
     atom    1 type  1   force =    -0.00000000    0.00000000    0.00003289
     atom    2 type  1   force =    -0.00000000    0.00000000    0.00000043
     atom    3 type  1   force =    -0.00002256   -0.00001302    0.00002123
     atom    4 type  1   force =    -0.00004292   -0.00002478   -0.00000277
     atom    5 type  1   force =    -0.00000000    0.00002605    0.00002123
     atom    6 type  1   force =    -0.00000000    0.00004956   -0.00000277
     atom    7 type  1   force =     0.00002256   -0.00001302    0.00002123
     atom    8 type  1   force =     0.00004292   -0.00002478   -0.00000277
     atom    9 type  1   force =    -0.00000702    0.00000405    0.00008616
     atom   10 type  1   force =    -0.00000103    0.00000059   -0.00009818
     atom   11 type  1   force =     0.00000000   -0.00000811    0.00008616
     atom   12 type  1   force =     0.00000000   -0.00000119   -0.00009818
     atom   13 type  1   force =     0.00000703    0.00000405    0.00008616
     atom   14 type  1   force =     0.00000103    0.00000059   -0.00009818
     atom   15 type  1   force =    -0.00000000    0.00000000    0.00005328
     atom   16 type  1   force =    -0.00000000    0.00000000   -0.00009105
     atom   17 type  2   force =     0.00000000   -0.00000000   -0.00004282
[...]
     atom   26 type  2   force =     0.00002784   -1.44420576    1.78459693
     atom   27 type  2   force =     0.00003231    1.10258601    0.28554608
     atom   28 type  2   force =     1.25073107    0.72207573    1.78459586
     atom   29 type  2   force =    -0.95485237   -0.55132392    0.28554581
     atom   30 type  2   force =     0.00003339   -0.00002080    0.97743406
     atom   31 type  2   force =     0.00002895   -0.00001797   -0.99675815
     atom   32 type  1   force =    -0.00004505    0.00002784   -1.05096298
     The local contribution  to forces
     atom    1 type  1   force =    -0.00007678    0.00020278   -2.17947097
     atom    2 type  1   force =    -0.00007728    0.00024486    2.40643658
     atom    3 type  1   force =    -0.11731640   -0.06751021   -3.00116089
     atom    4 type  1   force =    -0.75703704   -0.43677623    1.10277531
     atom    5 type  1   force =    -0.00009257    0.13565317   -3.00116048
     atom    6 type  1   force =    -0.00007043    0.87429984    1.10277544
     atom    7 type  1   force =     0.11718696   -0.06743490   -3.00116092
     atom    8 type  1   force =     0.75688150   -0.43677790    1.10277518
     atom    9 type  1   force =    -2.63797471    1.52311864    1.08788177
     atom   10 type  1   force =     0.59002818   -0.34052613    0.26509390
     atom   11 type  1   force =     0.00112685   -3.04790897    1.08787575
     atom   12 type  1   force =     0.00108935    0.67954807    0.26510969
     atom   13 type  1   force =     2.64016607    1.52319615    1.08787377
     atom   14 type  1   force =    -0.58784290   -0.34052435    0.26511321
     atom   15 type  1   force =     0.00109241   -0.00050236    2.08470453
     atom   16 type  1   force =     0.00109420   -0.00049711   -1.47212428
     atom   17 type  2   force =    -0.00001152    0.00002243    0.97276169
     atom   18 type  2   force =    -1.24603093   -0.71931953    1.88301879
     atom   19 type  2   force =    -0.63866601   -0.36870512   -0.30995732
     atom   20 type  2   force =     0.00000499    1.43877891    1.88301714
     atom   21 type  2   force =    -0.00001021    0.73747785   -0.30995952
     atom   22 type  2   force =     1.24600037   -0.71937017    1.88301989
     atom   23 type  2   force =     0.63864284   -0.36870390   -0.30995492
     atom   24 type  2   force =     1.11311318   -0.64264596   -1.74612175
     atom   25 type  2   force =    -0.94948844    0.54819783   -0.12761453
     atom   26 type  2   force =     0.00008218    1.28516981   -1.74613148
     atom   27 type  2   force =     0.00008326   -1.09651330   -0.12760776
     atom   28 type  2   force =    -1.11295147   -0.64263306   -1.74613834
     atom   29 type  2   force =     0.94966070    0.54819998   -0.12760611
     atom   30 type  2   force =     0.00007855   -0.00003653   -0.98455533
     atom   31 type  2   force =     0.00008663   -0.00003816    0.97791830
     atom   32 type  1   force =    -0.00007433    0.00018871    1.03160001
     The core correction contribution to forces
     atom    1 type  1   force =    -0.00000605    0.00001389    0.01248282
     atom    2 type  1   force =    -0.00000630    0.00001824    0.00026050
     atom    3 type  1   force =     0.00083137    0.00049372   -0.00223698
     atom    4 type  1   force =     0.00061638    0.00037830    0.00105529
     atom    5 type  1   force =    -0.00000825   -0.00094530   -0.00223691
     atom    6 type  1   force =    -0.00000566   -0.00070134    0.00105529
     atom    7 type  1   force =    -0.00084113    0.00050276   -0.00223696
     atom    8 type  1   force =    -0.00062904    0.00037803    0.00105527
     atom    9 type  1   force =     0.00692643   -0.00399394   -0.00307569
     atom   10 type  1   force =    -0.00112548    0.00065886    0.00004815
     atom   11 type  1   force =     0.00008365    0.00786242   -0.00307624
     atom   12 type  1   force =     0.00008042   -0.00142982    0.00004833
     atom   13 type  1   force =    -0.00676701   -0.00398740   -0.00307615
     atom   14 type  1   force =     0.00128680    0.00065904    0.00004837
     atom   15 type  1   force =     0.00007985   -0.00003721    0.00278342
     atom   16 type  1   force =     0.00008060   -0.00003695    0.00007459
     atom   17 type  2   force =     0.00000021   -0.00000033    0.00030268
     atom   18 type  2   force =     0.00197759    0.00114134   -0.00305822
     atom   19 type  2   force =     0.00116832    0.00067407    0.00051830
     atom   20 type  2   force =     0.00000031   -0.00228360   -0.00305820
     atom   21 type  2   force =     0.00000024   -0.00134908    0.00051828
     atom   22 type  2   force =    -0.00197737    0.00114152   -0.00305826
     atom   23 type  2   force =    -0.00116785    0.00067407    0.00051836
     atom   24 type  2   force =    -0.00221925    0.00128087    0.00064703
     atom   25 type  2   force =     0.00007539   -0.00004356    0.00254856
     atom   26 type  2   force =    -0.00000261   -0.00255915    0.00064705
     atom   27 type  2   force =    -0.00000242    0.00009106    0.00254849
     atom   28 type  2   force =     0.00221442    0.00128227    0.00064713
     atom   29 type  2   force =    -0.00008011   -0.00004349    0.00254848
     atom   30 type  2   force =    -0.00000244    0.00000179   -0.00011057
     atom   31 type  2   force =    -0.00000235    0.00000131   -0.00029509
     atom   32 type  1   force =    -0.00000574    0.00001325    0.00208873
     The Hubbard contrib.    to forces
     atom    1 type  1   force =     0.00000000    0.00000000    0.00000000
     atom    2 type  1   force =     0.00000000    0.00000000    0.00000000
     atom    3 type  1   force =     0.00000000    0.00000000    0.00000000
     atom    4 type  1   force =     0.00000000    0.00000000    0.00000000
     atom    5 type  1   force =     0.00000000    0.00000000    0.00000000
     atom    6 type  1   force =     0.00000000    0.00000000    0.00000000
     atom    7 type  1   force =     0.00000000    0.00000000    0.00000000
     atom    8 type  1   force =     0.00000000    0.00000000    0.00000000
     atom    9 type  1   force =     0.00000000    0.00000000    0.00000000
     atom   10 type  1   force =     0.00000000    0.00000000    0.00000000
     atom   11 type  1   force =     0.00000000    0.00000000    0.00000000
     atom   12 type  1   force =     0.00000000    0.00000000    0.00000000
     atom   13 type  1   force =     0.00000000    0.00000000    0.00000000
     atom   14 type  1   force =     0.00000000    0.00000000    0.00000000
     atom   15 type  1   force =     0.00000000    0.00000000    0.00000000
     atom   16 type  1   force =     0.00000000    0.00000000    0.00000000
     atom   17 type  2   force =     0.00000000    0.00000000    0.00000000
     atom   18 type  2   force =     0.00000000    0.00000000    0.00000000
     atom   19 type  2   force =     0.00000000    0.00000000    0.00000000
     atom   20 type  2   force =     0.00000000    0.00000000    0.00000000
     atom   21 type  2   force =     0.00000000    0.00000000    0.00000000
     atom   22 type  2   force =     0.00000000    0.00000000    0.00000000
     atom   23 type  2   force =     0.00000000    0.00000000    0.00000000
     atom   24 type  2   force =     0.00000000    0.00000000    0.00000000
     atom   25 type  2   force =     0.00000000    0.00000000    0.00000000
     atom   26 type  2   force =     0.00000000    0.00000000    0.00000000
     atom   27 type  2   force =     0.00000000    0.00000000    0.00000000
     atom   28 type  2   force =     0.00000000    0.00000000    0.00000000
     atom   29 type  2   force =     0.00000000    0.00000000    0.00000000
     atom   30 type  2   force =     0.00000000    0.00000000    0.00000000
     atom   31 type  2   force =     0.00000000    0.00000000    0.00000000
     atom   32 type  1   force =     0.00000000    0.00000000    0.00000000
     The SCF correction term to forces
     atom    1 type  1   force =    -0.00000000    0.00000000   -0.00000231
     atom    2 type  1   force =    -0.00000000    0.00000000    0.00000252
     atom    3 type  1   force =    -0.00000413   -0.00000238    0.00000733
     atom    4 type  1   force =    -0.00000652   -0.00000376    0.00000093
     atom    5 type  1   force =     0.00000000    0.00000477    0.00000733
     atom    6 type  1   force =    -0.00000000    0.00000752    0.00000093
     atom    7 type  1   force =     0.00000413   -0.00000238    0.00000733
     atom    8 type  1   force =     0.00000652   -0.00000376    0.00000093
     atom    9 type  1   force =    -0.00000154    0.00000089   -0.00000447
     atom   10 type  1   force =    -0.00000231    0.00000134    0.00000258
     atom   11 type  1   force =    -0.00000000   -0.00000177   -0.00000447
     atom   12 type  1   force =     0.00000000   -0.00000267    0.00000258
     atom   13 type  1   force =     0.00000153    0.00000089   -0.00000447
     atom   14 type  1   force =     0.00000231    0.00000134    0.00000258
     atom   15 type  1   force =    -0.00000000    0.00000000   -0.00000156
     atom   16 type  1   force =     0.00000000   -0.00000000   -0.00001380
     atom   17 type  2   force =     0.00000000   -0.00000000   -0.00000018
     atom   18 type  2   force =    -0.00000139   -0.00000080   -0.00000029
     atom   19 type  2   force =     0.00000200    0.00000116   -0.00000053
     atom   20 type  2   force =     0.00000000    0.00000161   -0.00000029
     atom   21 type  2   force =    -0.00000000   -0.00000231   -0.00000053
     atom   22 type  2   force =     0.00000139   -0.00000080   -0.00000029
     atom   23 type  2   force =    -0.00000200    0.00000116   -0.00000053
     atom   24 type  2   force =    -0.00000030    0.00000017    0.00000254
     atom   25 type  2   force =    -0.00000245    0.00000141   -0.00000149
     atom   26 type  2   force =    -0.00000000   -0.00000034    0.00000254
     atom   27 type  2   force =    -0.00000000   -0.00000283   -0.00000149
     atom   28 type  2   force =     0.00000030    0.00000017    0.00000254
     atom   29 type  2   force =     0.00000245    0.00000141   -0.00000149
     atom   30 type  2   force =    -0.00000000    0.00000000   -0.00000060
     atom   31 type  2   force =    -0.00000000    0.00000000   -0.00000023
     atom   32 type  1   force =    -0.00000000    0.00000000   -0.00001477

     Total force =     0.001435     Total SCF correction =     0.000032


     Computing stress (Cartesian axis) and pressure



     -----------------------------------------------
     Non-local corr. energy    =       9.09589473 Ry
     -----------------------------------------------

          total   stress  (Ry/bohr**3)                   (kbar)     P=      -43.41
  -0.00033797   0.00000000   0.00000000          -49.72        0.00        0.00
   0.00000000  -0.00033797   0.00000000            0.00      -49.72        0.00
   0.00000000  -0.00000000  -0.00020942            0.00       -0.00      -30.81

     kinetic stress (kbar)  18488.25     -0.00      0.00
                                0.00  18488.25      0.00
                                0.00      0.00  18502.27

     local   stress (kbar)   6712.74     -0.08     -0.00
                               -0.08   6712.64      0.00
                               -0.00      0.00   3566.31

     nonloc. stress (kbar)    274.25     -0.00      0.00
                                0.00    274.25     -0.00
                                0.00     -0.00    266.27

     hartree stress (kbar)  20375.34     -0.00     -0.00
                               -0.00  20375.34     -0.00
                               -0.00     -0.00  21678.93

     exc-cor stress (kbar)   5696.23      0.00     -0.00
                                0.00   5696.23      0.00
                               -0.00      0.00   5698.93

     corecor stress (kbar) -14914.07     -0.00     -0.00
                               -0.00 -14914.07     -0.00
                               -0.00     -0.00 -14914.14

     ewald   stress (kbar) -36852.34      0.10      0.00
                                0.10 -36852.22     -0.00
                                0.00     -0.00 -34997.61

     hubbard stress (kbar)      0.00      0.00      0.00
                                0.00      0.00      0.00
                                0.00      0.00      0.00

     DFT-D   stress (kbar)      0.00      0.00      0.00
                                0.00      0.00      0.00
                                0.00      0.00      0.00

     XDM     stress (kbar)      0.00      0.00      0.00
                                0.00      0.00      0.00
                                0.00      0.00      0.00

     dft-nl  stress (kbar)    169.87     -0.00      0.00
                               -0.00    169.87     -0.00
                                0.00     -0.00    168.23

     TS-vdW  stress (kbar)      0.00      0.00      0.00
                                0.00      0.00      0.00
                                0.00      0.00      0.00

     MDB     stress (kbar)      0.00      0.00      0.00
                                0.00      0.00      0.00
                                0.00      0.00      0.00

     3D-RISM stress (kbar)      0.00      0.00      0.00
                                0.00      0.00      0.00
                                0.00      0.00      0.00

     Energy error            =      1.1E-05 Ry
     Gradient error          =      7.3E-04 Ry/Bohr

     bfgs converged in  20 scf cycles and  19 bfgs steps
     (criteria: energy <  1.0E-04 Ry, force <  1.0E-03 Ry/Bohr)

     End of BFGS Geometry Optimization

     Final energy             =   -5252.1456175009 Ry

     File ./GaN.bfgs deleted, as requested
Begin final coordinates

ATOMIC_POSITIONS (angstrom)
Ga            1.6222756606        0.9366198184        1.9726731676
Ga            1.6222756606        0.9366198184        7.9753135789
Ga            0.0016478645        3.7474317281        2.6303024529
Ga            0.0355574720        3.7670094491        7.9929361887
Ga            4.8668240777        0.9347187051        2.6303024529
Ga            4.8668240777        0.8955632631        7.9929361887
Ga            3.2429034567        3.7474317281        2.6303024529
Ga            3.2089938492        3.7670094491        7.9929361887
Ga           -0.1864679533        1.9808986351        5.4603422311
Ga           -0.0510668872        1.9027247932       10.5021186809
Ga           -1.6222761733        4.4677914223        5.4603422311
Ga           -1.6222761733        4.6241391063       10.5021186809
Ga            3.4310124408        1.9808986351        5.4603422311
Ga            3.2956113747        1.9027247932       10.5021186809
Ga            1.6222722437        4.6831037996        5.3307150747
Ga            1.6222722437        4.6831037996       10.6314869694
N             1.6222756606        0.9366198184        9.9867243526
N             0.0054418395        3.7496221806        4.6458119427
N             0.0266935412        3.7618918563        9.9377904242
N             4.8668240777        0.9303378001        4.6458119427
N             4.8668240777        0.9057984487        9.9377904242
N             3.2391094817        3.7496221806        4.6458119427
N             3.2178577800        3.7618918563        9.9377904242
N            -0.0534737462        1.9041143939        1.9299100885
N            -0.0180215887        1.8836460812        7.3716114194
N            -1.6222761733        4.6213599049        1.9299100885
N            -1.6222761733        4.6622965302        7.3716114194
N             3.2980182337        1.9041143939        1.9299100885
N             3.2625660762        1.8836460812        7.3716114194
N             1.6222722437        4.6831037996        2.0395563918
N             1.6222722437        4.6831037996        7.2867210920
Ga            1.6222756606        0.9366198184        4.3167594758
End final coordinates



     Writing all to output data dir ./GaN.save/
 
     init_run     :      3.80s CPU      3.92s WALL (       1 calls)
     electrons    :   3416.11s CPU   3481.32s WALL (      20 calls)
     update_pot   :     15.33s CPU     15.46s WALL (      19 calls)
     forces       :     25.97s CPU     26.33s WALL (      20 calls)
     stress       :    116.82s CPU    118.02s WALL (      20 calls)

     Called by init_run:
     wfcinit      :      2.01s CPU      2.05s WALL (       1 calls)
     wfcinit:atom :      0.02s CPU      0.02s WALL (       8 calls)
     wfcinit:wfcr :      1.89s CPU      1.92s WALL (       8 calls)
     potinit      :      1.53s CPU      1.57s WALL (       1 calls)
     hinit0       :      0.11s CPU      0.11s WALL (       1 calls)

     Called by electrons:
     c_bands      :   3002.35s CPU   3056.14s WALL (     307 calls)
     sum_band     :    211.49s CPU    219.75s WALL (     307 calls)
     v_of_rho     :     59.68s CPU     60.39s WALL (     327 calls)
     v_h          :      0.49s CPU      0.50s WALL (     327 calls)
     v_xc         :     66.45s CPU     67.24s WALL (     367 calls)
     newd         :     16.07s CPU     16.30s WALL (     327 calls)
     PAW_pot      :    143.16s CPU    144.02s WALL (     346 calls)
     mix_rho      :      2.17s CPU      2.27s WALL (     307 calls)
     vdW_kernel   :      0.85s CPU      0.86s WALL (       1 calls)

     Called by c_bands:
     init_us_2    :     23.57s CPU     23.94s WALL (    5392 calls)
     init_us_2:cp :     23.50s CPU     23.91s WALL (    5392 calls)
     cegterg      :   2951.37s CPU   3001.38s WALL (    2456 calls)

     Called by sum_band:
     sum_band:wei :      0.18s CPU      0.19s WALL (     307 calls)
     sum_band:loo :    189.79s CPU    192.55s WALL (     307 calls)
     sum_band:buf :      8.33s CPU      8.63s WALL (    2456 calls)
     sum_band:ini :      8.49s CPU      8.59s WALL (    2456 calls)
     sum_band:cal :     45.22s CPU     45.48s WALL (    2608 calls)
     sum_band:bec :      1.49s CPU      1.53s WALL (    2608 calls)
     addusdens    :     18.36s CPU     23.62s WALL (     307 calls)
     addusd:skk   :      0.65s CPU      1.03s WALL (     614 calls)
     addusd:dgemm :     11.12s CPU     15.81s WALL (     614 calls)
     addusd:qvan2 :      5.88s CPU      5.94s WALL (     614 calls)

     Called by *egterg:
     cdiaghg      :   1396.15s CPU   1403.85s WALL (   17803 calls)
     cegterg:over :    187.97s CPU    193.66s WALL (   15499 calls)
     cegterg:upda :    141.09s CPU    144.38s WALL (   15499 calls)
     cegterg:last :     55.77s CPU     56.21s WALL (    2682 calls)
     h_psi        :    964.22s CPU    980.81s WALL (   17963 calls)
     s_psi        :    121.67s CPU    122.63s WALL (   17963 calls)
     g_psi        :      1.27s CPU      1.29s WALL (   15499 calls)

     Called by h_psi:
     h_psi:calbec :    149.27s CPU    150.37s WALL (   17963 calls)
     vloc_psi     :    682.72s CPU    692.23s WALL (   17963 calls)
     add_vuspsi   :    122.40s CPU    124.10s WALL (   17963 calls)

     General routines
     calbec       :    214.06s CPU    215.63s WALL (   21371 calls)
     fft          :     32.31s CPU     32.68s WALL (   23960 calls)
     ffts         :      0.98s CPU      1.00s WALL (     634 calls)
     fftw         :    764.43s CPU    774.91s WALL ( 2796656 calls)
     interpolate  :      1.92s CPU      1.96s WALL (     327 calls)
 
     Parallel routines

     PAW routines
     PAW_pot      :    143.16s CPU    144.02s WALL (     346 calls)
     PAW_symme    :      0.19s CPU      0.19s WALL (     653 calls)
 
     PWSCF        :  59m52.45s CPU      1h 1m WALL

 
   This run was terminated on:  22:17: 6  27Mar2024            

=------------------------------------------------------------------------------=
   JOB DONE.
=------------------------------------------------------------------------------=
