
     Program PWSCF v.7.1 starts on  9Mar2024 at  8:58:18 

     This program is part of the open-source Quantum ESPRESSO suite
     for quantum simulation of materials; please cite
         "P. Giannozzi et al., J. Phys.:Condens. Matter 21 395502 (2009);
         "P. Giannozzi et al., J. Phys.:Condens. Matter 29 465901 (2017);
         "P. Giannozzi et al., J. Chem. Phys. 152 154105 (2020);
          URL http://www.quantum-espresso.org", 
     in publications or presentations arising from this work. More details at
     http://www.quantum-espresso.org/quote

     Parallel version (MPI & OpenMP), running on     256 processor cores
     Number of MPI processes:               256
     Threads/MPI process:                     1

     MPI processes distributed on     2 nodes
     1463689 MiB available memory on the printing compute node when the environment starts
 
     Reading input from espresso.pwi
Warning: card &CELL ignored
Warning: card    CELL_DYNAMICS    = 'BFGS' ignored
Warning: card / ignored

     Current dimensions of program PWSCF are:
     Max number of different atomic species (ntypx) = 10
     Max number of k-points (npk) =  40000
     Max angular momentum in pseudopotentials (lmaxx) =  4
     file Pb.pbe-dn-kjpaw_psl.1.0.0.UPF: wavefunction(s)  6S 6P 5D renormalized
     file I.pbe-dn-kjpaw_psl.1.0.0.UPF: wavefunction(s)  5S 5P renormalized

     **************************************************************************
     Initializing libbeef V0.1.2 with the BEEF-vdW functional.
     Citation: Wellendorff et al., PRB 85, 235149 (2012).
     **************************************************************************


     IMPORTANT: XC functional enforced from input :
     Exchange-correlation= BEEF-VDW
                           (   1   4  43  14   2   0   0)
     Any further DFT definition will be discarded
     Please, verify this is what you really want

 
     R & G space division:  proc/nbgrp/npool/nimage =     256
     WARNING: too many processors for an effective parallelization!
     wavefunctions fft division:  task group distribution
                                  #TG    x Z-proc =       8     32
     Subspace diagonalization in iterative solution of the eigenvalue problem:
     a serial algorithm will be used

 
     Parallelization info
     --------------------
     sticks:   dense  smooth     PW     G-vecs:    dense   smooth      PW
     Min         119      95     23                19837    14191    1763
     Max         120      96     24                19846    14206    1780
     Sum       30589   24439   6121              5079105  3634441  454335
 
     Using Pencil Decomposition
 


     bravais-lattice index     =            4
     lattice parameter (alat)  =      35.6120  a.u.
     unit-cell volume          =   45937.3577 (a.u.)^3
     number of atoms/cell      =          144
     number of atomic types    =            2
     number of electrons       =      2301.00
     number of Kohn-Sham states=         1381
     kinetic-energy cutoff     =      70.0000  Ry
     charge density cutoff     =     350.0000  Ry
     scf convergence threshold =      1.0E-07
     mixing beta               =       0.7000
     number of iterations used =            8  plain     mixing
     Exchange-correlation= BEEF-VDW
                           (   1   4  43  14   2   0   0)

     celldm(1)=  35.612033  celldm(2)=   0.000000  celldm(3)=   1.174479
     celldm(4)=   0.000000  celldm(5)=   0.000000  celldm(6)=   0.000000

     crystal axes: (cart. coord. in units of alat)
               a(1) = (   1.000000   0.000000   0.000000 )  
               a(2) = (  -0.500000   0.866025   0.000000 )  
               a(3) = (   0.000000   0.000000   1.174479 )  

     reciprocal axes: (cart. coord. in units 2 pi/alat)
               b(1) = (  1.000000  0.577350 -0.000000 )  
               b(2) = (  0.000000  1.154701  0.000000 )  
               b(3) = (  0.000000 -0.000000  0.851442 )  


     PseudoPot. # 1 for Pb read from file:
     /trace/group/acmegroup/atimmins/packages/espresso/pseudo/psl_1.0.0/pslibrary.1.0.0/pbe/PSEUDOPOTENTIALS/Pb.pbe-dn-kjpaw_psl.1.0.0.UPF
     MD5 check sum: 39ab5b8a6bbd56b7735ad9f188aac93a
     Pseudo is Projector augmented-wave + core cor, Zval = 14.0
     Generated using 'atomic' code by A. Dal Corso  v.7.1
     Shape of augmentation charge: PSQ
     Using radial grid of 1281 points,  6 beta functions with: 
                l(1) =   0
                l(2) =   0
                l(3) =   1
                l(4) =   1
                l(5) =   2
                l(6) =   2
     Q(r) pseudized with 0 coefficients 


     PseudoPot. # 2 for I  read from file:
     /trace/group/acmegroup/atimmins/packages/espresso/pseudo/psl_1.0.0/pslibrary.1.0.0/pbe/PSEUDOPOTENTIALS/I.pbe-dn-kjpaw_psl.1.0.0.UPF
     MD5 check sum: bfa8781bc1224d19af3f3980e3fab11e
     Pseudo is Projector augmented-wave + core cor, Zval = 17.0
     Generated using 'atomic' code by A. Dal Corso  v.7.1
     Shape of augmentation charge: PSQ
     Using radial grid of 1247 points,  6 beta functions with: 
                l(1) =   0
                l(2) =   0
                l(3) =   1
                l(4) =   1
                l(5) =   2
                l(6) =   2
     Q(r) pseudized with 0 coefficients 


     atomic species   valence    mass     pseudopotential
        Pb            14.00   207.20000     Pb( 1.00)
        I             17.00   126.90447     I ( 1.00)

     No symmetry found


                                    s                        frac. trans.

      isym =  1     identity                                     

 cryst.   s( 1) = (     1          0          0      )
                  (     0          1          0      )
                  (     0          0          1      )

 cart.    s( 1) = (  1.0000000  0.0000000  0.0000000 )
                  (  0.0000000  1.0000000  0.0000000 )
                  (  0.0000000  0.0000000  1.0000000 )


     point group C_1 (1)    
     there are  1 classes
     the character table:

       E    
A      1.00

     the symmetry operations in each class and the name of the first element:

     E        1
          identity                                               

   Cartesian axes

     site n.     atom                  positions (alat units)
         1           Pb  tau(   1) = (   0.1250136   0.2164827   1.1744753  )
         2           Pb  tau(   2) = (   0.1250034   0.2164918   0.3914896  )
         3           Pb  tau(   3) = (   0.1250085   0.2164873   0.7829825  )
         4           Pb  tau(   4) = (   0.0000128   0.4329881   1.1744712  )
         5           Pb  tau(   5) = (   0.0000026   0.4329971   0.3914855  )
         6           Pb  tau(   6) = (   0.0000077   0.4329926   0.7829784  )
         7           Pb  tau(   7) = (  -0.1249881   0.6494934   1.1744671  )
         8           Pb  tau(   8) = (  -0.1249983   0.6495025   0.3914814  )
         9           Pb  tau(   9) = (  -0.1249932   0.6494980   0.7829742  )
        10           Pb  tau(  10) = (  -0.2499889   0.8659988   1.1744630  )
        11           Pb  tau(  11) = (  -0.2499991   0.8660078   0.3914773  )
        12           Pb  tau(  12) = (  -0.2499940   0.8660033   0.7829701  )
        13           Pb  tau(  13) = (   0.3750136   0.2164818   1.1744786  )
        14           Pb  tau(  14) = (   0.3750034   0.2164908   0.3914929  )
        15           Pb  tau(  15) = (   0.3750085   0.2164863   0.7829857  )
        16           Pb  tau(  16) = (   0.2500128   0.4329871   1.1744745  )
        17           Pb  tau(  17) = (   0.2500026   0.4329962   0.3914888  )
        18           Pb  tau(  18) = (   0.2500077   0.4329916   0.7829816  )
        19           Pb  tau(  19) = (   0.1250119   0.6494925   1.1744703  )
        20           Pb  tau(  20) = (   0.1250017   0.6495015   0.3914847  )
        21           Pb  tau(  21) = (   0.1250068   0.6494970   0.7829775  )
        22           Pb  tau(  22) = (   0.0000111   0.8659978   1.1744662  )
        23           Pb  tau(  23) = (   0.0000009   0.8660069   0.3914805  )
        24           Pb  tau(  24) = (   0.0000060   0.8660024   0.7829734  )
        25           Pb  tau(  25) = (   0.6250136   0.2164808   1.1744818  )
        26           Pb  tau(  26) = (   0.6250034   0.2164898   0.3914962  )
        27           Pb  tau(  27) = (   0.6250085   0.2164853   0.7829890  )
        28           Pb  tau(  28) = (   0.5000128   0.4329862   1.1744777  )
        29           Pb  tau(  29) = (   0.5000026   0.4329952   0.3914920  )
        30           Pb  tau(  30) = (   0.5000077   0.4329907   0.7829849  )
        31           Pb  tau(  31) = (   0.3750119   0.6494915   1.1744736  )
        32           Pb  tau(  32) = (   0.3750017   0.6495006   0.3914879  )
        33           Pb  tau(  33) = (   0.3750068   0.6494960   0.7829808  )
        34           Pb  tau(  34) = (   0.2500111   0.8659969   1.1744695  )
        35           Pb  tau(  35) = (   0.2500009   0.8660059   0.3914838  )
        36           Pb  tau(  36) = (   0.2500060   0.8660014   0.7829766  )
        37           Pb  tau(  37) = (   0.8750136   0.2164798   1.1744851  )
        38           Pb  tau(  38) = (   0.8750034   0.2164889   0.3914994  )
        39           Pb  tau(  39) = (   0.8750085   0.2164844   0.7829923  )
        40           Pb  tau(  40) = (   0.7500128   0.4329852   1.1744810  )
        41           Pb  tau(  41) = (   0.7500026   0.4329942   0.3914953  )
        42           Pb  tau(  42) = (   0.7500077   0.4329897   0.7829881  )
        43           Pb  tau(  43) = (   0.6250119   0.6494906   1.1744769  )
        44           Pb  tau(  44) = (   0.6250017   0.6494996   0.3914912  )
        45           Pb  tau(  45) = (   0.6250068   0.6494951   0.7829840  )
        46           Pb  tau(  46) = (   0.5000111   0.8659959   1.1744727  )
        47           Pb  tau(  47) = (   0.5000009   0.8660050   0.3914870  )
        48           Pb  tau(  48) = (   0.5000060   0.8660004   0.7829799  )
        49           I   tau(  49) = (   0.1250105   0.0721505   0.6824253  )
        50           I   tau(  50) = (   0.1250156   0.0721459   1.0739182  )
        51           I   tau(  51) = (   0.0000045   0.2886603   0.2909283  )
        52           I   tau(  52) = (   0.0000096   0.2886558   0.6824212  )
        53           I   tau(  53) = (   0.0000147   0.2886513   1.0739140  )
        54           I   tau(  54) = (  -0.1249963   0.5051657   0.2909242  )
        55           I   tau(  55) = (  -0.1249912   0.5051612   0.6824171  )
        56           I   tau(  56) = (  -0.1249861   0.5051566   1.0739099  )
        57           I   tau(  57) = (  -0.2499971   0.7216710   0.2909201  )
        58           I   tau(  58) = (  -0.2499920   0.7216665   0.6824129  )
        59           I   tau(  59) = (  -0.2499869   0.7216620   1.0739058  )
        60           I   tau(  60) = (   0.3750054   0.0721540   0.2909357  )
        61           I   tau(  61) = (   0.3750105   0.0721495   0.6824286  )
        62           I   tau(  62) = (   0.3750156   0.0721450   1.0739214  )
        63           I   tau(  63) = (   0.2500045   0.2886594   0.2909316  )
        64           I   tau(  64) = (   0.2500096   0.2886548   0.6824244  )
        65           I   tau(  65) = (   0.2500147   0.2886503   1.0739173  )
        66           I   tau(  66) = (   0.1250037   0.5051647   0.2909275  )
        67           I   tau(  67) = (   0.1250088   0.5051602   0.6824203  )
        68           I   tau(  68) = (   0.1250139   0.5051557   1.0739132  )
        69           I   tau(  69) = (   0.0000029   0.7216701   0.2909233  )
        70           I   tau(  70) = (   0.0000080   0.7216656   0.6824162  )
        71           I   tau(  71) = (   0.0000131   0.7216610   1.0739090  )
        72           I   tau(  72) = (   0.6250054   0.0721530   0.2909390  )
        73           I   tau(  73) = (   0.6250105   0.0721485   0.6824318  )
        74           I   tau(  74) = (   0.6250156   0.0721440   1.0739247  )
        75           I   tau(  75) = (   0.5000045   0.2886584   0.2909348  )
        76           I   tau(  76) = (   0.5000096   0.2886539   0.6824277  )
        77           I   tau(  77) = (   0.5000147   0.2886494   1.0739205  )
        78           I   tau(  78) = (   0.3750037   0.5051638   0.2909307  )
        79           I   tau(  79) = (   0.3750088   0.5051592   0.6824236  )
        80           I   tau(  80) = (   0.3750139   0.5051547   1.0739164  )
        81           I   tau(  81) = (   0.2500029   0.7216691   0.2909266  )
        82           I   tau(  82) = (   0.2500080   0.7216646   0.6824194  )
        83           I   tau(  83) = (   0.2500131   0.7216601   1.0739123  )
        84           I   tau(  84) = (   0.8750054   0.0721521   0.2909422  )
        85           I   tau(  85) = (   0.8750105   0.0721476   0.6824351  )
        86           I   tau(  86) = (   0.8750156   0.0721430   1.0739279  )
        87           I   tau(  87) = (   0.7500045   0.2886574   0.2909381  )
        88           I   tau(  88) = (   0.7500096   0.2886529   0.6824310  )
        89           I   tau(  89) = (   0.7500147   0.2886484   1.0739238  )
        90           I   tau(  90) = (   0.6250037   0.5051628   0.2909340  )
        91           I   tau(  91) = (   0.6250088   0.5051583   0.6824268  )
        92           I   tau(  92) = (   0.6250139   0.5051538   1.0739197  )
        93           I   tau(  93) = (   0.5000029   0.7216681   0.2909299  )
        94           I   tau(  94) = (   0.5000080   0.7216636   0.6824227  )
        95           I   tau(  95) = (   0.5000131   0.7216591   1.0739156  )
        96           I   tau(  96) = (  -0.0000017   0.1443297   0.1005555  )
        97           I   tau(  97) = (   0.0000034   0.1443252   0.4920483  )
        98           I   tau(  98) = (   0.0000085   0.1443207   0.8835412  )
        99           I   tau(  99) = (  -0.1250025   0.3608351   0.1005514  )
       100           I   tau( 100) = (  -0.1249974   0.3608306   0.4920442  )
       101           I   tau( 101) = (  -0.1249923   0.3608260   0.8835371  )
       102           I   tau( 102) = (  -0.2500034   0.5773404   0.1005472  )
       103           I   tau( 103) = (  -0.2499983   0.5773359   0.4920401  )
       104           I   tau( 104) = (  -0.2499932   0.5773314   0.8835329  )
       105           I   tau( 105) = (  -0.3750042   0.7938458   0.1005431  )
       106           I   tau( 106) = (  -0.3749991   0.7938413   0.4920360  )
       107           I   tau( 107) = (  -0.3749940   0.7938368   0.8835288  )
       108           I   tau( 108) = (   0.2499983   0.1443288   0.1005587  )
       109           I   tau( 109) = (   0.2500034   0.1443242   0.4920516  )
       110           I   tau( 110) = (   0.2500085   0.1443197   0.8835444  )
       111           I   tau( 111) = (   0.1249975   0.3608341   0.1005546  )
       112           I   tau( 112) = (   0.1250026   0.3608296   0.4920475  )
       113           I   tau( 113) = (   0.1250077   0.3608251   0.8835403  )
       114           I   tau( 114) = (  -0.0000034   0.5773395   0.1005505  )
       115           I   tau( 115) = (   0.0000017   0.5773350   0.4920433  )
       116           I   tau( 116) = (   0.0000068   0.5773304   0.8835362  )
       117           I   tau( 117) = (  -0.1250042   0.7938448   0.1005464  )
       118           I   tau( 118) = (  -0.1249991   0.7938403   0.4920392  )
       119           I   tau( 119) = (  -0.1249940   0.7938358   0.8835321  )
       120           I   tau( 120) = (   0.4999983   0.1443278   0.1005620  )
       121           I   tau( 121) = (   0.5000034   0.1443233   0.4920548  )
       122           I   tau( 122) = (   0.5000085   0.1443188   0.8835477  )
       123           I   tau( 123) = (   0.3749975   0.3608332   0.1005579  )
       124           I   tau( 124) = (   0.3750026   0.3608286   0.4920507  )
       125           I   tau( 125) = (   0.3750077   0.3608241   0.8835436  )
       126           I   tau( 126) = (   0.2499966   0.5773385   0.1005537  )
       127           I   tau( 127) = (   0.2500017   0.5773340   0.4920466  )
       128           I   tau( 128) = (   0.2500068   0.5773295   0.8835394  )
       129           I   tau( 129) = (   0.1249958   0.7938439   0.1005496  )
       130           I   tau( 130) = (   0.1250009   0.7938394   0.4920425  )
       131           I   tau( 131) = (   0.1250060   0.7938348   0.8835353  )
       132           I   tau( 132) = (   0.7499983   0.1443268   0.1005653  )
       133           I   tau( 133) = (   0.7500034   0.1443223   0.4920581  )
       134           I   tau( 134) = (   0.7500085   0.1443178   0.8835509  )
       135           I   tau( 135) = (   0.6249975   0.3608322   0.1005611  )
       136           I   tau( 136) = (   0.6250026   0.3608277   0.4920540  )
       137           I   tau( 137) = (   0.6250077   0.3608232   0.8835468  )
       138           I   tau( 138) = (   0.4999966   0.5773376   0.1005570  )
       139           I   tau( 139) = (   0.5000017   0.5773330   0.4920499  )
       140           I   tau( 140) = (   0.5000068   0.5773285   0.8835427  )
       141           I   tau( 141) = (   0.3749958   0.7938429   0.1005529  )
       142           I   tau( 142) = (   0.3750009   0.7938384   0.4920457  )
       143           I   tau( 143) = (   0.3750060   0.7938339   0.8835386  )
       144           Pb  tau( 144) = (   0.1250054   0.0721550   0.2909325  )

   Crystallographic axes

     site n.     atom                  positions (cryst. coord.)
         1           Pb  tau(   1) = (  0.2500000  0.2499727  0.9999973  )
         2           Pb  tau(   2) = (  0.2499950  0.2499832  0.3333306  )
         3           Pb  tau(   3) = (  0.2499975  0.2499780  0.6666639  )
         4           Pb  tau(   4) = (  0.2499986  0.4999716  0.9999938  )
         5           Pb  tau(   5) = (  0.2499936  0.4999820  0.3333271  )
         6           Pb  tau(   6) = (  0.2499961  0.4999768  0.6666604  )
         7           Pb  tau(   7) = (  0.2499972  0.7499704  0.9999902  )
         8           Pb  tau(   8) = (  0.2499922  0.7499809  0.3333236  )
         9           Pb  tau(   9) = (  0.2499947  0.7499757  0.6666569  )
        10           Pb  tau(  10) = (  0.2499957  0.9999693  0.9999867  )
        11           Pb  tau(  11) = (  0.2499908  0.9999797  0.3333201  )
        12           Pb  tau(  12) = (  0.2499932  0.9999745  0.6666534  )
        13           Pb  tau(  13) = (  0.4999994  0.2499716  1.0000000  )
        14           Pb  tau(  14) = (  0.4999944  0.2499821  0.3333334  )
        15           Pb  tau(  15) = (  0.4999969  0.2499768  0.6666667  )
        16           Pb  tau(  16) = (  0.4999980  0.4999705  0.9999965  )
        17           Pb  tau(  17) = (  0.4999930  0.4999809  0.3333299  )
        18           Pb  tau(  18) = (  0.4999955  0.4999757  0.6666632  )
        19           Pb  tau(  19) = (  0.4999966  0.7499693  0.9999930  )
        20           Pb  tau(  20) = (  0.4999916  0.7499798  0.3333264  )
        21           Pb  tau(  21) = (  0.4999941  0.7499745  0.6666597  )
        22           Pb  tau(  22) = (  0.4999952  0.9999682  0.9999895  )
        23           Pb  tau(  23) = (  0.4999902  0.9999786  0.3333228  )
        24           Pb  tau(  24) = (  0.4999927  0.9999734  0.6666562  )
        25           Pb  tau(  25) = (  0.7499989  0.2499705  1.0000028  )
        26           Pb  tau(  26) = (  0.7499939  0.2499809  0.3333362  )
        27           Pb  tau(  27) = (  0.7499964  0.2499757  0.6666695  )
        28           Pb  tau(  28) = (  0.7499975  0.4999694  0.9999993  )
        29           Pb  tau(  29) = (  0.7499925  0.4999798  0.3333326  )
        30           Pb  tau(  30) = (  0.7499950  0.4999746  0.6666660  )
        31           Pb  tau(  31) = (  0.7499960  0.7499682  0.9999958  )
        32           Pb  tau(  32) = (  0.7499910  0.7499786  0.3333291  )
        33           Pb  tau(  33) = (  0.7499935  0.7499734  0.6666625  )
        34           Pb  tau(  34) = (  0.7499946  0.9999671  0.9999923  )
        35           Pb  tau(  35) = (  0.7499896  0.9999775  0.3333256  )
        36           Pb  tau(  36) = (  0.7499921  0.9999723  0.6666590  )
        37           Pb  tau(  37) = (  0.9999983  0.2499694  1.0000056  )
        38           Pb  tau(  38) = (  0.9999933  0.2499798  0.3333389  )
        39           Pb  tau(  39) = (  0.9999958  0.2499746  0.6666723  )
        40           Pb  tau(  40) = (  0.9999969  0.4999682  1.0000021  )
        41           Pb  tau(  41) = (  0.9999919  0.4999787  0.3333354  )
        42           Pb  tau(  42) = (  0.9999944  0.4999735  0.6666687  )
        43           Pb  tau(  43) = (  0.9999955  0.7499671  0.9999986  )
        44           Pb  tau(  44) = (  0.9999905  0.7499775  0.3333319  )
        45           Pb  tau(  45) = (  0.9999930  0.7499723  0.6666652  )
        46           Pb  tau(  46) = (  0.9999941  0.9999659  0.9999951  )
        47           Pb  tau(  47) = (  0.9999891  0.9999764  0.3333284  )
        48           Pb  tau(  48) = (  0.9999916  0.9999712  0.6666617  )
        49           I   tau(  49) = (  0.1666666  0.0833122  0.5810454  )
        50           I   tau(  50) = (  0.1666691  0.0833070  0.9143787  )
        51           I   tau(  51) = (  0.1666626  0.3333162  0.2477085  )
        52           I   tau(  52) = (  0.1666651  0.3333110  0.5810418  )
        53           I   tau(  53) = (  0.1666676  0.3333058  0.9143752  )
        54           I   tau(  54) = (  0.1666612  0.5833151  0.2477050  )
        55           I   tau(  55) = (  0.1666637  0.5833099  0.5810383  )
        56           I   tau(  56) = (  0.1666662  0.5833047  0.9143717  )
        57           I   tau(  57) = (  0.1666598  0.8333139  0.2477015  )
        58           I   tau(  58) = (  0.1666623  0.8333087  0.5810348  )
        59           I   tau(  59) = (  0.1666648  0.8333035  0.9143682  )
        60           I   tau(  60) = (  0.4166635  0.0833163  0.2477148  )
        61           I   tau(  61) = (  0.4166660  0.0833111  0.5810481  )
        62           I   tau(  62) = (  0.4166685  0.0833058  0.9143815  )
        63           I   tau(  63) = (  0.4166621  0.3333151  0.2477113  )
        64           I   tau(  64) = (  0.4166646  0.3333099  0.5810446  )
        65           I   tau(  65) = (  0.4166671  0.3333047  0.9143780  )
        66           I   tau(  66) = (  0.4166607  0.5833140  0.2477078  )
        67           I   tau(  67) = (  0.4166632  0.5833088  0.5810411  )
        68           I   tau(  68) = (  0.4166657  0.5833035  0.9143744  )
        69           I   tau(  69) = (  0.4166593  0.8333128  0.2477043  )
        70           I   tau(  70) = (  0.4166618  0.8333076  0.5810376  )
        71           I   tau(  71) = (  0.4166643  0.8333024  0.9143709  )
        72           I   tau(  72) = (  0.6666629  0.0833152  0.2477176  )
        73           I   tau(  73) = (  0.6666654  0.0833099  0.5810509  )
        74           I   tau(  74) = (  0.6666679  0.0833047  0.9143842  )
        75           I   tau(  75) = (  0.6666615  0.3333140  0.2477141  )
        76           I   tau(  76) = (  0.6666640  0.3333088  0.5810474  )
        77           I   tau(  77) = (  0.6666665  0.3333036  0.9143807  )
        78           I   tau(  78) = (  0.6666601  0.5833129  0.2477106  )
        79           I   tau(  79) = (  0.6666626  0.5833076  0.5810439  )
        80           I   tau(  80) = (  0.6666651  0.5833024  0.9143772  )
        81           I   tau(  81) = (  0.6666587  0.8333117  0.2477070  )
        82           I   tau(  82) = (  0.6666612  0.8333065  0.5810404  )
        83           I   tau(  83) = (  0.6666637  0.8333013  0.9143737  )
        84           I   tau(  84) = (  0.9166624  0.0833141  0.2477203  )
        85           I   tau(  85) = (  0.9166649  0.0833088  0.5810537  )
        86           I   tau(  86) = (  0.9166674  0.0833036  0.9143870  )
        87           I   tau(  87) = (  0.9166610  0.3333129  0.2477168  )
        88           I   tau(  88) = (  0.9166635  0.3333077  0.5810502  )
        89           I   tau(  89) = (  0.9166660  0.3333025  0.9143835  )
        90           I   tau(  90) = (  0.9166596  0.5833118  0.2477133  )
        91           I   tau(  91) = (  0.9166621  0.5833065  0.5810467  )
        92           I   tau(  92) = (  0.9166646  0.5833013  0.9143800  )
        93           I   tau(  93) = (  0.9166582  0.8333106  0.2477098  )
        94           I   tau(  94) = (  0.9166607  0.8333054  0.5810431  )
        95           I   tau(  95) = (  0.9166632  0.8333002  0.9143765  )
        96           I   tau(  96) = (  0.0833271  0.1666576  0.0856171  )
        97           I   tau(  97) = (  0.0833296  0.1666524  0.4189505  )
        98           I   tau(  98) = (  0.0833321  0.1666472  0.7522838  )
        99           I   tau(  99) = (  0.0833257  0.4166565  0.0856136  )
       100           I   tau( 100) = (  0.0833282  0.4166513  0.4189470  )
       101           I   tau( 101) = (  0.0833307  0.4166460  0.7522803  )
       102           I   tau( 102) = (  0.0833243  0.6666553  0.0856101  )
       103           I   tau( 103) = (  0.0833268  0.6666501  0.4189434  )
       104           I   tau( 104) = (  0.0833293  0.6666449  0.7522768  )
       105           I   tau( 105) = (  0.0833229  0.9166542  0.0856066  )
       106           I   tau( 106) = (  0.0833254  0.9166489  0.4189399  )
       107           I   tau( 107) = (  0.0833279  0.9166437  0.7522733  )
       108           I   tau( 108) = (  0.3333265  0.1666565  0.0856199  )
       109           I   tau( 109) = (  0.3333290  0.1666513  0.4189532  )
       110           I   tau( 110) = (  0.3333315  0.1666461  0.7522866  )
       111           I   tau( 111) = (  0.3333251  0.4166554  0.0856164  )
       112           I   tau( 112) = (  0.3333276  0.4166501  0.4189497  )
       113           I   tau( 113) = (  0.3333301  0.4166449  0.7522831  )
       114           I   tau( 114) = (  0.3333237  0.6666542  0.0856129  )
       115           I   tau( 115) = (  0.3333262  0.6666490  0.4189462  )
       116           I   tau( 116) = (  0.3333287  0.6666438  0.7522795  )
       117           I   tau( 117) = (  0.3333223  0.9166531  0.0856094  )
       118           I   tau( 118) = (  0.3333248  0.9166478  0.4189427  )
       119           I   tau( 119) = (  0.3333273  0.9166426  0.7522760  )
       120           I   tau( 120) = (  0.5833260  0.1666554  0.0856227  )
       121           I   tau( 121) = (  0.5833285  0.1666502  0.4189560  )
       122           I   tau( 122) = (  0.5833310  0.1666450  0.7522893  )
       123           I   tau( 123) = (  0.5833246  0.4166542  0.0856192  )
       124           I   tau( 124) = (  0.5833271  0.4166490  0.4189525  )
       125           I   tau( 125) = (  0.5833296  0.4166438  0.7522858  )
       126           I   tau( 126) = (  0.5833232  0.6666531  0.0856157  )
       127           I   tau( 127) = (  0.5833257  0.6666479  0.4189490  )
       128           I   tau( 128) = (  0.5833282  0.6666427  0.7522823  )
       129           I   tau( 129) = (  0.5833218  0.9166519  0.0856121  )
       130           I   tau( 130) = (  0.5833243  0.9166467  0.4189455  )
       131           I   tau( 131) = (  0.5833268  0.9166415  0.7522788  )
       132           I   tau( 132) = (  0.8333254  0.1666543  0.0856254  )
       133           I   tau( 133) = (  0.8333279  0.1666491  0.4189588  )
       134           I   tau( 134) = (  0.8333304  0.1666438  0.7522921  )
       135           I   tau( 135) = (  0.8333240  0.4166531  0.0856219  )
       136           I   tau( 136) = (  0.8333265  0.4166479  0.4189553  )
       137           I   tau( 137) = (  0.8333290  0.4166427  0.7522886  )
       138           I   tau( 138) = (  0.8333226  0.6666520  0.0856184  )
       139           I   tau( 139) = (  0.8333251  0.6666468  0.4189518  )
       140           I   tau( 140) = (  0.8333276  0.6666415  0.7522851  )
       141           I   tau( 141) = (  0.8333212  0.9166508  0.0856149  )
       142           I   tau( 142) = (  0.8333237  0.9166456  0.4189482  )
       143           I   tau( 143) = (  0.8333262  0.9166404  0.7522816  )
       144           Pb  tau( 144) = (  0.1666641  0.0833174  0.2477120  )

     number of k points=     1  Gaussian smearing, width (Ry)=  0.0100
                       cart. coord. in units 2pi/alat
        k(    1) = (   0.0000000   0.0000000   0.0000000), wk =   2.0000000

                       cryst. coord.
        k(    1) = (   0.0000000   0.0000000   0.0000000), wk =   2.0000000

     Dense  grid:  5079105 G-vectors     FFT dimensions: ( 216, 216, 250)

     Smooth grid:  3634441 G-vectors     FFT dimensions: ( 192, 192, 225)

     Dynamical RAM for                 wfc:      37.38 MB

     Dynamical RAM for     wfc (w. buffer):      37.38 MB

     Dynamical RAM for           str. fact:       0.61 MB

     Dynamical RAM for           local pot:       0.00 MB

     Dynamical RAM for          nlocal pot:      70.16 MB

     Dynamical RAM for                qrad:       3.00 MB

     Dynamical RAM for          rho,v,vnew:       1.98 MB

     Dynamical RAM for               rhoin:       0.66 MB

     Dynamical RAM for            rho*nmix:       4.84 MB

     Dynamical RAM for           G-vectors:       1.24 MB

     Dynamical RAM for          h,s,v(r/c):    1396.85 MB

     Dynamical RAM for          <psi|beta>:      54.62 MB

     Dynamical RAM for                 psi:     149.53 MB

     Dynamical RAM for                hpsi:     149.53 MB

     Dynamical RAM for                spsi:     149.53 MB

     Dynamical RAM for      wfcinit/wfcrot:     118.43 MB

     Dynamical RAM for           addusdens:      85.07 MB

     Dynamical RAM for          addusforce:     142.51 MB

     Dynamical RAM for         addusstress:      60.85 MB

     Estimated static dynamical RAM per process >     117.72 MB

     Estimated max dynamical RAM per process >       1.98 GB

     Estimated total dynamical RAM >     505.65 GB

     Atomic positions and unit cell read from directory:
     ./PbI2.save/
     Atomic positions from file used, from input discarded
 

     Check: negative core charge=   -0.000001

     The initial density is read from file :
     ./PbI2.save/charge-density



     %%%%%%%%%%%%%%%%%%%%%%%%%%%%%%%%%%%%%%%%%%%%%%%%%%%%%%%%%%%%%%%%%%%%%%%%
     %                                                                      %
     % You are using vdW-DF, which was implemented by the Thonhauser group. %
     % Please cite the following two papers that made this development      %
     % possible and the two reviews that describe the various versions:     %
     %                                                                      %
     %   T. Thonhauser et al., PRL 115, 136402 (2015).                      %
     %   T. Thonhauser et al., PRB 76, 125112 (2007).                       %
     %   K. Berland et al., Rep. Prog. Phys. 78, 066501 (2015).             %
     %   D.C. Langreth et al., J. Phys.: Condens. Matter 21, 084203 (2009). %
     %                                                                      %
     % If you are calculating stress with vdW-DF, please also cite:         %
     %                                                                      %
     %   R. Sabatini et al., J. Phys.: Condens. Matter 24, 424209 (2012).   %
     %                                                                      %
     %%%%%%%%%%%%%%%%%%%%%%%%%%%%%%%%%%%%%%%%%%%%%%%%%%%%%%%%%%%%%%%%%%%%%%%%

     %%%%%%%%%%%%%%%%%%%%%%%%%%%%%%%%%%%%%%%%%%%%%%%%%%%%%%%%%%%%%%%%%%%%%%%%
     %                                                                      %
     %  vdW-DF NEWS:                                                        %
     %                                                                      %
     %  * vdW-DF3 is now available. DOI: 10.1021/acs.jctc.0c00471           %
     %    use with input_dft = 'vdW-DF3-opt1' or 'vdW-DF3-opt2'             %
     %                                                                      %
     %  * Unscreened and range-separated vdW-DF hybrid functionals          %
     %    DOI: 10.1063/1.4986522 and 10.1088/1361-648X/ac2ad2               %
     %    use with input_dft = 'vdW-DF-cx0' (etc) and 'vdW-DF-ahcx'         %
     %                                                                      %
     %%%%%%%%%%%%%%%%%%%%%%%%%%%%%%%%%%%%%%%%%%%%%%%%%%%%%%%%%%%%%%%%%%%%%%%%


     Carrying out vdW-DF run using the following parameters:
     Nqs    =  20  Npoints =  1024  r_max =  100.000
     q_mesh =  0.00001000  0.04494208  0.09755937  0.15916263
               0.23128650  0.31572767  0.41458969  0.53033537
               0.66584808  0.82450364  1.01025438  1.22772762
               1.48234092  1.78043706  2.12944203  2.53805004
               3.01644009  3.57652955  4.23227104  5.00000000


     -----------------------------------------------
     Non-local corr. energy    =      68.72379577 Ry
     -----------------------------------------------

     Starting wfcs from file
     Checking if some PAW data can be deallocated... 
       PAW data deallocated on  159 nodes for type:  1
       PAW data deallocated on   97 nodes for type:  2

     total cpu time spent up to now is       48.0 secs

     Self-consistent Calculation

     iteration #  1     ecut=    70.00 Ry     beta= 0.70
     Davidson diagonalization with overlap

---- Real-time Memory Report at c_bands before calling an iterative solver
           394 MiB given to the printing process from OS
             0 MiB allocation reported by mallinfo(arena+hblkhd)
       1430159 MiB available memory on the node where the printing process lives
------------------
     ethr =  1.00E-05,  avg # of iterations =  1.0

     Threshold (ethr) on eigenvalues was too large:
     Diagonalizing with lowered threshold

     Davidson diagonalization with overlap

---- Real-time Memory Report at c_bands before calling an iterative solver
          1421 MiB given to the printing process from OS
             0 MiB allocation reported by mallinfo(arena+hblkhd)
       1409298 MiB available memory on the node where the printing process lives
------------------
     c_bands:  2 eigenvalues not converged
     ethr =  3.94E-13,  avg # of iterations = 20.0


     -----------------------------------------------
     Non-local corr. energy    =      68.72379501 Ry
     -----------------------------------------------


     total cpu time spent up to now is      703.6 secs

     End of self-consistent calculation

          k = 0.0000 0.0000 0.0000 (454335 PWs)   bands (ev):

   -40.9240 -40.9240 -40.9239 -40.9186 -40.9185 -40.9184 -40.9179 -40.9179
   -40.9178 -40.9019 -40.9019 -40.9018 -40.9014 -40.9014 -40.9013 -40.8773
   -40.8773 -40.8773 -40.8743 -40.8743 -40.8743 -40.8737 -40.8736 -40.8736
   -40.8670 -40.8670 -40.8670 -40.8663 -40.8662 -40.8662 -40.8559 -40.8558
   -40.8558 -40.8558 -40.8558 -40.8557 -40.8536 -40.8535 -40.8535 -40.8535
   -40.8535 -40.8534 -40.8530 -40.8530 -40.8529 -40.8529 -40.8529 -40.8529
   -40.8483 -40.8483 -40.8483 -40.8483 -40.8483 -40.8482 -40.8476 -40.8476
   -40.8475 -40.8475 -40.8475 -40.8475 -40.8440 -40.8440 -40.8418 -40.8418
   -40.8403 -40.8351 -40.8351 -40.8351 -40.8351 -40.8350 -40.8350 -40.8346
   -40.8346 -40.8345 -40.8345 -40.8345 -40.8345 -40.8331 -40.8330 -40.8330
   -40.8330 -40.8330 -40.8330 -40.8323 -40.8323 -40.8323 -40.8323 -40.8322
   -40.8322 -40.8320 -40.8320 -40.8320 -40.8320 -40.8320 -40.8319 -40.8317
   -40.8317 -40.8317 -40.8316 -40.8316 -40.8316 -40.8316 -40.8316 -40.8315
   -40.8313 -40.8313 -40.8313 -40.8312 -40.8312 -40.8311 -40.8310 -40.8310
   -40.8310 -40.8310 -40.8309 -40.8309 -40.8309 -40.8309 -40.8308 -40.8308
   -40.8308 -40.8307 -40.8307 -40.8307 -40.8307 -40.8305 -40.8304 -40.8304
   -40.8296 -40.8296 -40.8296 -40.8296 -40.8295 -40.8295 -40.8290 -40.8290
   -40.8289 -40.8285 -40.8284 -40.8284 -40.8280 -40.8279 -40.8279 -40.8279
   -40.8279 -40.8278 -40.8277 -40.8276 -40.8276 -40.8276 -40.8276 -40.8275
   -40.8274 -40.8273 -40.8273 -40.8270 -40.8270 -40.8269 -40.8265 -40.8264
   -40.8264 -40.8211 -40.8211 -40.8202 -40.8202 -40.8202 -40.8198 -40.8198
   -40.8191 -40.8061 -40.8061 -40.8060 -40.8055 -40.8055 -40.8054 -40.7700
   -40.7700 -40.7691 -40.7690 -40.7690 -40.7631 -40.7631 -40.7629 -40.7629
   -40.7628 -40.7628 -40.7628 -40.7628 -40.7626 -40.7626 -40.7625 -40.7625
   -40.7625 -40.7625 -40.7621 -40.7621 -40.7620 -40.7620 -40.7620 -40.7619
   -40.7619 -40.7618 -40.7618 -40.7618 -40.7618 -40.7617 -40.7617 -40.7617
   -40.7617 -40.7617 -40.7617 -40.7616 -40.7616 -40.7616 -40.7614 -40.7606
   -40.7606 -40.7606 -40.7602 -40.7602 -40.7602 -40.7602 -40.7602 -40.7602
   -40.7601 -40.7601 -40.7600 -40.7597 -40.7597 -40.7597 -40.7596 -40.7596
   -40.7596 -40.7596 -40.7596 -40.7596 -40.7596 -40.7595 -40.7595 -40.7594
   -40.7594 -40.7594 -40.7593 -40.7593 -40.7593 -40.7586 -40.7586 -40.7585
   -40.7585 -40.7585 -40.7585 -40.7585 -40.7585 -40.7585 -40.7585 -40.7584
   -40.7584 -40.7584 -40.7584 -40.7583 -40.7581 -40.7581 -40.7581 -40.7580
   -40.7579 -40.7579 -40.7579 -40.7579 -40.7579 -40.7578 -40.7578 -40.7578
   -40.7578 -40.7578 -40.7577 -40.7577 -40.7576 -40.7576 -40.7576 -40.7576
   -40.7576 -40.7576 -40.7575 -40.7575 -40.7575 -40.7575 -40.7575 -40.7573
   -40.7573 -40.7573 -40.7572 -40.7572 -40.7572 -40.7572 -40.7571 -40.7571
   -40.7571 -40.7571 -40.7571 -40.7571 -40.7571 -40.7571 -40.7571 -40.7570
   -40.7570 -40.7570 -40.7570 -40.7570 -40.7569 -40.7569 -40.7568 -40.7568
   -40.7568 -40.7568 -40.7567 -40.7566 -40.7566 -40.7565 -40.7565 -40.7565
   -40.7506 -40.7505 -40.7505 -40.7504 -40.7504 -40.7503 -40.7499 -40.7498
   -40.7498 -40.7497 -40.7497 -40.7496 -40.7496 -40.7496 -40.7496 -40.7178
   -40.7178 -40.7177 -40.7148 -40.7147 -40.7146 -40.7140 -40.7139 -40.7139
   -40.7072 -40.7071 -40.7070 -40.7064 -40.7063 -40.7063 -40.6986 -40.6986
   -40.6986 -40.6975 -40.6975 -40.6974 -40.6952 -40.6952 -40.6952 -40.6904
   -40.6903 -40.6903 -40.6903 -40.6902 -40.6902 -40.6860 -40.6859 -40.6859
   -40.6853 -40.6852 -40.6852 -40.6834 -40.6834 -40.6833 -40.6816 -40.6815
   -40.6815 -40.6810 -40.6810 -40.6810 -40.6800 -40.6800 -40.6799 -40.6799
   -40.6799 -40.6799 -40.6793 -40.6793 -40.6793 -40.6793 -40.6792 -40.6792
   -40.6779 -40.6779 -40.6778 -40.6778 -40.6778 -40.6778 -40.6769 -40.6769
   -40.6768 -40.6768 -40.6768 -40.6768 -40.6762 -40.6762 -40.6762 -40.6761
   -40.6761 -40.6761 -40.6699 -40.6699 -40.6698 -40.6698 -40.6697 -40.6697
   -40.6694 -40.6693 -40.6692 -40.6692 -40.6692 -40.6692 -40.6561 -40.6561
   -40.6560 -40.6560 -40.6560 -40.6559 -40.6525 -40.6525 -40.6524 -40.6524
   -40.6524 -40.6524 -40.6490 -40.6490 -40.6488 -40.6488 -40.6488 -40.6488
   -40.6171 -40.6171 -40.6153 -40.6153 -40.6148 -40.5898 -40.5898 -40.5898
   -40.5871 -40.5871 -40.5870 -40.5849 -40.5849 -40.5848 -40.5781 -40.5781
   -40.5781 -40.5772 -40.5772 -40.5772 -40.5711 -40.5711 -40.5711 -40.5703
   -40.5703 -40.5703 -40.5452 -40.5451 -40.5451 -40.5443 -40.5442 -40.5442
   -40.5364 -40.5363 -40.5363 -13.0228 -13.0227 -13.0200 -13.0147 -13.0113
   -13.0112 -13.0110 -13.0098 -13.0097 -13.0060 -13.0060 -13.0043 -13.0029
   -13.0014 -13.0014 -13.0004 -12.9989 -12.9989 -12.9989 -12.9959 -12.9958
   -12.9949 -12.9944 -12.9944 -12.9934 -12.9931 -12.9931 -12.9926 -12.9912
   -12.9912 -12.9907 -12.9904 -12.9903 -12.9883 -12.9883 -12.9866 -12.9865
   -12.9861 -12.9853 -12.9834 -12.9809 -12.9809 -12.9775 -12.9773 -12.9773
   -12.9759 -12.9759 -12.9756 -12.9744 -12.9744 -12.9744 -12.9738 -12.9738
   -12.9725 -12.9721 -12.9721 -12.9705 -12.9704 -12.9704 -12.9688 -12.9679
   -12.9679 -12.9673 -12.9673 -12.9672 -12.9666 -12.9653 -12.9653 -12.9652
   -12.9644 -12.9644 -12.9631 -12.9631 -12.9618 -12.9616 -12.9615 -12.9601
   -12.9596 -12.9568 -12.9568 -12.9310 -12.9301 -12.9301 -12.9236 -12.9233
   -12.9228 -12.9228 -12.9221 -12.9221 -12.9189 -12.9189 -12.9185 -12.9174
   -12.9169 -12.9169 -12.9128 -12.9111 -12.9111 -12.9108 -12.9096 -12.9096
   -12.9085 -12.9085 -12.9085 -12.9074 -12.9074 -12.9069 -12.9060 -12.9057
   -12.9057 -12.9050 -12.9050 -12.9043 -12.9041 -12.9041 -12.9039 -12.9037
   -12.9037 -12.9030 -12.9022 -12.9021 -12.9021 -12.9018 -12.9012 -12.9012
   -12.9008 -12.9002 -12.9002 -12.9000 -12.8999 -12.8992 -12.8991 -12.8991
   -12.8991 -12.8984 -12.8984 -12.8982 -12.8980 -12.8980 -12.8973 -12.8971
   -12.8971 -12.8968 -12.8963 -12.8963 -12.8953 -12.8951 -12.8951 -12.8944
   -12.8942 -12.8942 -12.8933 -12.8931 -12.8931 -12.8916 -12.8916 -12.8903
   -12.8882 -12.8859 -12.8859 -12.8595 -12.8594 -12.8573 -12.8510 -12.8509
   -12.8503 -12.8478 -12.8477 -12.8408 -12.8405 -12.8405 -12.8397 -12.8396
   -12.8396 -12.8342 -12.8340 -12.8340 -12.8331 -12.8330 -12.8327 -12.8326
   -12.8308 -12.8308 -12.8281 -12.8230 -12.8230 -12.8208 -12.8189 -12.8178
   -12.8178 -12.8157 -12.8156 -12.8153 -12.8137 -12.8136 -12.8130 -12.8129
   -12.8110 -12.8103 -12.8102 -12.8102 -12.8081 -12.8081 -12.8077 -12.8075
   -12.8074 -12.8018 -12.8017 -12.8014 -12.8007 -12.8006 -12.8005 -12.7994
   -12.7993 -12.7978 -12.7951 -12.7942 -12.7942 -12.7941 -12.7935 -12.7935
   -12.7903 -12.7903 -12.7894 -12.7887 -12.7886 -12.7878 -12.7013 -12.7012
   -12.6914 -12.6914 -12.6745 -12.6716 -12.6658 -12.6658 -12.6571 -12.6368
   -12.6308 -12.6308 -12.6138 -12.6136 -12.6136 -12.5895 -12.5875 -12.5873
    -8.1478  -8.0518  -7.9631  -7.9558  -7.9557  -7.9491  -7.9458  -7.9422
    -7.9422  -7.8649  -7.8593  -7.8592  -7.8559  -7.8557  -7.8557  -7.7935
    -7.7823  -7.7823  -7.7726  -7.7376  -7.7376  -7.7250  -7.7219  -7.7218
    -7.6954  -7.6953  -7.6924  -7.6917  -7.6757  -7.6757  -7.6677  -7.6429
    -7.6342  -7.6341  -7.6227  -7.6149  -7.6129  -7.6128  -7.6125  -7.6115
    -7.6115  -7.6112  -7.6090  -7.6090  -7.6035  -7.6034  -7.5956  -7.5955
    -7.5946  -7.5782  -7.5782  -7.5677  -7.5581  -7.5581  -7.5571  -7.5567
    -7.5545  -7.5545  -7.5418  -7.5368  -7.5368  -7.5364  -7.5350  -7.5350
    -7.5337  -7.5155  -7.5155  -7.5128  -7.5103  -7.4981  -7.4981  -7.4929
    -7.4883  -7.4883  -7.4762  -7.4730  -7.4730  -7.4724  -7.4704  -7.4704
    -7.4479  -7.4470  -7.4470  -7.4280  -7.4280  -7.4248  -7.4016  -7.4016
    -7.3835  -7.3834  -7.3772  -7.3644  -7.3312  -7.3192  -7.3191  -3.9382
    -3.7106  -3.7089  -3.7089  -3.6958  -3.6958  -3.6898  -3.6898  -3.6845
    -3.6821  -3.6234  -3.6234  -3.6219  -3.6130  -3.6130  -3.6113  -3.6113
    -3.6100  -3.6074  -3.5356  -3.5277  -3.5277  -3.5193  -3.5193  -3.5094
    -3.4814  -3.4517  -3.4392  -3.4391  -3.4222  -3.4214  -3.4213  -3.3975
    -3.3975  -3.3521  -3.3517  -3.3517  -3.3505  -3.3505  -3.3469  -3.2632
    -3.2593  -3.2592  -3.2217  -3.1725  -3.1724  -3.1332  -3.0814  -2.8078
     0.8676   0.8676   0.8700   0.9703   0.9729   0.9729   1.1546   1.1593
     1.1593   1.1665   1.1665   1.1715   1.1732   1.1824   1.1824   1.2225
     1.2262   1.2262   1.2332   1.2332   1.2376   1.3683   1.3751   1.3751
     1.3919   1.3919   1.3974   1.4071   1.4264   1.4264   1.4428   1.4428
     1.4458   1.4518   1.4570   1.4570   1.4648   1.4677   1.4677   1.4748
     1.4765   1.4765   1.4899   1.4994   1.4995   1.5243   1.5243   1.5505
     1.5508   1.5508   1.5632   1.5666   1.5666   1.5786   1.6133   1.6134
     1.6292   1.7289   1.7289   1.7517   1.7799   1.7891   1.7891   1.7947
     1.8019   1.8019   1.8051   1.8051   1.8139   1.8139   1.8158   1.8202
     1.8771   1.8771   1.8774   1.8935   1.8935   1.9071   1.9154   1.9154
     1.9163   1.9753   1.9753   1.9823   1.9833   1.9844   1.9844   2.0216
     2.0249   2.0249   2.0307   2.0370   2.0370   2.0431   2.0431   2.0659
     2.0702   2.0703   2.0777   2.0777   2.0924   2.0966   2.1049   2.1383
     2.1383   2.1456   2.1567   2.1567   2.1614   2.1821   2.1822   2.1832
     2.1854   2.1854   2.1980   2.1984   2.1984   2.2278   2.2278   2.2296
     2.2402   2.2402   2.2523   2.2679   2.2788   2.2789   2.2837   2.2861
     2.2927   2.2927   2.3092   2.3236   2.3236   2.3257   2.3340   2.3340
     2.3637   2.3637   2.3773   2.3859   2.4087   2.4602   2.4602   2.4759
     2.5017   2.5018   2.5399   2.5691   2.5691   2.5782   2.5782   2.5783
     2.5953   2.5984   2.5984   2.6084   2.6084   2.6222   2.6328   2.6328
     2.6403   2.6459   2.6459   2.6517   2.6602   2.6602   2.6708   2.7290
     2.7291   2.7438   2.7444   2.7444   2.7577   2.7577   2.7630   2.7637
     2.7637   2.7665   2.7699   2.7699   2.7746   2.8204   2.8204   2.8306
     2.8306   2.8408   2.8451   2.8451   2.8510   2.8510   2.8512   2.8517
     2.8531   2.8589   2.8593   2.8593   2.8662   2.8662   2.8771   2.8771
     2.8812   2.8812   2.8835   2.9053   2.9053   2.9106   2.9468   2.9468
     2.9494   2.9495   2.9571   2.9583   2.9583   2.9599   2.9629   2.9645
     2.9645   2.9685   2.9727   2.9727   2.9745   2.9782   2.9783   2.9865
     2.9879   2.9879   2.9984   3.0034   3.0034   3.0098   3.0098   3.0116
     3.0254   3.0324   3.0324   3.0383   3.0383   3.0597   3.0718   3.0719
     3.0752   3.0904   3.0986   3.0986   3.1266   3.1266   3.1268   3.1424
     3.1425   3.1425   3.1643   3.1713   3.1713   3.1867   3.1867   3.1946
     3.2098   3.2178   3.2178   3.2919   3.2919   3.2953   3.3357   3.3357
     3.3392   3.3424   3.3424   3.3436   3.3436   3.3505   3.3519   3.3526
     3.3600   3.3600   3.3771   3.4190   3.4223   3.4223   3.4399   3.4446
     3.4447   3.4466   3.4508   3.4508   3.4511   4.5886   5.1072   5.1074
     5.9334   6.0287   6.1859   6.4167   6.4630   6.4630   6.4643   6.4643
     6.4655   6.5301   6.5606   6.5606   6.5723   6.5723   6.5799   6.5799
     6.5863   6.5992   6.7675   6.7675   6.7736   6.7853   6.7854   6.7989
     6.8209   6.8209   6.8374   6.8374   6.8440   6.8600   6.8600   6.8802
     6.8802   6.9378   6.9859   6.9859   6.9918   6.9928   6.9928   7.0079
     7.0079   7.0169   7.0169   7.0460   7.0741   7.0741   7.0742   7.0753
     7.1135   7.1135   7.1365   7.1402   7.1402   7.1418   7.2052   7.2052
     7.2173   7.2262   7.2278   7.2278   7.2299   7.2333   7.2333   7.2343
     7.2372   7.2373   7.2537   7.2833   7.2833   7.2922   7.3063   7.3064
     7.3150   7.3156   7.3156   7.3170   7.3229   7.3229   7.3311   7.3312
     7.3356   7.3385   7.3385   7.3413   7.3462   7.3462   7.3484   7.3540
     7.3540   7.3711   7.3950   7.4162   7.4163   7.4232   7.4232   7.4430
     7.4453   7.4585   7.4585   7.4642   7.4688   7.4815   7.4815   7.4858
     7.4874   7.4874   7.5034   7.5034   7.5232   7.5232   7.5282   7.5380
     7.5701   7.5701   7.5888   7.5990   7.5990   7.6124   7.6124   7.6138
     7.6202   7.6202   7.6378   7.6691   7.6691   7.6727   7.6727   7.6734
     7.7158   7.7249   7.7249   7.7258   7.7337   7.7337   7.7547   7.7785
     7.7785   7.8418   7.8902   7.8903   8.0518   8.0803   8.0803   8.0893
     9.1924   9.1925   9.1964   9.5676   9.5690   9.5690   9.6814   9.6814
     9.6987   9.7763   9.8022   9.8022   9.8059   9.8125   9.8125   9.8684
     9.8858   9.9007   9.9007   9.9274   9.9399   9.9399  10.0504  10.0504
    10.0566  10.0707  10.0817  10.0818  10.2138  10.2362  10.2373  10.2373
    10.2616  10.2642  10.2642  10.2801  10.2801  10.2841  10.3110  10.3111
    10.3217  10.3240  10.3240  10.3281  10.3311  10.3311  10.3340  10.3623
    10.4196  10.4202  10.4202  10.4355  10.4527  10.4527  10.6526  10.6526
    10.6545  10.6588  10.6588  10.6999  10.7862  10.7862  10.7882  10.7899
    10.7996  10.7996  10.8095  10.8157  10.8274  10.8274  10.8364  10.8364
    10.9055  10.9306  10.9306  10.9347  10.9419  10.9419  10.9903  11.0343
    11.0381  11.0381  11.0472  11.0472  11.0528

     occupation numbers 
     1.0000   1.0000   1.0000   1.0000   1.0000   1.0000   1.0000   1.0000
     1.0000   1.0000   1.0000   1.0000   1.0000   1.0000   1.0000   1.0000
     1.0000   1.0000   1.0000   1.0000   1.0000   1.0000   1.0000   1.0000
     1.0000   1.0000   1.0000   1.0000   1.0000   1.0000   1.0000   1.0000
     1.0000   1.0000   1.0000   1.0000   1.0000   1.0000   1.0000   1.0000
     1.0000   1.0000   1.0000   1.0000   1.0000   1.0000   1.0000   1.0000
     1.0000   1.0000   1.0000   1.0000   1.0000   1.0000   1.0000   1.0000
     1.0000   1.0000   1.0000   1.0000   1.0000   1.0000   1.0000   1.0000
     1.0000   1.0000   1.0000   1.0000   1.0000   1.0000   1.0000   1.0000
     1.0000   1.0000   1.0000   1.0000   1.0000   1.0000   1.0000   1.0000
     1.0000   1.0000   1.0000   1.0000   1.0000   1.0000   1.0000   1.0000
     1.0000   1.0000   1.0000   1.0000   1.0000   1.0000   1.0000   1.0000
     1.0000   1.0000   1.0000   1.0000   1.0000   1.0000   1.0000   1.0000
     1.0000   1.0000   1.0000   1.0000   1.0000   1.0000   1.0000   1.0000
     1.0000   1.0000   1.0000   1.0000   1.0000   1.0000   1.0000   1.0000
     1.0000   1.0000   1.0000   1.0000   1.0000   1.0000   1.0000   1.0000
     1.0000   1.0000   1.0000   1.0000   1.0000   1.0000   1.0000   1.0000
     1.0000   1.0000   1.0000   1.0000   1.0000   1.0000   1.0000   1.0000
     1.0000   1.0000   1.0000   1.0000   1.0000   1.0000   1.0000   1.0000
     1.0000   1.0000   1.0000   1.0000   1.0000   1.0000   1.0000   1.0000
     1.0000   1.0000   1.0000   1.0000   1.0000   1.0000   1.0000   1.0000
     1.0000   1.0000   1.0000   1.0000   1.0000   1.0000   1.0000   1.0000
     1.0000   1.0000   1.0000   1.0000   1.0000   1.0000   1.0000   1.0000
     1.0000   1.0000   1.0000   1.0000   1.0000   1.0000   1.0000   1.0000
     1.0000   1.0000   1.0000   1.0000   1.0000   1.0000   1.0000   1.0000
     1.0000   1.0000   1.0000   1.0000   1.0000   1.0000   1.0000   1.0000
     1.0000   1.0000   1.0000   1.0000   1.0000   1.0000   1.0000   1.0000
     1.0000   1.0000   1.0000   1.0000   1.0000   1.0000   1.0000   1.0000
     1.0000   1.0000   1.0000   1.0000   1.0000   1.0000   1.0000   1.0000
     1.0000   1.0000   1.0000   1.0000   1.0000   1.0000   1.0000   1.0000
     1.0000   1.0000   1.0000   1.0000   1.0000   1.0000   1.0000   1.0000
     1.0000   1.0000   1.0000   1.0000   1.0000   1.0000   1.0000   1.0000
     1.0000   1.0000   1.0000   1.0000   1.0000   1.0000   1.0000   1.0000
     1.0000   1.0000   1.0000   1.0000   1.0000   1.0000   1.0000   1.0000
     1.0000   1.0000   1.0000   1.0000   1.0000   1.0000   1.0000   1.0000
     1.0000   1.0000   1.0000   1.0000   1.0000   1.0000   1.0000   1.0000
     1.0000   1.0000   1.0000   1.0000   1.0000   1.0000   1.0000   1.0000
     1.0000   1.0000   1.0000   1.0000   1.0000   1.0000   1.0000   1.0000
     1.0000   1.0000   1.0000   1.0000   1.0000   1.0000   1.0000   1.0000
     1.0000   1.0000   1.0000   1.0000   1.0000   1.0000   1.0000   1.0000
     1.0000   1.0000   1.0000   1.0000   1.0000   1.0000   1.0000   1.0000
     1.0000   1.0000   1.0000   1.0000   1.0000   1.0000   1.0000   1.0000
     1.0000   1.0000   1.0000   1.0000   1.0000   1.0000   1.0000   1.0000
     1.0000   1.0000   1.0000   1.0000   1.0000   1.0000   1.0000   1.0000
     1.0000   1.0000   1.0000   1.0000   1.0000   1.0000   1.0000   1.0000
     1.0000   1.0000   1.0000   1.0000   1.0000   1.0000   1.0000   1.0000
     1.0000   1.0000   1.0000   1.0000   1.0000   1.0000   1.0000   1.0000
     1.0000   1.0000   1.0000   1.0000   1.0000   1.0000   1.0000   1.0000
     1.0000   1.0000   1.0000   1.0000   1.0000   1.0000   1.0000   1.0000
     1.0000   1.0000   1.0000   1.0000   1.0000   1.0000   1.0000   1.0000
     1.0000   1.0000   1.0000   1.0000   1.0000   1.0000   1.0000   1.0000
     1.0000   1.0000   1.0000   1.0000   1.0000   1.0000   1.0000   1.0000
     1.0000   1.0000   1.0000   1.0000   1.0000   1.0000   1.0000   1.0000
     1.0000   1.0000   1.0000   1.0000   1.0000   1.0000   1.0000   1.0000
     1.0000   1.0000   1.0000   1.0000   1.0000   1.0000   1.0000   1.0000
     1.0000   1.0000   1.0000   1.0000   1.0000   1.0000   1.0000   1.0000
     1.0000   1.0000   1.0000   1.0000   1.0000   1.0000   1.0000   1.0000
     1.0000   1.0000   1.0000   1.0000   1.0000   1.0000   1.0000   1.0000
     1.0000   1.0000   1.0000   1.0000   1.0000   1.0000   1.0000   1.0000
     1.0000   1.0000   1.0000   1.0000   1.0000   1.0000   1.0000   1.0000
     1.0000   1.0000   1.0000   1.0000   1.0000   1.0000   1.0000   1.0000
     1.0000   1.0000   1.0000   1.0000   1.0000   1.0000   1.0000   1.0000
     1.0000   1.0000   1.0000   1.0000   1.0000   1.0000   1.0000   1.0000
     1.0000   1.0000   1.0000   1.0000   1.0000   1.0000   1.0000   1.0000
     1.0000   1.0000   1.0000   1.0000   1.0000   1.0000   1.0000   1.0000
     1.0000   1.0000   1.0000   1.0000   1.0000   1.0000   1.0000   1.0000
     1.0000   1.0000   1.0000   1.0000   1.0000   1.0000   1.0000   1.0000
     1.0000   1.0000   1.0000   1.0000   1.0000   1.0000   1.0000   1.0000
     1.0000   1.0000   1.0000   1.0000   1.0000   1.0000   1.0000   1.0000
     1.0000   1.0000   1.0000   1.0000   1.0000   1.0000   1.0000   1.0000
     1.0000   1.0000   1.0000   1.0000   1.0000   1.0000   1.0000   1.0000
     1.0000   1.0000   1.0000   1.0000   1.0000   1.0000   1.0000   1.0000
     1.0000   1.0000   1.0000   1.0000   1.0000   1.0000   1.0000   1.0000
     1.0000   1.0000   1.0000   1.0000   1.0000   1.0000   1.0000   1.0000
     1.0000   1.0000   1.0000   1.0000   1.0000   1.0000   1.0000   1.0000
     1.0000   1.0000   1.0000   1.0000   1.0000   1.0000   1.0000   1.0000
     1.0000   1.0000   1.0000   1.0000   1.0000   1.0000   1.0000   1.0000
     1.0000   1.0000   1.0000   1.0000   1.0000   1.0000   1.0000   1.0000
     1.0000   1.0000   1.0000   1.0000   1.0000   1.0000   1.0000   1.0000
     1.0000   1.0000   1.0000   1.0000   1.0000   1.0000   1.0000   1.0000
     1.0000   1.0000   1.0000   1.0000   1.0000   1.0000   1.0000   1.0000
     1.0000   1.0000   1.0000   1.0000   1.0000   1.0000   1.0000   1.0000
     1.0000   1.0000   1.0000   1.0000   1.0000   1.0000   1.0000   1.0000
     1.0000   1.0000   1.0000   1.0000   1.0000   1.0000   1.0000   1.0000
     1.0000   1.0000   1.0000   1.0000   1.0000   1.0000   1.0000   1.0000
     1.0000   1.0000   1.0000   1.0000   1.0000   1.0000   1.0000   1.0000
     1.0000   1.0000   1.0000   1.0000   1.0000   1.0000   1.0000   1.0000
     1.0000   1.0000   1.0000   1.0000   1.0000   1.0000   1.0000   1.0000
     1.0000   1.0000   1.0000   1.0000   1.0000   1.0000   1.0000   1.0000
     1.0000   1.0000   1.0000   1.0000   1.0000   1.0000   1.0000   1.0000
     1.0000   1.0000   1.0000   1.0000   1.0000   1.0000   1.0000   1.0000
     1.0000   1.0000   1.0000   1.0000   1.0000   1.0000   1.0000   1.0000
     1.0000   1.0000   1.0000   1.0000   1.0000   1.0000   1.0000   1.0000
     1.0000   1.0000   1.0000   1.0000   1.0000   1.0000   1.0000   1.0000
     1.0000   1.0000   1.0000   1.0000   1.0000   1.0000   1.0000   1.0000
     1.0000   1.0000   1.0000   1.0000   1.0000   1.0000   1.0000   1.0000
     1.0000   1.0000   1.0000   1.0000   1.0000   1.0000   1.0000   1.0000
     1.0000   1.0000   1.0000   1.0000   1.0000   1.0000   1.0000   1.0000
     1.0000   1.0000   1.0000   1.0000   1.0000   1.0000   1.0000   1.0000
     1.0000   1.0000   1.0000   1.0000   1.0000   1.0000   1.0000   1.0000
     1.0000   1.0000   1.0000   1.0000   1.0000   1.0000   1.0000   1.0000
     1.0000   1.0000   1.0000   1.0000   1.0000   1.0000   1.0000   1.0000
     1.0000   1.0000   1.0000   1.0000   1.0000   1.0000   1.0000   1.0000
     1.0000   1.0000   1.0000   1.0000   1.0000   1.0000   1.0000   1.0000
     1.0000   1.0000   1.0000   1.0000   1.0000   1.0000   1.0000   1.0000
     1.0000   1.0000   1.0000   1.0000   1.0000   1.0000   1.0000   1.0000
     1.0000   1.0000   1.0000   1.0000   1.0000   1.0000   1.0000   1.0000
     1.0000   1.0000   1.0000   1.0000   1.0000   1.0000   1.0000   1.0000
     1.0000   1.0000   1.0000   1.0000   1.0000   1.0000   1.0000   1.0000
     1.0000   1.0000   1.0000   1.0000   1.0000   1.0000   1.0000   1.0000
     1.0000   1.0000   1.0000   1.0000   1.0000   1.0000   1.0000   1.0000
     1.0000   1.0000   1.0000   1.0000   1.0000   1.0000   1.0000   1.0000
     1.0000   1.0000   1.0000   1.0000   1.0000   1.0000   1.0000   1.0000
     1.0000   1.0000   1.0000   1.0000   1.0000   1.0000   1.0000   1.0000
     1.0000   1.0000   1.0000   1.0000   1.0000   1.0000   1.0000   1.0000
     1.0000   1.0000   1.0000   1.0000   1.0000   1.0000   1.0000   1.0000
     1.0000   1.0000   1.0000   1.0000   1.0000   1.0000   1.0000   1.0000
     1.0000   1.0000   1.0000   1.0000   1.0000   1.0000   1.0000   1.0000
     1.0000   1.0000   1.0000   1.0000   1.0000   1.0000   1.0000   1.0000
     1.0000   1.0000   1.0000   1.0000   1.0000   1.0000   1.0000   1.0000
     1.0000   1.0000   1.0000   1.0000   1.0000   1.0000   1.0000   1.0000
     1.0000   1.0000   1.0000   1.0000   1.0000   1.0000   1.0000   1.0000
     1.0000   1.0000   1.0000   1.0000   1.0000   1.0000   1.0000   1.0000
     1.0000   1.0000   1.0000   1.0000   1.0000   1.0000   1.0000   1.0000
     1.0000   1.0000   1.0000   1.0000   1.0000   1.0000   1.0000   1.0000
     1.0000   1.0000   1.0000   1.0000   1.0000   1.0000   1.0000   1.0000
     1.0000   1.0000   1.0000   1.0000   1.0000   1.0000   1.0000   1.0000
     1.0000   1.0000   1.0000   1.0000   1.0000   1.0000   1.0000   1.0000
     1.0000   1.0000   1.0000   1.0000   1.0000   1.0000   1.0000   1.0000
     1.0000   1.0000   1.0000   1.0000   1.0000   1.0000   1.0000   1.0000
     1.0000   1.0000   1.0000   1.0000   1.0000   1.0000   1.0000   1.0000
     1.0000   1.0000   1.0000   1.0000   1.0000   1.0000   1.0000   1.0000
     1.0000   1.0000   1.0000   1.0000   1.0000   1.0000   1.0000   1.0000
     1.0000   1.0000   1.0000   1.0000   1.0000   1.0000   1.0000   1.0000
     1.0000   1.0000   1.0000   1.0000   1.0000   1.0000   1.0000   1.0000
     1.0000   1.0000   1.0000   1.0000   1.0000   1.0000   1.0000   1.0000
     1.0000   1.0000   1.0000   1.0000   1.0000   1.0000   1.0000   1.0000
     1.0000   1.0000   1.0000   1.0000   1.0000   1.0000   1.0000   1.0000
     1.0000   1.0000   1.0000   1.0000   1.0000   1.0000   1.0000   1.0000
     1.0000   1.0000   1.0000   1.0000   1.0000   1.0000   1.0000   1.0000
     1.0000   1.0000   1.0000   1.0000   1.0000   1.0000   1.0000   1.0000
     1.0000   1.0000   1.0000   1.0000   1.0000   1.0000   1.0000   1.0000
     1.0000   1.0000   1.0000   1.0000   1.0000   1.0000   1.0000   1.0000
     1.0000   1.0000   1.0000   1.0000   1.0000   1.0000   0.2503   0.2497
     0.0000   0.0000   0.0000   0.0000   0.0000   0.0000   0.0000   0.0000
     0.0000   0.0000   0.0000   0.0000   0.0000   0.0000   0.0000   0.0000
     0.0000   0.0000   0.0000   0.0000   0.0000   0.0000   0.0000   0.0000
     0.0000   0.0000   0.0000   0.0000   0.0000   0.0000   0.0000   0.0000
     0.0000   0.0000   0.0000   0.0000   0.0000   0.0000   0.0000   0.0000
     0.0000   0.0000   0.0000   0.0000   0.0000   0.0000   0.0000   0.0000
     0.0000   0.0000   0.0000   0.0000   0.0000   0.0000   0.0000   0.0000
     0.0000   0.0000   0.0000   0.0000   0.0000   0.0000   0.0000   0.0000
     0.0000   0.0000   0.0000   0.0000   0.0000   0.0000   0.0000   0.0000
     0.0000   0.0000   0.0000   0.0000   0.0000   0.0000   0.0000   0.0000
     0.0000   0.0000   0.0000   0.0000   0.0000   0.0000   0.0000   0.0000
     0.0000   0.0000   0.0000   0.0000   0.0000   0.0000   0.0000   0.0000
     0.0000   0.0000   0.0000   0.0000   0.0000   0.0000   0.0000   0.0000
     0.0000   0.0000   0.0000   0.0000   0.0000   0.0000   0.0000   0.0000
     0.0000   0.0000   0.0000   0.0000   0.0000   0.0000   0.0000   0.0000
     0.0000   0.0000   0.0000   0.0000   0.0000   0.0000   0.0000   0.0000
     0.0000   0.0000   0.0000   0.0000   0.0000   0.0000   0.0000   0.0000
     0.0000   0.0000   0.0000   0.0000   0.0000   0.0000   0.0000   0.0000
     0.0000   0.0000   0.0000   0.0000   0.0000   0.0000   0.0000   0.0000
     0.0000   0.0000   0.0000   0.0000   0.0000   0.0000   0.0000   0.0000
     0.0000   0.0000   0.0000   0.0000   0.0000   0.0000   0.0000   0.0000
     0.0000   0.0000   0.0000   0.0000   0.0000   0.0000   0.0000   0.0000
     0.0000   0.0000   0.0000   0.0000   0.0000   0.0000   0.0000   0.0000
     0.0000   0.0000   0.0000   0.0000   0.0000   0.0000   0.0000   0.0000
     0.0000   0.0000   0.0000   0.0000   0.0000   0.0000   0.0000   0.0000
     0.0000   0.0000   0.0000   0.0000   0.0000   0.0000   0.0000   0.0000
     0.0000   0.0000   0.0000   0.0000   0.0000   0.0000   0.0000   0.0000
     0.0000   0.0000   0.0000   0.0000   0.0000   0.0000   0.0000   0.0000
     0.0000   0.0000   0.0000   0.0000   0.0000

     the Fermi energy is     5.0424 ev

!    total energy              =  -97466.87903819 Ry
     total all-electron energy =  -3400999.967764 Ry
     estimated scf accuracy    <          9.8E-09 Ry
     smearing contrib. (-TS)   =      -0.00898817 Ry
     internal energy E=F+TS    =  -97466.87005002 Ry

     The total energy is F=E-TS. E is the sum of the following terms:
     one-electron contribution =  -17792.06724878 Ry
     hartree contribution      =    9952.20842640 Ry
     xc contribution           =   -6784.58515254 Ry
     ewald contribution        =  -14792.68131319 Ry
     one-center paw contrib.   =  -68049.74476191 Ry
      -> PAW hartree energy AE =      95.92246084 Ry
      -> PAW hartree energy PS =     -96.15936821 Ry
      -> PAW xc energy AE      =    -798.43130671 Ry
      -> PAW xc energy PS      =      33.31125479 Ry
      -> total E_H with PAW    =    9951.97151903 Ry
      -> total E_XC with PAW   =   -7549.70520446 Ry

     convergence has been achieved in   1 iterations


     -----------------------------------------------
     Non-local corr. energy    =      68.72379501 Ry
     -----------------------------------------------


     Forces acting on atoms (cartesian axes, Ry/au):

     atom    1 type  1   force =    -0.00000155    0.00026574    0.00012147
     atom    2 type  1   force =    -0.00000252    0.00055022   -0.00042264
     atom    3 type  1   force =     0.00000046   -0.00003336   -0.00002778
     atom    4 type  1   force =    -0.00003166   -0.00000297    0.00042635
     atom    5 type  1   force =    -0.00016011   -0.00039327   -0.00022002
     atom    6 type  1   force =     0.00019711    0.00013423   -0.00026663
     atom    7 type  1   force =    -0.00001693   -0.00002746    0.00042498
     atom    8 type  1   force =    -0.00041889    0.00005664   -0.00022191
     atom    9 type  1   force =     0.00021575    0.00010264   -0.00026778
     atom   10 type  1   force =     0.00022806   -0.00013018    0.00012189
     atom   11 type  1   force =     0.00047505   -0.00027466   -0.00042117
     atom   12 type  1   force =    -0.00002730    0.00001807   -0.00002858
     atom   13 type  1   force =     0.00007532    0.00004347    0.00038304
     atom   14 type  1   force =    -0.00025532   -0.00014777    0.00033542
     atom   15 type  1   force =    -0.00015764   -0.00009305   -0.00022831
     atom   16 type  1   force =     0.00003016   -0.00000384    0.00042762
     atom   17 type  1   force =     0.00016113   -0.00039367   -0.00021747
     atom   18 type  1   force =    -0.00019541    0.00013494   -0.00026502
     atom   19 type  1   force =    -0.00000095   -0.00000072    0.00043706
     atom   20 type  1   force =     0.00000135    0.00000071   -0.00003833
     atom   21 type  1   force =     0.00000021    0.00000037   -0.00042232
     atom   22 type  1   force =     0.00001387    0.00003100    0.00042685
     atom   23 type  1   force =    -0.00025680    0.00033564   -0.00021748
     atom   24 type  1   force =     0.00002091   -0.00023638   -0.00026469
     atom   25 type  1   force =     0.00000083   -0.00017076    0.00074091
     atom   26 type  1   force =     0.00000347   -0.00013294    0.00034215
     atom   27 type  1   force =     0.00000091   -0.00020193   -0.00034265
     atom   28 type  1   force =    -0.00014812    0.00008397    0.00074058
     atom   29 type  1   force =    -0.00011094    0.00006426    0.00034267
     atom   30 type  1   force =    -0.00017304    0.00009907   -0.00034377
     atom   31 type  1   force =     0.00001728   -0.00002606    0.00042840
     atom   32 type  1   force =     0.00042106    0.00005966   -0.00021710
     atom   33 type  1   force =    -0.00021536    0.00010284   -0.00026497
     atom   34 type  1   force =    -0.00001342    0.00003156    0.00042886
     atom   35 type  1   force =     0.00026175    0.00033501   -0.00021448
     atom   36 type  1   force =    -0.00001807   -0.00023680   -0.00026349
     atom   37 type  1   force =    -0.00007764    0.00004440    0.00038225
     atom   38 type  1   force =     0.00025539   -0.00014883    0.00033079
     atom   39 type  1   force =     0.00015878   -0.00009205   -0.00023440
     atom   40 type  1   force =     0.00014852    0.00008391    0.00073802
     atom   41 type  1   force =     0.00011385    0.00006232    0.00033656
     atom   42 type  1   force =     0.00017375    0.00009913   -0.00034541
     atom   43 type  1   force =    -0.00000032   -0.00008735    0.00038243
     atom   44 type  1   force =    -0.00000247    0.00029541    0.00033060
     atom   45 type  1   force =     0.00000145    0.00018267   -0.00023571
     atom   46 type  1   force =    -0.00022955   -0.00012907    0.00012328
     atom   47 type  1   force =    -0.00047870   -0.00027473   -0.00042088
     atom   48 type  1   force =     0.00002760    0.00001748   -0.00003005
     atom   49 type  2   force =     0.00002047    0.00000610    0.00020183
     atom   50 type  2   force =     0.00000439    0.00000159   -0.00002771
     atom   51 type  2   force =    -0.00014743    0.00003489   -0.00033555
     atom   52 type  2   force =    -0.00002520   -0.00001346    0.00012098
     atom   53 type  2   force =     0.00002699   -0.00010705   -0.00002215
     atom   54 type  2   force =     0.00005135    0.00003320   -0.00019821
     atom   55 type  2   force =    -0.00010309   -0.00005409    0.00014303
     atom   56 type  2   force =    -0.00005525   -0.00003015   -0.00018353
     atom   57 type  2   force =    -0.00003646   -0.00013638   -0.00032207
     atom   58 type  2   force =    -0.00002233   -0.00001204    0.00011836
     atom   59 type  2   force =    -0.00007649    0.00007724   -0.00001944
     atom   60 type  2   force =     0.00009056    0.00011675   -0.00031544
     atom   61 type  2   force =    -0.00000901    0.00003646    0.00011325
     atom   62 type  2   force =    -0.00010737    0.00002914   -0.00002026
     atom   63 type  2   force =     0.00016056    0.00001542   -0.00032471
     atom   64 type  2   force =     0.00003249   -0.00002991    0.00011609
     atom   65 type  2   force =    -0.00002747   -0.00010963   -0.00002132
     atom   66 type  2   force =    -0.00000874   -0.00000551   -0.00045399
     atom   67 type  2   force =    -0.00000898   -0.00011127    0.00004833
     atom   68 type  2   force =    -0.00000209   -0.00005536   -0.00017347
     atom   69 type  2   force =    -0.00001618   -0.00000020   -0.00045082
     atom   70 type  2   force =    -0.00010634    0.00005349    0.00004742
     atom   71 type  2   force =    -0.00005103    0.00002537   -0.00017197
     atom   72 type  2   force =    -0.00001393   -0.00005338   -0.00020220
     atom   73 type  2   force =    -0.00001542    0.00012254    0.00014415
     atom   74 type  2   force =    -0.00000314    0.00006448   -0.00018447
     atom   75 type  2   force =     0.00006496    0.00003380   -0.00031795
     atom   76 type  2   force =     0.00006692    0.00003714    0.00007861
     atom   77 type  2   force =    -0.00003348   -0.00002109   -0.00031284
     atom   78 type  2   force =    -0.00005132    0.00001718   -0.00020543
     atom   79 type  2   force =     0.00010216   -0.00007154    0.00014535
     atom   80 type  2   force =     0.00005528   -0.00003508   -0.00018527
     atom   81 type  2   force =    -0.00001684   -0.00000873   -0.00045785
     atom   82 type  2   force =     0.00007807    0.00004768    0.00005693
     atom   83 type  2   force =     0.00004395    0.00002494   -0.00017535
     atom   84 type  2   force =    -0.00011950    0.00014747   -0.00035778
     atom   85 type  2   force =     0.00000384    0.00005200    0.00013247
     atom   86 type  2   force =     0.00010704    0.00003704   -0.00002350
     atom   87 type  2   force =    -0.00007043    0.00005038   -0.00031804
     atom   88 type  2   force =    -0.00007360    0.00005251    0.00008322
     atom   89 type  2   force =     0.00003304   -0.00001485   -0.00031468
     atom   90 type  2   force =     0.00001150   -0.00008347   -0.00031423
     atom   91 type  2   force =     0.00001017   -0.00008570    0.00008411
     atom   92 type  2   force =     0.00000512    0.00003976   -0.00031212
     atom   93 type  2   force =     0.00007364   -0.00017781   -0.00035355
     atom   94 type  2   force =     0.00005184   -0.00002194    0.00013200
     atom   95 type  2   force =     0.00008656    0.00007566   -0.00002272
     atom   96 type  2   force =     0.00007852   -0.00002959    0.00010176
     atom   97 type  2   force =    -0.00002275    0.00005794    0.00029015
     atom   98 type  2   force =    -0.00007143    0.00004858    0.00026033
     atom   99 type  2   force =    -0.00005291   -0.00003846   -0.00012995
     atom  100 type  2   force =    -0.00005457    0.00003091   -0.00004390
     atom  101 type  2   force =    -0.00011097    0.00000579    0.00035904
     atom  102 type  2   force =    -0.00005822   -0.00002207   -0.00012815
     atom  103 type  2   force =    -0.00000125   -0.00005293   -0.00004618
     atom  104 type  2   force =    -0.00005165   -0.00009461    0.00035810
     atom  105 type  2   force =     0.00002082    0.00007438    0.00010195
     atom  106 type  2   force =     0.00005236   -0.00005479    0.00028455
     atom  107 type  2   force =     0.00000822   -0.00008839    0.00025869
     atom  108 type  2   force =    -0.00005471   -0.00003973    0.00010781
     atom  109 type  2   force =     0.00005904    0.00001851    0.00026454
     atom  110 type  2   force =     0.00007977    0.00004382    0.00025210
     atom  111 type  2   force =     0.00000160   -0.00010986   -0.00004674
     atom  112 type  2   force =     0.00000196    0.00000016   -0.00008430
     atom  113 type  2   force =    -0.00000080    0.00004452    0.00032208
     atom  114 type  2   force =     0.00002232    0.00001818   -0.00006344
     atom  115 type  2   force =     0.00006316    0.00004511   -0.00024992
     atom  116 type  2   force =     0.00000355    0.00000582    0.00017900
     atom  117 type  2   force =    -0.00009563    0.00005486   -0.00004128
     atom  118 type  2   force =    -0.00000834    0.00001134   -0.00009204
     atom  119 type  2   force =     0.00003664   -0.00002257    0.00031778
     atom  120 type  2   force =    -0.00001491    0.00006617   -0.00012645
     atom  121 type  2   force =     0.00002454    0.00003868   -0.00004780
     atom  122 type  2   force =     0.00004982    0.00009624    0.00035603
     atom  123 type  2   force =     0.00005323   -0.00004754   -0.00012678
     atom  124 type  2   force =     0.00005462    0.00000227   -0.00004597
     atom  125 type  2   force =     0.00011035   -0.00000444    0.00035879
     atom  126 type  2   force =    -0.00003162    0.00000837   -0.00006807
     atom  127 type  2   force =    -0.00008256    0.00002659   -0.00024869
     atom  128 type  2   force =    -0.00001207    0.00000191    0.00018402
     atom  129 type  2   force =    -0.00001171   -0.00003083   -0.00006705
     atom  130 type  2   force =    -0.00002517   -0.00008552   -0.00024886
     atom  131 type  2   force =    -0.00000705   -0.00001003    0.00018034
     atom  132 type  2   force =     0.00000423    0.00007449   -0.00013663
     atom  133 type  2   force =    -0.00006119    0.00005410   -0.00004223
     atom  134 type  2   force =    -0.00005841    0.00010024    0.00036212
     atom  135 type  2   force =     0.00000026   -0.00000020    0.00008974
     atom  136 type  2   force =    -0.00000170    0.00000027   -0.00005436
     atom  137 type  2   force =     0.00000121    0.00000236    0.00051391
     atom  138 type  2   force =     0.00006933   -0.00003178   -0.00013357
     atom  139 type  2   force =     0.00002223   -0.00007700   -0.00004223
     atom  140 type  2   force =     0.00006019   -0.00009807    0.00036483
     atom  141 type  2   force =     0.00009085    0.00005201   -0.00006110
     atom  142 type  2   force =    -0.00002379   -0.00000863   -0.00006196
     atom  143 type  2   force =    -0.00003794   -0.00002185    0.00032753
     atom  144 type  1   force =    -0.00000857   -0.00000579   -0.00073420
     The non-local contrib.  to forces
     atom    1 type  1   force =     0.00003286    0.01225746   -0.01366264
     atom    2 type  1   force =     0.00000988   -0.03430178    0.01819076
     atom    3 type  1   force =     0.00000452    0.00005309   -0.00129597
     atom    4 type  1   force =     0.00092328    0.00417666    0.00161558
     atom    5 type  1   force =     0.01845196   -0.00062697    0.02139880
     atom    6 type  1   force =     0.00007299    0.00083751   -0.00190270
     atom    7 type  1   force =     0.00411171   -0.00135816    0.00160648
     atom    8 type  1   force =     0.00872840    0.01621824    0.02140173
     atom    9 type  1   force =     0.00079240   -0.00041386   -0.00189973
     atom   10 type  1   force =     0.01067259   -0.00617289   -0.01366691
     atom   11 type  1   force =    -0.02965061    0.01709266    0.01821439
     atom   12 type  1   force =     0.00007569   -0.00007469   -0.00129375
     atom   13 type  1   force =     0.02040003    0.01173809   -0.00819521
     atom   14 type  1   force =     0.00794573    0.00455561   -0.02272602
     atom   15 type  1   force =     0.00068641    0.00036810   -0.00117909
     atom   16 type  1   force =    -0.00088430    0.00418323    0.00161628
     atom   17 type  1   force =    -0.01842015   -0.00062486    0.02138460
     atom   18 type  1   force =    -0.00005500    0.00084430   -0.00189917
     atom   19 type  1   force =     0.00001742   -0.00003347   -0.00026242
     atom   20 type  1   force =     0.00001196   -0.00003105   -0.00082801
     atom   21 type  1   force =     0.00001559   -0.00002780   -0.00551553
     atom   22 type  1   force =     0.00321114   -0.00293002    0.00160544
     atom   23 type  1   force =    -0.00969293   -0.01569074    0.02136836
     atom   24 type  1   force =     0.00073366   -0.00051857   -0.00190016
     atom   25 type  1   force =     0.00001298   -0.00391729    0.00533770
     atom   26 type  1   force =     0.00000893   -0.01321312    0.00176730
     atom   27 type  1   force =     0.00001118    0.00011296   -0.00219796
     atom   28 type  1   force =    -0.00333811    0.00190363    0.00533506
     atom   29 type  1   force =    -0.01142504    0.00657936    0.00175413
     atom   30 type  1   force =     0.00012566   -0.00009303   -0.00220129
     atom   31 type  1   force =    -0.00407979   -0.00136280    0.00161132
     atom   32 type  1   force =    -0.00869934    0.01626467    0.02142973
     atom   33 type  1   force =    -0.00077388   -0.00040907   -0.00190835
     atom   34 type  1   force =    -0.00318116   -0.00293060    0.00160800
     atom   35 type  1   force =     0.00975781   -0.01571742    0.02140601
     atom   36 type  1   force =    -0.00071232   -0.00051739   -0.00191298
     atom   37 type  1   force =    -0.02037741    0.01174684   -0.00821531
     atom   38 type  1   force =    -0.00790547    0.00453321   -0.02270294
     atom   39 type  1   force =    -0.00066747    0.00036251   -0.00116719
     atom   40 type  1   force =     0.00337739    0.00190681    0.00534295
     atom   41 type  1   force =     0.01142082    0.00656447    0.00177458
     atom   42 type  1   force =    -0.00010997   -0.00010157   -0.00219911
     atom   43 type  1   force =     0.00002095   -0.02356504   -0.00818524
     atom   44 type  1   force =     0.00000076   -0.00916939   -0.02269892
     atom   45 type  1   force =     0.00000639   -0.00081376   -0.00116822
     atom   46 type  1   force =    -0.01063998   -0.00619305   -0.01367915
     atom   47 type  1   force =     0.02980481    0.01716894    0.01805126
     atom   48 type  1   force =    -0.00006852   -0.00007339   -0.00130387
     atom   49 type  2   force =     0.00001878    0.00001811    0.24822624
     atom   50 type  2   force =    -0.00000043    0.00000930    0.24646700
     atom   51 type  2   force =    -0.01853288   -0.01285132    0.22186257
     atom   52 type  2   force =    -0.00053016   -0.00133248    0.24879124
     atom   53 type  2   force =     0.00570087   -0.00138542    0.24859696
     atom   54 type  2   force =    -0.01251580   -0.00718820    0.23113490
     atom   55 type  2   force =    -0.00005612   -0.00001098    0.25023988
     atom   56 type  2   force =     0.00034590    0.00021763    0.24911152
     atom   57 type  2   force =    -0.02041380   -0.00960020    0.22186853
     atom   58 type  2   force =    -0.00143445    0.00023533    0.24878998
     atom   59 type  2   force =     0.00163020    0.00566199    0.24860528
     atom   60 type  2   force =    -0.00187443    0.02250293    0.22188982
     atom   61 type  2   force =    -0.00091424    0.00116068    0.24878368
     atom   62 type  2   force =    -0.00408520   -0.00423691    0.24860716
     atom   63 type  2   force =     0.01855409   -0.01285796    0.22188141
     atom   64 type  2   force =     0.00054442   -0.00135539    0.24878809
     atom   65 type  2   force =    -0.00571820   -0.00139526    0.24860373
     atom   66 type  2   force =    -0.00000614   -0.00191098    0.24277203
     atom   67 type  2   force =    -0.00000988    0.00081924    0.25294457
     atom   68 type  2   force =    -0.00000588   -0.00009078    0.24941917
     atom   69 type  2   force =    -0.00168408    0.00097357    0.24277234
     atom   70 type  2   force =     0.00068470   -0.00038795    0.25294475
     atom   71 type  2   force =    -0.00009718    0.00006828    0.24942490
     atom   72 type  2   force =    -0.00003805    0.01445768    0.23113370
     atom   73 type  2   force =    -0.00001802    0.00007072    0.25024029
     atom   74 type  2   force =    -0.00000511   -0.00039445    0.24911389
     atom   75 type  2   force =    -0.00899107   -0.00517886    0.24295539
     atom   76 type  2   force =    -0.00040476   -0.00021771    0.25056208
     atom   77 type  2   force =    -0.00675880   -0.00388118    0.24924489
     atom   78 type  2   force =     0.01251145   -0.00723113    0.23112965
     atom   79 type  2   force =     0.00004818   -0.00002838    0.25024019
     atom   80 type  2   force =    -0.00035928    0.00021787    0.24911232
     atom   81 type  2   force =     0.00164861    0.00096243    0.24276984
     atom   82 type  2   force =    -0.00072210   -0.00039813    0.25295830
     atom   83 type  2   force =     0.00008180    0.00006669    0.24941973
     atom   84 type  2   force =     0.00185537    0.02251637    0.22184544
     atom   85 type  2   force =     0.00089851    0.00116035    0.24879619
     atom   86 type  2   force =     0.00406730   -0.00423484    0.24859922
     atom   87 type  2   force =     0.00895223   -0.00515875    0.24294546
     atom   88 type  2   force =     0.00037384   -0.00019771    0.25056295
     atom   89 type  2   force =     0.00674182   -0.00388033    0.24924068
     atom   90 type  2   force =    -0.00000275    0.01037809    0.24295086
     atom   91 type  2   force =     0.00000012    0.00045356    0.25056265
     atom   92 type  2   force =    -0.00001004    0.00782009    0.24924442
[...]
              0.136648367329835E+02
             -0.762998524030243E+02
              0.617839790835309E+03
             -0.355381098498395E+02
              0.132981589441406E+03
              0.445531617486419E+03
              0.976981483261802E+02
             -0.351512235888968E+03
             -0.512462428268990E+03
              0.527482086308464E+01
             -0.576367197387633E+03
              0.195635916959690E+03
             -0.116612426377067E+03
             -0.270899589444179E+03
              0.243414054984408E+03
              0.933055843967595E+02
              0.219537085896743E+03
              0.194563521416173E+02
              0.349797047993964E+03
             -0.571479813539478E+03
             -0.524236477216327E+02
             -0.498527928490094E+03
              0.898504013820193E+02
              0.269983685223543E+03
             -0.499949260916569E+02
             -0.187780737428628E+03
              0.401668472647126E+03
             -0.186061995962792E+03
              0.130882142656240E+03
             -0.116660877590967E+03
              0.286711519351864E+03
              0.346261057616502E+03
             -0.149381866476594E+03
              0.297713593182461E+03
              0.114307164675944E+03
             -0.307085479885440E+03
             -0.183734434410306E+03
              0.495337870397593E+03
              0.234833721139559E+03
             -0.226748814406083E+02
             -0.668061877177224E+02
              0.728040203696260E+03
              0.436657383528878E+03
              0.160005638963694E+03
             -0.466768774593979E+03
              0.730767174507136E+03
             -0.330511631676112E+03
             -0.409764908995926E+03
             -0.634736458328884E+03
              0.305907321152029E+03
             -0.580666677411128E+03
              0.251722512592359E+03
              0.413457330816323E+03
              0.306320719681158E+03
              0.650443174251137E+02
              0.182789443096407E+03
             -0.457630415718714E+03
             -0.162643739352355E+03
             -0.147779091402490E+03
              0.221155570362664E+03
              0.493648367498210E+03
              0.486605939986161E+03
              0.372555879987702E+03
             -0.920477257700959E+02
              0.132302149738239E+03
              0.185198977415525E+02
             -0.146276400939933E+03
              0.218207206477955E+03
              0.209054661243744E+03
             -0.298055389982385E+03
             -0.301760333038075E+03
             -0.138390603196912E+03
              0.320604861306159E+03
              0.163056236409148E+03
             -0.218200246804188E+03
             -0.380312568589103E+03
             -0.522470722307439E+03
              0.108703838731265E+02
              0.148742988481762E+03
             -0.202162449488904E+03
              0.742192272945837E+03
              0.705939020960022E+01
             -0.862280783848548E+03
              0.216243397917031E+03
              0.355875262271190E+03
             -0.129191658048761E+03
              0.136106783481620E+02
             -0.195024567739209E+03
              0.331114703777962E+03
              0.163279733719723E+03
             -0.435673449898143E+03
              0.517359675727076E+03
              0.353464497125299E+02
             -0.206675621076652E+03
             -0.254664582758275E+03
              0.103714502536486E+04
              0.463689973269232E+03
             -0.116309928181732E+03
              0.255688415100257E+03
             -0.505358382262441E+03
             -0.109687055686548E+03
             -0.449181820515881E+03
              0.173467265380260E+03
              0.322410838695964E+03
              0.354685308659452E+03
             -0.155466488861476E+03
              0.269338516857233E+02
              0.441871694307913E+03
              0.141316957389658E+03
              0.263513576457772E+03
              0.107214124185832E+03
             -0.593216350103853E+02
              0.108377786183723E+01
             -0.820981077329957E+02
              0.915273706977932E+02
              0.308231128023763E+02
             -0.401332782361425E+03
              0.615055139308943E+03
              0.236775031408967E+03
             -0.435759578994583E+03
             -0.320291736044167E+03
             -0.452066239898262E+03
             -0.195873168696316E+03
             -0.142089969435919E+03
             -0.357506649191641E+03
             -0.352999514174696E+03
              0.425037221072484E+03
              0.338254925123028E+03
             -0.468075888582175E+02
              0.507681831876477E+03
              0.730767537633219E+02
             -0.816064869526486E+03
              0.438181635705802E+03
              0.747870642008756E+02
              0.344127681320645E+03
              0.465094311517596E+02
              0.389307311920199E+02
              0.701730158517207E+02
              0.186002726949031E+03
             -0.340434799413074E+03
             -0.160635473843886E+03
             -0.322102595195465E+03
             -0.266353051012272E+03
              0.111091190648199E+03
             -0.295708260477820E+03
              0.142399965700948E+03
              0.195539482751346E+03
             -0.181266968414030E+03
             -0.115768836311827E+03
              0.768896153101605E+01
              0.507338512362019E+03
              0.766412161100402E+02
              0.487045821193901E+03
              0.174677755586253E+03
             -0.643717456238460E+03
             -0.213493012044271E+03
              0.219534151658190E+03
              0.506552663749572E+03
              0.836035726743983E+02
              0.208243802227654E+03
              0.466133698715256E+03
             -0.269917347665034E+03
             -0.414484839209663E+03
              0.574593025947846E+03
              0.334918954786826E+02
             -0.607270452266682E+03
              0.221965249775834E+03
              0.384364072592882E+03
             -0.983478255788968E+02
             -0.400311954064038E+03
              0.833399239103596E+02
              0.173577459399576E+02
             -0.194482372216298E+03
              0.744158560025699E+02
             -0.647303656150117E+02
              0.903464820889095E+03
              0.262993529590415E+03
             -0.382651352019838E+03
              0.112943611845750E+03
              0.550100907997308E+03
             -0.371914872334320E+03
             -0.969971164748829E+02
             -0.351787661657996E+03
              0.281930871545335E+03
              0.890652088133211E+02
              0.186405536151254E+03
              0.337436731648461E+02
              0.638959468319967E+03
             -0.363643146966608E+03
             -0.287028323212916E+03
             -0.277072401078051E+03
              0.243507608436115E+03
              0.634939639341151E+03
             -0.106116056226388E+03
              0.259768630075139E+03
             -0.368974929197350E+03
              0.708722563995364E+02
             -0.118053123400916E+03
              0.259391459518274E+02
             -0.143150827948073E+03
             -0.116628582161113E+03
             -0.114653390764385E+03
              0.943167727746977E+02
              0.184327089501896E+03
             -0.402522755282271E+03
              0.298024377959675E+03
             -0.479650312997416E+03
              0.361755372051870E+03
             -0.382431111741537E+03
              0.620094723594053E+03
              0.340660427778592E+03
              0.392141545995505E+03
              0.974076071033614E+02
              0.114416161779706E+03
             -0.856673014110942E+03
              0.138766734644611E+03
              0.313643251104677E+02
              0.815826990749138E+02
             -0.139818376033377E+03
              0.662257615279566E+03
             -0.153768352903813E+03
             -0.273710507359755E+03
             -0.640728343356945E+03
             -0.222357115789728E+03
             -0.307445845141606E+03
             -0.267379841697567E+03
             -0.602504429150349E+02
             -0.146333090221454E+03
             -0.186211505101329E+03
             -0.285242805231584E+03
              0.218240434165825E+03
              0.688217935529163E+03
              0.581388382199079E+03
             -0.103185008215668E+03
             -0.698836996838445E+03
             -0.298009726796052E+03
              0.142880807011237E+03
              0.143049851541177E+03
              0.228444975685662E+03
              0.160582107431178E+03
              0.283118913259095E+02
              0.682704514981677E+03
             -0.165914779806556E+03
              0.335479576351279E+03
              0.172703693825503E+03
             -0.232634878900293E+03
             -0.111510632779696E+03
              0.309311846249969E+03
             -0.165303657194855E+03
             -0.101549823503208E+03
             -0.752379314925008E+02
              0.398326903461961E+03
             -0.524012110140822E+03
             -0.422497387414901E+02
             -0.404398353464798E+03
             -0.859142031048900E+03
             -0.237260158970867E+01
             -0.126838027511694E+03
              0.333951882626349E+03
              0.371124239391765E+03
              0.507682475733718E+03
             -0.330126713670649E+03
              0.513401938798274E+03
              0.128343516694726E+03
             -0.190657855630217E+03
              0.685286964763721E+02
             -0.162007825400010E+03
             -0.957675189765523E+02
              0.296596419685504E+03
             -0.245628045966549E+03
              0.658764688671151E+03
             -0.175597443388936E+03
             -0.364235033940035E+03
              0.688918083689417E+03
             -0.372922426875994E+03
             -0.300072315329289E+02
              0.361500014388330E+02
              0.198680149443167E+03
             -0.290962839173615E+03
             -0.221721627174131E+03
              0.353779855665193E+03
             -0.532422949193065E+03
              0.438960462780582E+03
              0.648953135653914E+02
              0.314578651279523E+03
              0.455689457850511E+03
              0.116796919730778E+03
             -0.633385195571304E+03
             -0.274081755255192E+03
             -0.457336339590950E+03
             -0.271954829594235E+03
             -0.725411573441052E+02
              0.981691211002696E+02
             -0.213173052118632E+03
             -0.364821855574428E+01
             -0.635861136543579E+03
              0.354340995507541E+02
             -0.410094610964863E+03
              0.397445306900051E+03
             -0.232821617185264E+03
             -0.562328995120630E+02
              0.300097631891328E+03
              0.593901829262557E+02
              0.278853320624123E+03
             -0.531685162424154E+03
              0.882736780148171E+02
              0.363493376203278E+02
              0.228881058049454E+03
              0.366923538448242E+03
             -0.677735839947163E+02
             -0.417601869011932E+03
             -0.241678529874953E+03
             -0.170334319912966E+03
             -0.501229077154858E+02
              0.389417317496597E+03
              0.252867159709204E+03
             -0.256058777077417E+03
             -0.240338982354828E+03
              0.176477115286926E+03
              0.192206359776335E+03
             -0.519259482346527E+03
              0.121008108058678E+03
              0.372224086201808E+03
             -0.166424671642278E+02
              0.469173008531233E+03
              0.216582593575490E+03
              0.368978511304394E+03
              0.561078655235024E+03
              0.844069832644443E+02
             -0.764431456494226E+03
              0.105447154107248E+03
              0.826533393485332E+03
              0.600760885315990E+03
             -0.414222846998663E+03
              0.373923776403928E+02
              0.537677012330027E+03
              0.465835730529746E+03
              0.204797061837477E+03
             -0.123960572746313E+03
              0.205742123554356E+03
              0.425947563329712E+03
             -0.196926310547537E+03
             -0.126808984108177E+03
              0.288496884280212E+03
             -0.173319131577921E+02
              0.259097730915195E+03
             -0.799487595982939E+02
              0.540194269852002E+03
             -0.205917347260233E+03
              0.123948873987773E+03
             -0.228830398396492E+03
              0.267318160560841E+03
             -0.362464608651940E+02
              0.398352114767322E+03
              0.284077508849603E+02
              0.178380437809355E+03
             -0.253382243540532E+03
             -0.177097736072623E+03
             -0.903731823882813E+02
             -0.822760647711730E+02
              0.433820893808647E+03
              0.213514509665218E+03
              0.526309243689518E+03
              0.485618726818023E+03
              0.136238912320240E+03
              0.243561680956118E+02
              0.517633671400337E+03
              0.290921870273247E+03
              0.647408964544411E+00
              0.504273488219865E+03
             -0.413801769438865E+03
              0.145102103345861E+03
             -0.269658419094983E+03
             -0.730890984509101E+02
              0.697072771032564E+03
             -0.975885433561389E+02
             -0.291538305455192E+02
             -0.758200684541775E+02
              0.572702463189838E+03
             -0.122955529506306E+03
             -0.105241395406317E+02
              0.115532688659576E+04
             -0.341929149760014E+03
             -0.426890289191873E+03
             -0.427249391228245E+03
             -0.272866840400853E+03
              0.248933028703818E+03
             -0.111664290102335E+03
              0.633127574291557E+02
             -0.288851185473159E+02
              0.146539647119001E+03
              0.235086803768542E+03
              0.273955960138801E+03
              0.394518670936855E+03
              0.252631025943946E+03
              0.257603773172996E+03
             -0.476777908807257E+03
             -0.492348118920650E+03
             -0.111013553120784E+03
             -0.440071678925558E+03
              0.698748042443987E+03
              0.588529139491108E+03
              0.277610933821684E+03
              0.765196393606709E+03
             -0.382300641832933E+03
             -0.164764300121923E+03
             -0.237484070435855E+03
              0.662079199119279E+03
 
 BEEF-vdW xc energy contributions
            1 :    -5984.341675938337     
            2 :     5483.364828668782     
            3 :    -4629.231201815112     
            4 :     3649.813042741595     
            5 :    -2759.693800105754     
            6 :     2090.827666875884     
            7 :    -1670.889867790225     
            8 :     1443.315515211468     
            9 :    -1310.174016865177     
           10 :     1179.246678115610     
           11 :    -999.1148727312366     
           12 :     770.2230108546783     
           13 :    -530.2496515019375     
           14 :     325.2328886011919     
           15 :    -183.8149876466750     
           16 :     106.4873873272163     
           17 :    -70.87431409529381     
           18 :     46.38197921310802     
           19 :    -9.722505520863706     
           20 :    -45.44443632117418     
           21 :     108.3740456088735     
           22 :    -159.9509369854686     
           23 :     185.1129142221253     
           24 :    -181.8529911064661     
           25 :     162.0302795534071     
           26 :    -144.3549882497764     
           27 :     144.1595234043225     
           28 :    -165.5909395077879     
           29 :     199.9645540206329     
           30 :    -230.7578031047715     
           31 :    -515.7772008816073     
           32 :    -371.1602330365276     

     Writing all to output data dir ./PbI2.save/
 
     init_run     :     27.64s CPU     45.87s WALL (       1 calls)
     electrons    :    635.89s CPU    665.36s WALL (       1 calls)
     forces       :     10.96s CPU     11.37s WALL (       1 calls)
     stress       :    186.76s CPU    189.14s WALL (       1 calls)

     Called by init_run:
     wfcinit      :     21.15s CPU     38.82s WALL (       1 calls)
     potinit      :      1.37s CPU      1.64s WALL (       1 calls)
     hinit0       :      1.14s CPU      1.23s WALL (       1 calls)

     Called by electrons:
     c_bands      :    595.36s CPU    623.85s WALL (       2 calls)
     sum_band     :     29.53s CPU     30.10s WALL (       2 calls)
     v_of_rho     :      1.63s CPU      1.69s WALL (       2 calls)
     v_h          :      0.03s CPU      0.03s WALL (       2 calls)
     v_xc         :     27.42s CPU     27.81s WALL (      38 calls)
     newd         :      0.50s CPU      0.67s WALL (       2 calls)
     PAW_pot      :      0.56s CPU      0.57s WALL (       2 calls)
     mix_rho      :      0.00s CPU      0.00s WALL (       2 calls)
     vdW_kernel   :      0.14s CPU      0.15s WALL (       1 calls)

     Called by c_bands:
     init_us_2    :      0.20s CPU      0.21s WALL (       4 calls)
     init_us_2:cp :      0.20s CPU      0.21s WALL (       4 calls)
     cegterg      :    592.00s CPU    619.04s WALL (       2 calls)

     Called by sum_band:
     sum_band:wei :      0.00s CPU      0.00s WALL (       2 calls)
     sum_band:loo :     28.85s CPU     29.14s WALL (       2 calls)
     sum_band:buf :      0.00s CPU      0.00s WALL (       2 calls)
     sum_band:ini :      0.17s CPU      0.17s WALL (       2 calls)
     sum_band:cal :      4.90s CPU      4.93s WALL (       2 calls)
     sum_band:bec :      0.09s CPU      0.09s WALL (       2 calls)
     addusdens    :      0.51s CPU      0.70s WALL (       2 calls)
     addusd:skk   :      0.06s CPU      0.07s WALL (       4 calls)
     addusd:dgemm :      0.27s CPU      0.44s WALL (       4 calls)
     addusd:qvan2 :      0.17s CPU      0.17s WALL (       4 calls)

     Called by *egterg:
     cdiaghg      :    476.11s CPU    498.17s WALL (      21 calls)
     cegterg:over :     13.58s CPU     14.27s WALL (      21 calls)
     cegterg:upda :      6.70s CPU      6.84s WALL (      21 calls)
     cegterg:last :      3.99s CPU      4.03s WALL (       2 calls)
     h_psi        :     76.88s CPU     77.97s WALL (      23 calls)
     s_psi        :      8.63s CPU      8.89s WALL (      23 calls)
     g_psi        :      0.06s CPU      0.06s WALL (      21 calls)

     Called by h_psi:
     h_psi:calbec :      9.80s CPU      9.88s WALL (      23 calls)
     vloc_psi     :     58.29s CPU     58.89s WALL (      23 calls)
     vloc_psi:tg_ :      0.01s CPU      0.01s WALL (      23 calls)
     add_vuspsi   :      8.66s CPU      8.95s WALL (      23 calls)

     General routines
     calbec       :     25.06s CPU     25.25s WALL (      30 calls)
     fft          :     22.76s CPU     23.03s WALL (    2232 calls)
     ffts         :      0.08s CPU      0.08s WALL (       4 calls)
     fftw         :     80.26s CPU     81.09s WALL (   14838 calls)
     interpolate  :      0.05s CPU      0.06s WALL (       2 calls)
 
     Parallel routines
     fft_scatt_xy :      2.01s CPU      2.03s WALL (   17074 calls)
     fft_scatt_yz :     89.12s CPU     90.00s WALL (   17074 calls)
     fft_scatt_tg :      0.11s CPU      0.11s WALL (   14838 calls)

     PAW routines
     PAW_pot      :      0.56s CPU      0.57s WALL (       2 calls)
 
     PWSCF        :  15m 5.62s CPU  16m 9.73s WALL

 
   This run was terminated on:   9:14:28   9Mar2024            

=------------------------------------------------------------------------------=
   JOB DONE.
=------------------------------------------------------------------------------=
