
     Program PWSCF v.7.1 starts on 22Feb2024 at 12:16:41 

     This program is part of the open-source Quantum ESPRESSO suite
     for quantum simulation of materials; please cite
         "P. Giannozzi et al., J. Phys.:Condens. Matter 21 395502 (2009);
         "P. Giannozzi et al., J. Phys.:Condens. Matter 29 465901 (2017);
         "P. Giannozzi et al., J. Chem. Phys. 152 154105 (2020);
          URL http://www.quantum-espresso.org", 
     in publications or presentations arising from this work. More details at
     http://www.quantum-espresso.org/quote

     Parallel version (MPI & OpenMP), running on     256 processor cores
     Number of MPI processes:               256
     Threads/MPI process:                     1

     MPI processes distributed on     2 nodes
     1803753 MiB available memory on the printing compute node when the environment starts
 
     Reading input from espresso.pwi
Warning: card &CELL ignored
Warning: card    CELL_DYNAMICS    = 'BFGS' ignored
Warning: card / ignored

     Current dimensions of program PWSCF are:
     Max number of different atomic species (ntypx) = 10
     Max number of k-points (npk) =  40000
     Max angular momentum in pseudopotentials (lmaxx) =  4
     file Ga.pbe-dn-kjpaw_psl.1.0.0.UPF: wavefunction(s)  4S renormalized
     file N.pbe-n-kjpaw_psl.1.0.0.UPF: wavefunction(s)  2S renormalized

     **************************************************************************
     Initializing libbeef V0.1.2 with the BEEF-vdW functional.
     Citation: Wellendorff et al., PRB 85, 235149 (2012).
     **************************************************************************


     IMPORTANT: XC functional enforced from input :
     Exchange-correlation= BEEF-VDW
                           (   1   4  43  14   2   0   0)
     Any further DFT definition will be discarded
     Please, verify this is what you really want

 
     K-points division:     npool     =       4
     R & G space division:  proc/nbgrp/npool/nimage =      64
     Subspace diagonalization in iterative solution of the eigenvalue problem:
     a serial algorithm will be used

 
     Parallelization info
     --------------------
     sticks:   dense  smooth     PW     G-vecs:    dense   smooth      PW
     Min         354     283     73                42160    30167    3987
     Max         356     285     74                42163    30170    3996
     Sum       22693   18145   4705              2698283  1930731  255309
 
     Using Slab Decomposition
 


     bravais-lattice index     =            4
     lattice parameter (alat)  =      30.6565  a.u.
     unit-cell volume          =   24400.9461 (a.u.)^3
     number of atoms/cell      =          300
     number of atomic types    =            2
     number of electrons       =      2706.00
     number of Kohn-Sham states=         1624
     kinetic-energy cutoff     =      70.0000  Ry
     charge density cutoff     =     350.0000  Ry
     scf convergence threshold =      1.0E-07
     mixing beta               =       0.7000
     number of iterations used =            8  plain     mixing
     energy convergence thresh.=      1.0E-04
     force convergence thresh. =      1.0E-03
     Exchange-correlation= BEEF-VDW
                           (   1   4  43  14   2   0   0)
     nstep                     =           50


     celldm(1)=  30.656540  celldm(2)=   0.000000  celldm(3)=   0.977927
     celldm(4)=   0.000000  celldm(5)=   0.000000  celldm(6)=   0.000000

     crystal axes: (cart. coord. in units of alat)
               a(1) = (   1.000000   0.000000   0.000000 )  
               a(2) = (  -0.500000   0.866025   0.000000 )  
               a(3) = (   0.000000   0.000000   0.977927 )  

     reciprocal axes: (cart. coord. in units 2 pi/alat)
               b(1) = (  1.000000  0.577350 -0.000000 )  
               b(2) = (  0.000000  1.154701  0.000000 )  
               b(3) = (  0.000000 -0.000000  1.022571 )  


     PseudoPot. # 1 for Ga read from file:
     //group///packages/espresso/pseudo/psl_1.0.0/pslibrary.1.0.0/pbe/PSEUDOPOTENTIALS/Ga.pbe-dn-kjpaw_psl.1.0.0.UPF
     MD5 check sum: cd2a01e492f15b435d17032472d8505c
     Pseudo is Projector augmented-wave + core cor, Zval = 13.0
     Generated using 'atomic' code by A. Dal Corso  v.7.1
     Shape of augmentation charge: PSQ
     Using radial grid of 1205 points,  6 beta functions with: 
                l(1) =   0
                l(2) =   0
                l(3) =   1
                l(4) =   1
                l(5) =   2
                l(6) =   2
     Q(r) pseudized with 0 coefficients 


     PseudoPot. # 2 for N  read from file:
     //group///packages/espresso/pseudo/psl_1.0.0/pslibrary.1.0.0/pbe/PSEUDOPOTENTIALS/N.pbe-n-kjpaw_psl.1.0.0.UPF
     MD5 check sum: f77f775694dac7e2c3fe1c82443d1a16
     Pseudo is Projector augmented-wave + core cor, Zval =  5.0
     Generated using 'atomic' code by A. Dal Corso  v.7.1
     Shape of augmentation charge: PSQ
     Using radial grid of 1085 points,  4 beta functions with: 
                l(1) =   0
                l(2) =   0
                l(3) =   1
                l(4) =   1
     Q(r) pseudized with 0 coefficients 


     atomic species   valence    mass     pseudopotential
        Ga            13.00    69.72300     Ga( 1.00)
        N              5.00    14.00700     N ( 1.00)

      2 Sym. Ops. (no inversion) found


                                    s                        frac. trans.

      isym =  1     identity                                     

 cryst.   s( 1) = (     1          0          0      )
                  (     0          1          0      )
                  (     0          0          1      )

 cart.    s( 1) = (  1.0000000  0.0000000  0.0000000 )
                  (  0.0000000  1.0000000  0.0000000 )
                  (  0.0000000  0.0000000  1.0000000 )


      isym =  2     inv. 180 deg rotation - cryst. axis [0,1,0]  

 cryst.   s( 2) = (     1          1          0      )
                  (     0         -1          0      )
                  (     0          0          1      )

 cart.    s( 2) = (  0.5000000  0.8660254  0.0000000 )
                  (  0.8660254 -0.5000000  0.0000000 )
                  (  0.0000000  0.0000000  1.0000000 )


     point group C_s (m)    
     there are  2 classes
     the character table:

       E     s    
A'     1.00  1.00
A''    1.00 -1.00

     the symmetry operations in each class and the name of the first element:

     E        1
          identity                                               
     s        2
          inv. 180 deg rotation - cryst. axis [0,1,0]            

   Cartesian axes

     site n.     atom                  positions (alat units)
         1           Ga  tau(   1) = (   0.1000001   0.0577350   0.1627148  )
         2           Ga  tau(   2) = (   0.1000001   0.0577350   0.4886906  )
         3           Ga  tau(   3) = (   0.1000001   0.0577350   0.8146665  )
         4           Ga  tau(   4) = (   0.0000001   0.2309401   0.1627148  )
         5           Ga  tau(   5) = (   0.0000001   0.2309401   0.4886906  )
         6           Ga  tau(   6) = (   0.0000001   0.2309401   0.8146665  )
         7           Ga  tau(   7) = (  -0.0999999   0.4041451   0.1627148  )
         8           Ga  tau(   8) = (  -0.0999999   0.4041451   0.4886906  )
         9           Ga  tau(   9) = (  -0.0999999   0.4041451   0.8146665  )
        10           Ga  tau(  10) = (  -0.1999999   0.5773502   0.1627148  )
        11           Ga  tau(  11) = (  -0.1999999   0.5773502   0.4886906  )
        12           Ga  tau(  12) = (  -0.1999999   0.5773502   0.8146665  )
        13           Ga  tau(  13) = (  -0.2999999   0.7505553   0.1627148  )
        14           Ga  tau(  14) = (  -0.2999999   0.7505553   0.4886906  )
        15           Ga  tau(  15) = (  -0.2999999   0.7505553   0.8146665  )
        16           Ga  tau(  16) = (   0.3000001   0.0577350   0.1627148  )
        17           Ga  tau(  17) = (   0.3000001   0.0577350   0.4886906  )
        18           Ga  tau(  18) = (   0.3000001   0.0577350   0.8146665  )
        19           Ga  tau(  19) = (   0.2000001   0.2309401   0.1627148  )
        20           Ga  tau(  20) = (   0.2000001   0.2309401   0.4886906  )
        21           Ga  tau(  21) = (   0.2000001   0.2309401   0.8146665  )
        22           Ga  tau(  22) = (   0.1000001   0.4041451   0.1627148  )
        23           Ga  tau(  23) = (   0.1000001   0.4041451   0.4886906  )
        24           Ga  tau(  24) = (   0.1000001   0.4041451   0.8146665  )
        25           Ga  tau(  25) = (   0.0000001   0.5773502   0.1627148  )
        26           Ga  tau(  26) = (   0.0000001   0.5773502   0.4886906  )
        27           Ga  tau(  27) = (   0.0000001   0.5773502   0.8146665  )
        28           Ga  tau(  28) = (  -0.0999999   0.7505553   0.1627148  )
        29           Ga  tau(  29) = (  -0.0999999   0.7505553   0.4886906  )
        30           Ga  tau(  30) = (  -0.0999999   0.7505553   0.8146665  )
        31           Ga  tau(  31) = (   0.5000001   0.0577350   0.1627148  )
        32           Ga  tau(  32) = (   0.5000001   0.0577350   0.4886906  )
        33           Ga  tau(  33) = (   0.5000001   0.0577350   0.8146665  )
        34           Ga  tau(  34) = (   0.4000001   0.2309401   0.1627148  )
        35           Ga  tau(  35) = (   0.4000001   0.2309401   0.4886906  )
        36           Ga  tau(  36) = (   0.4000001   0.2309401   0.8146665  )
        37           Ga  tau(  37) = (   0.3000001   0.4041451   0.1627148  )
        38           Ga  tau(  38) = (   0.3000001   0.4041451   0.4886906  )
        39           Ga  tau(  39) = (   0.3000001   0.4041451   0.8146665  )
        40           Ga  tau(  40) = (   0.2000001   0.5773502   0.1627148  )
        41           Ga  tau(  41) = (   0.2000001   0.5773502   0.4886906  )
        42           Ga  tau(  42) = (   0.2000001   0.5773502   0.8146665  )
        43           Ga  tau(  43) = (   0.1000001   0.7505553   0.1627148  )
        44           Ga  tau(  44) = (   0.1000001   0.7505553   0.4886906  )
        45           Ga  tau(  45) = (   0.1000001   0.7505553   0.8146665  )
        46           Ga  tau(  46) = (   0.7000001   0.0577350   0.1627148  )
        47           Ga  tau(  47) = (   0.7000001   0.0577350   0.4886906  )
        48           Ga  tau(  48) = (   0.7000001   0.0577350   0.8146665  )
        49           Ga  tau(  49) = (   0.6000001   0.2309401   0.1627148  )
        50           Ga  tau(  50) = (   0.6000001   0.2309401   0.4886906  )
        51           Ga  tau(  51) = (   0.6000001   0.2309401   0.8146665  )
        52           Ga  tau(  52) = (   0.5000001   0.4041451   0.1627148  )
        53           Ga  tau(  53) = (   0.5000001   0.4041451   0.4886906  )
        54           Ga  tau(  54) = (   0.5000001   0.4041451   0.8146665  )
        55           Ga  tau(  55) = (   0.4000001   0.5773502   0.1627148  )
        56           Ga  tau(  56) = (   0.4000001   0.5773502   0.4886906  )
        57           Ga  tau(  57) = (   0.4000001   0.5773502   0.8146665  )
        58           Ga  tau(  58) = (   0.3000001   0.7505553   0.1627148  )
        59           Ga  tau(  59) = (   0.3000001   0.7505553   0.4886906  )
        60           Ga  tau(  60) = (   0.3000001   0.7505553   0.8146665  )
        61           Ga  tau(  61) = (   0.9000001   0.0577350   0.1627148  )
        62           Ga  tau(  62) = (   0.9000001   0.0577350   0.4886906  )
        63           Ga  tau(  63) = (   0.9000001   0.0577350   0.8146665  )
        64           Ga  tau(  64) = (   0.8000001   0.2309401   0.1627148  )
        65           Ga  tau(  65) = (   0.8000001   0.2309401   0.4886906  )
        66           Ga  tau(  66) = (   0.8000001   0.2309401   0.8146665  )
        67           Ga  tau(  67) = (   0.7000001   0.4041451   0.1627148  )
        68           Ga  tau(  68) = (   0.7000001   0.4041451   0.4886906  )
        69           Ga  tau(  69) = (   0.7000001   0.4041451   0.8146665  )
        70           Ga  tau(  70) = (   0.6000001   0.5773502   0.1627148  )
        71           Ga  tau(  71) = (   0.6000001   0.5773502   0.4886906  )
        72           Ga  tau(  72) = (   0.6000001   0.5773502   0.8146665  )
        73           Ga  tau(  73) = (   0.5000001   0.7505553   0.1627148  )
        74           Ga  tau(  74) = (   0.5000001   0.7505553   0.4886906  )
        75           Ga  tau(  75) = (   0.5000001   0.7505553   0.8146665  )
        76           Ga  tau(  76) = (  -0.0000001   0.1154701   0.3257027  )
        77           Ga  tau(  77) = (  -0.0000001   0.1154701   0.6516786  )
        78           Ga  tau(  78) = (  -0.0000001   0.1154701   0.9776544  )
        79           Ga  tau(  79) = (  -0.1000001   0.2886752   0.3257027  )
        80           Ga  tau(  80) = (  -0.1000001   0.2886752   0.6516786  )
        81           Ga  tau(  81) = (  -0.1000001   0.2886752   0.9776544  )
        82           Ga  tau(  82) = (  -0.2000001   0.4618803   0.3257027  )
        83           Ga  tau(  83) = (  -0.2000001   0.4618803   0.6516786  )
        84           Ga  tau(  84) = (  -0.2000001   0.4618803   0.9776544  )
        85           Ga  tau(  85) = (  -0.3000001   0.6350854   0.3257027  )
        86           Ga  tau(  86) = (  -0.3000001   0.6350854   0.6516786  )
        87           Ga  tau(  87) = (  -0.3000001   0.6350854   0.9776544  )
        88           Ga  tau(  88) = (  -0.4000001   0.8082905   0.3257027  )
        89           Ga  tau(  89) = (  -0.4000001   0.8082905   0.6516786  )
        90           Ga  tau(  90) = (  -0.4000001   0.8082905   0.9776544  )
        91           Ga  tau(  91) = (   0.1999999   0.1154701   0.3257027  )
        92           Ga  tau(  92) = (   0.1999999   0.1154701   0.6516786  )
        93           Ga  tau(  93) = (   0.1999999   0.1154701   0.9776544  )
        94           Ga  tau(  94) = (   0.0999999   0.2886752   0.3257027  )
        95           Ga  tau(  95) = (   0.0999999   0.2886752   0.6516786  )
        96           Ga  tau(  96) = (   0.0999999   0.2886752   0.9776544  )
        97           Ga  tau(  97) = (  -0.0000001   0.4618803   0.3257027  )
        98           Ga  tau(  98) = (  -0.0000001   0.4618803   0.6516786  )
        99           Ga  tau(  99) = (  -0.0000001   0.4618803   0.9776544  )
       100           Ga  tau( 100) = (  -0.1000001   0.6350854   0.3257027  )
       101           Ga  tau( 101) = (  -0.1000001   0.6350854   0.6516786  )
       102           Ga  tau( 102) = (  -0.1000001   0.6350854   0.9776544  )
       103           Ga  tau( 103) = (  -0.2000001   0.8082905   0.3257027  )
       104           Ga  tau( 104) = (  -0.2000001   0.8082905   0.6516786  )
       105           Ga  tau( 105) = (  -0.2000001   0.8082905   0.9776544  )
       106           Ga  tau( 106) = (   0.3999999   0.1154701   0.3257027  )
       107           Ga  tau( 107) = (   0.3999999   0.1154701   0.6516786  )
       108           Ga  tau( 108) = (   0.3999999   0.1154701   0.9776544  )
       109           Ga  tau( 109) = (   0.2999999   0.2886752   0.3257027  )
       110           Ga  tau( 110) = (   0.2999999   0.2886752   0.6516786  )
       111           Ga  tau( 111) = (   0.2999999   0.2886752   0.9776544  )
       112           Ga  tau( 112) = (   0.1999999   0.4618803   0.3257027  )
       113           Ga  tau( 113) = (   0.1999999   0.4618803   0.6516786  )
       114           Ga  tau( 114) = (   0.1999999   0.4618803   0.9776544  )
       115           Ga  tau( 115) = (   0.0999999   0.6350854   0.3257027  )
       116           Ga  tau( 116) = (   0.0999999   0.6350854   0.6516786  )
       117           Ga  tau( 117) = (   0.0999999   0.6350854   0.9776544  )
       118           Ga  tau( 118) = (  -0.0000001   0.8082905   0.3257027  )
       119           Ga  tau( 119) = (  -0.0000001   0.8082905   0.6516786  )
       120           Ga  tau( 120) = (  -0.0000001   0.8082905   0.9776544  )
       121           Ga  tau( 121) = (   0.5999999   0.1154701   0.3257027  )
       122           Ga  tau( 122) = (   0.5999999   0.1154701   0.6516786  )
       123           Ga  tau( 123) = (   0.5999999   0.1154701   0.9776544  )
       124           Ga  tau( 124) = (   0.4999999   0.2886752   0.3257027  )
       125           Ga  tau( 125) = (   0.4999999   0.2886752   0.6516786  )
       126           Ga  tau( 126) = (   0.4999999   0.2886752   0.9776544  )
       127           Ga  tau( 127) = (   0.3999999   0.4618803   0.3257027  )
       128           Ga  tau( 128) = (   0.3999999   0.4618803   0.6516786  )
       129           Ga  tau( 129) = (   0.3999999   0.4618803   0.9776544  )
       130           Ga  tau( 130) = (   0.2999999   0.6350854   0.3257027  )
       131           Ga  tau( 131) = (   0.2999999   0.6350854   0.6516786  )
       132           Ga  tau( 132) = (   0.2999999   0.6350854   0.9776544  )
       133           Ga  tau( 133) = (   0.1999999   0.8082905   0.3257027  )
       134           Ga  tau( 134) = (   0.1999999   0.8082905   0.6516786  )
       135           Ga  tau( 135) = (   0.1999999   0.8082905   0.9776544  )
       136           Ga  tau( 136) = (   0.7999999   0.1154701   0.3257027  )
       137           Ga  tau( 137) = (   0.7999999   0.1154701   0.6516786  )
       138           Ga  tau( 138) = (   0.7999999   0.1154701   0.9776544  )
       139           Ga  tau( 139) = (   0.6999999   0.2886752   0.3257027  )
       140           Ga  tau( 140) = (   0.6999999   0.2886752   0.6516786  )
       141           Ga  tau( 141) = (   0.6999999   0.2886752   0.9776544  )
       142           Ga  tau( 142) = (   0.5999999   0.4618803   0.3257027  )
       143           Ga  tau( 143) = (   0.5999999   0.4618803   0.6516786  )
       144           Ga  tau( 144) = (   0.5999999   0.4618803   0.9776544  )
       145           Ga  tau( 145) = (   0.4999999   0.6350854   0.3257027  )
       146           Ga  tau( 146) = (   0.4999999   0.6350854   0.6516786  )
       147           Ga  tau( 147) = (   0.4999999   0.6350854   0.9776544  )
       148           Ga  tau( 148) = (   0.3999999   0.8082905   0.3257027  )
       149           Ga  tau( 149) = (   0.3999999   0.8082905   0.6516786  )
       150           Ga  tau( 150) = (   0.3999999   0.8082905   0.9776544  )
       151           N   tau( 151) = (   0.1000001   0.0577350   0.6114777  )
       152           N   tau( 152) = (   0.1000001   0.0577350   0.9374535  )
       153           N   tau( 153) = (   0.0000001   0.2309401   0.2855019  )
       154           N   tau( 154) = (   0.0000001   0.2309401   0.6114777  )
       155           N   tau( 155) = (   0.0000001   0.2309401   0.9374535  )
       156           N   tau( 156) = (  -0.0999999   0.4041451   0.2855019  )
       157           N   tau( 157) = (  -0.0999999   0.4041451   0.6114777  )
       158           N   tau( 158) = (  -0.0999999   0.4041451   0.9374535  )
       159           N   tau( 159) = (  -0.1999999   0.5773502   0.2855019  )
       160           N   tau( 160) = (  -0.1999999   0.5773502   0.6114777  )
       161           N   tau( 161) = (  -0.1999999   0.5773502   0.9374535  )
       162           N   tau( 162) = (  -0.2999999   0.7505553   0.2855019  )
       163           N   tau( 163) = (  -0.2999999   0.7505553   0.6114777  )
       164           N   tau( 164) = (  -0.2999999   0.7505553   0.9374535  )
       165           N   tau( 165) = (   0.3000001   0.0577350   0.2855019  )
       166           N   tau( 166) = (   0.3000001   0.0577350   0.6114777  )
       167           N   tau( 167) = (   0.3000001   0.0577350   0.9374535  )
       168           N   tau( 168) = (   0.2000001   0.2309401   0.2855019  )
       169           N   tau( 169) = (   0.2000001   0.2309401   0.6114777  )
       170           N   tau( 170) = (   0.2000001   0.2309401   0.9374535  )
       171           N   tau( 171) = (   0.1000001   0.4041451   0.2855019  )
       172           N   tau( 172) = (   0.1000001   0.4041451   0.6114777  )
       173           N   tau( 173) = (   0.1000001   0.4041451   0.9374535  )
       174           N   tau( 174) = (   0.0000001   0.5773502   0.2855019  )
       175           N   tau( 175) = (   0.0000001   0.5773502   0.6114777  )
       176           N   tau( 176) = (   0.0000001   0.5773502   0.9374535  )
       177           N   tau( 177) = (  -0.0999999   0.7505553   0.2855019  )
       178           N   tau( 178) = (  -0.0999999   0.7505553   0.6114777  )
       179           N   tau( 179) = (  -0.0999999   0.7505553   0.9374535  )
       180           N   tau( 180) = (   0.5000001   0.0577350   0.2855019  )
       181           N   tau( 181) = (   0.5000001   0.0577350   0.6114777  )
       182           N   tau( 182) = (   0.5000001   0.0577350   0.9374535  )
       183           N   tau( 183) = (   0.4000001   0.2309401   0.2855019  )
       184           N   tau( 184) = (   0.4000001   0.2309401   0.6114777  )
       185           N   tau( 185) = (   0.4000001   0.2309401   0.9374535  )
       186           N   tau( 186) = (   0.3000001   0.4041451   0.2855019  )
       187           N   tau( 187) = (   0.3000001   0.4041451   0.6114777  )
       188           N   tau( 188) = (   0.3000001   0.4041451   0.9374535  )
       189           N   tau( 189) = (   0.2000001   0.5773502   0.2855019  )
       190           N   tau( 190) = (   0.2000001   0.5773502   0.6114777  )
       191           N   tau( 191) = (   0.2000001   0.5773502   0.9374535  )
       192           N   tau( 192) = (   0.1000001   0.7505553   0.2855019  )
       193           N   tau( 193) = (   0.1000001   0.7505553   0.6114777  )
       194           N   tau( 194) = (   0.1000001   0.7505553   0.9374535  )
       195           N   tau( 195) = (   0.7000001   0.0577350   0.2855019  )
       196           N   tau( 196) = (   0.7000001   0.0577350   0.6114777  )
       197           N   tau( 197) = (   0.7000001   0.0577350   0.9374535  )
       198           N   tau( 198) = (   0.6000001   0.2309401   0.2855019  )
       199           N   tau( 199) = (   0.6000001   0.2309401   0.6114777  )
       200           N   tau( 200) = (   0.6000001   0.2309401   0.9374535  )
       201           N   tau( 201) = (   0.5000001   0.4041451   0.2855019  )
       202           N   tau( 202) = (   0.5000001   0.4041451   0.6114777  )
       203           N   tau( 203) = (   0.5000001   0.4041451   0.9374535  )
       204           N   tau( 204) = (   0.4000001   0.5773502   0.2855019  )
       205           N   tau( 205) = (   0.4000001   0.5773502   0.6114777  )
       206           N   tau( 206) = (   0.4000001   0.5773502   0.9374535  )
       207           N   tau( 207) = (   0.3000001   0.7505553   0.2855019  )
       208           N   tau( 208) = (   0.3000001   0.7505553   0.6114777  )
       209           N   tau( 209) = (   0.3000001   0.7505553   0.9374535  )
       210           N   tau( 210) = (   0.9000001   0.0577350   0.2855019  )
       211           N   tau( 211) = (   0.9000001   0.0577350   0.6114777  )
       212           N   tau( 212) = (   0.9000001   0.0577350   0.9374535  )
       213           N   tau( 213) = (   0.8000001   0.2309401   0.2855019  )
       214           N   tau( 214) = (   0.8000001   0.2309401   0.6114777  )
       215           N   tau( 215) = (   0.8000001   0.2309401   0.9374535  )
       216           N   tau( 216) = (   0.7000001   0.4041451   0.2855019  )
       217           N   tau( 217) = (   0.7000001   0.4041451   0.6114777  )
       218           N   tau( 218) = (   0.7000001   0.4041451   0.9374535  )
       219           N   tau( 219) = (   0.6000001   0.5773502   0.2855019  )
       220           N   tau( 220) = (   0.6000001   0.5773502   0.6114777  )
       221           N   tau( 221) = (   0.6000001   0.5773502   0.9374535  )
       222           N   tau( 222) = (   0.5000001   0.7505553   0.2855019  )
       223           N   tau( 223) = (   0.5000001   0.7505553   0.6114777  )
       224           N   tau( 224) = (   0.5000001   0.7505553   0.9374535  )
       225           N   tau( 225) = (  -0.0000001   0.1154701   0.1225140  )
       226           N   tau( 226) = (  -0.0000001   0.1154701   0.4484898  )
       227           N   tau( 227) = (  -0.0000001   0.1154701   0.7744656  )
       228           N   tau( 228) = (  -0.1000001   0.2886752   0.1225140  )
       229           N   tau( 229) = (  -0.1000001   0.2886752   0.4484898  )
       230           N   tau( 230) = (  -0.1000001   0.2886752   0.7744656  )
       231           N   tau( 231) = (  -0.2000001   0.4618803   0.1225140  )
       232           N   tau( 232) = (  -0.2000001   0.4618803   0.4484898  )
       233           N   tau( 233) = (  -0.2000001   0.4618803   0.7744656  )
       234           N   tau( 234) = (  -0.3000001   0.6350854   0.1225140  )
       235           N   tau( 235) = (  -0.3000001   0.6350854   0.4484898  )
       236           N   tau( 236) = (  -0.3000001   0.6350854   0.7744656  )
       237           N   tau( 237) = (  -0.4000001   0.8082905   0.1225140  )
       238           N   tau( 238) = (  -0.4000001   0.8082905   0.4484898  )
       239           N   tau( 239) = (  -0.4000001   0.8082905   0.7744656  )
       240           N   tau( 240) = (   0.1999999   0.1154701   0.1225140  )
       241           N   tau( 241) = (   0.1999999   0.1154701   0.4484898  )
       242           N   tau( 242) = (   0.1999999   0.1154701   0.7744656  )
       243           N   tau( 243) = (   0.0999999   0.2886752   0.1225140  )
       244           N   tau( 244) = (   0.0999999   0.2886752   0.4484898  )
       245           N   tau( 245) = (   0.0999999   0.2886752   0.7744656  )
       246           N   tau( 246) = (  -0.0000001   0.4618803   0.1225140  )
       247           N   tau( 247) = (  -0.0000001   0.4618803   0.4484898  )
       248           N   tau( 248) = (  -0.0000001   0.4618803   0.7744656  )
       249           N   tau( 249) = (  -0.1000001   0.6350854   0.1225140  )
       250           N   tau( 250) = (  -0.1000001   0.6350854   0.4484898  )
       251           N   tau( 251) = (  -0.1000001   0.6350854   0.7744656  )
       252           N   tau( 252) = (  -0.2000001   0.8082905   0.1225140  )
       253           N   tau( 253) = (  -0.2000001   0.8082905   0.4484898  )
       254           N   tau( 254) = (  -0.2000001   0.8082905   0.7744656  )
       255           N   tau( 255) = (   0.3999999   0.1154701   0.1225140  )
       256           N   tau( 256) = (   0.3999999   0.1154701   0.4484898  )
       257           N   tau( 257) = (   0.3999999   0.1154701   0.7744656  )
       258           N   tau( 258) = (   0.2999999   0.2886752   0.1225140  )
       259           N   tau( 259) = (   0.2999999   0.2886752   0.4484898  )
       260           N   tau( 260) = (   0.2999999   0.2886752   0.7744656  )
       261           N   tau( 261) = (   0.1999999   0.4618803   0.1225140  )
       262           N   tau( 262) = (   0.1999999   0.4618803   0.4484898  )
       263           N   tau( 263) = (   0.1999999   0.4618803   0.7744656  )
       264           N   tau( 264) = (   0.0999999   0.6350854   0.1225140  )
       265           N   tau( 265) = (   0.0999999   0.6350854   0.4484898  )
       266           N   tau( 266) = (   0.0999999   0.6350854   0.7744656  )
       267           N   tau( 267) = (  -0.0000001   0.8082905   0.1225140  )
       268           N   tau( 268) = (  -0.0000001   0.8082905   0.4484898  )
       269           N   tau( 269) = (  -0.0000001   0.8082905   0.7744656  )
       270           N   tau( 270) = (   0.5999999   0.1154701   0.1225140  )
       271           N   tau( 271) = (   0.5999999   0.1154701   0.4484898  )
       272           N   tau( 272) = (   0.5999999   0.1154701   0.7744656  )
       273           N   tau( 273) = (   0.4999999   0.2886752   0.1225140  )
       274           N   tau( 274) = (   0.4999999   0.2886752   0.4484898  )
       275           N   tau( 275) = (   0.4999999   0.2886752   0.7744656  )
       276           N   tau( 276) = (   0.3999999   0.4618803   0.1225140  )
       277           N   tau( 277) = (   0.3999999   0.4618803   0.4484898  )
       278           N   tau( 278) = (   0.3999999   0.4618803   0.7744656  )
       279           N   tau( 279) = (   0.2999999   0.6350854   0.1225140  )
       280           N   tau( 280) = (   0.2999999   0.6350854   0.4484898  )
       281           N   tau( 281) = (   0.2999999   0.6350854   0.7744656  )
       282           N   tau( 282) = (   0.1999999   0.8082905   0.1225140  )
       283           N   tau( 283) = (   0.1999999   0.8082905   0.4484898  )
       284           N   tau( 284) = (   0.1999999   0.8082905   0.7744656  )
       285           N   tau( 285) = (   0.7999999   0.1154701   0.1225140  )
       286           N   tau( 286) = (   0.7999999   0.1154701   0.4484898  )
       287           N   tau( 287) = (   0.7999999   0.1154701   0.7744656  )
       288           N   tau( 288) = (   0.6999999   0.2886752   0.1225140  )
       289           N   tau( 289) = (   0.6999999   0.2886752   0.4484898  )
       290           N   tau( 290) = (   0.6999999   0.2886752   0.7744656  )
       291           N   tau( 291) = (   0.5999999   0.4618803   0.1225140  )
       292           N   tau( 292) = (   0.5999999   0.4618803   0.4484898  )
       293           N   tau( 293) = (   0.5999999   0.4618803   0.7744656  )
       294           N   tau( 294) = (   0.4999999   0.6350854   0.1225140  )
       295           N   tau( 295) = (   0.4999999   0.6350854   0.4484898  )
       296           N   tau( 296) = (   0.4999999   0.6350854   0.7744656  )
       297           N   tau( 297) = (   0.3999999   0.8082905   0.1225140  )
       298           N   tau( 298) = (   0.3999999   0.8082905   0.4484898  )
       299           N   tau( 299) = (   0.3999999   0.8082905   0.7744656  )
       300           Ga  tau( 300) = (   0.1000001   0.0577350   0.2855019  )

   Crystallographic axes

     site n.     atom                  positions (cryst. coord.)
         1           Ga  tau(   1) = (  0.1333334  0.0666666  0.1663874  )
         2           Ga  tau(   2) = (  0.1333334  0.0666666  0.4997208  )
         3           Ga  tau(   3) = (  0.1333334  0.0666666  0.8330541  )
         4           Ga  tau(   4) = (  0.1333334  0.2666666  0.1663874  )
         5           Ga  tau(   5) = (  0.1333334  0.2666666  0.4997208  )
         6           Ga  tau(   6) = (  0.1333334  0.2666666  0.8330541  )
         7           Ga  tau(   7) = (  0.1333334  0.4666666  0.1663874  )
         8           Ga  tau(   8) = (  0.1333334  0.4666666  0.4997208  )
         9           Ga  tau(   9) = (  0.1333334  0.4666666  0.8330541  )
        10           Ga  tau(  10) = (  0.1333334  0.6666666  0.1663874  )
        11           Ga  tau(  11) = (  0.1333334  0.6666666  0.4997208  )
        12           Ga  tau(  12) = (  0.1333334  0.6666666  0.8330541  )
        13           Ga  tau(  13) = (  0.1333334  0.8666666  0.1663874  )
        14           Ga  tau(  14) = (  0.1333334  0.8666666  0.4997208  )
        15           Ga  tau(  15) = (  0.1333334  0.8666666  0.8330541  )
        16           Ga  tau(  16) = (  0.3333334  0.0666666  0.1663874  )
        17           Ga  tau(  17) = (  0.3333334  0.0666666  0.4997208  )
        18           Ga  tau(  18) = (  0.3333334  0.0666666  0.8330541  )
        19           Ga  tau(  19) = (  0.3333334  0.2666666  0.1663874  )
        20           Ga  tau(  20) = (  0.3333334  0.2666666  0.4997208  )
        21           Ga  tau(  21) = (  0.3333334  0.2666666  0.8330541  )
        22           Ga  tau(  22) = (  0.3333334  0.4666666  0.1663874  )
        23           Ga  tau(  23) = (  0.3333334  0.4666666  0.4997208  )
        24           Ga  tau(  24) = (  0.3333334  0.4666666  0.8330541  )
        25           Ga  tau(  25) = (  0.3333334  0.6666666  0.1663874  )
        26           Ga  tau(  26) = (  0.3333334  0.6666666  0.4997208  )
        27           Ga  tau(  27) = (  0.3333334  0.6666666  0.8330541  )
        28           Ga  tau(  28) = (  0.3333334  0.8666666  0.1663874  )
        29           Ga  tau(  29) = (  0.3333334  0.8666666  0.4997208  )
        30           Ga  tau(  30) = (  0.3333334  0.8666666  0.8330541  )
        31           Ga  tau(  31) = (  0.5333334  0.0666666  0.1663874  )
        32           Ga  tau(  32) = (  0.5333334  0.0666666  0.4997208  )
        33           Ga  tau(  33) = (  0.5333334  0.0666666  0.8330541  )
        34           Ga  tau(  34) = (  0.5333334  0.2666666  0.1663874  )
        35           Ga  tau(  35) = (  0.5333334  0.2666666  0.4997208  )
        36           Ga  tau(  36) = (  0.5333334  0.2666666  0.8330541  )
        37           Ga  tau(  37) = (  0.5333334  0.4666666  0.1663874  )
        38           Ga  tau(  38) = (  0.5333334  0.4666666  0.4997208  )
        39           Ga  tau(  39) = (  0.5333334  0.4666666  0.8330541  )
        40           Ga  tau(  40) = (  0.5333334  0.6666666  0.1663874  )
        41           Ga  tau(  41) = (  0.5333334  0.6666666  0.4997208  )
        42           Ga  tau(  42) = (  0.5333334  0.6666666  0.8330541  )
        43           Ga  tau(  43) = (  0.5333334  0.8666666  0.1663874  )
        44           Ga  tau(  44) = (  0.5333334  0.8666666  0.4997208  )
        45           Ga  tau(  45) = (  0.5333334  0.8666666  0.8330541  )
        46           Ga  tau(  46) = (  0.7333334  0.0666666  0.1663874  )
        47           Ga  tau(  47) = (  0.7333334  0.0666666  0.4997208  )
        48           Ga  tau(  48) = (  0.7333334  0.0666666  0.8330541  )
        49           Ga  tau(  49) = (  0.7333334  0.2666666  0.1663874  )
        50           Ga  tau(  50) = (  0.7333334  0.2666666  0.4997208  )
        51           Ga  tau(  51) = (  0.7333334  0.2666666  0.8330541  )
        52           Ga  tau(  52) = (  0.7333334  0.4666666  0.1663874  )
        53           Ga  tau(  53) = (  0.7333334  0.4666666  0.4997208  )
        54           Ga  tau(  54) = (  0.7333334  0.4666666  0.8330541  )
        55           Ga  tau(  55) = (  0.7333334  0.6666666  0.1663874  )
        56           Ga  tau(  56) = (  0.7333334  0.6666666  0.4997208  )
        57           Ga  tau(  57) = (  0.7333334  0.6666666  0.8330541  )
        58           Ga  tau(  58) = (  0.7333334  0.8666666  0.1663874  )
        59           Ga  tau(  59) = (  0.7333334  0.8666666  0.4997208  )
        60           Ga  tau(  60) = (  0.7333334  0.8666666  0.8330541  )
        61           Ga  tau(  61) = (  0.9333334  0.0666666  0.1663874  )
        62           Ga  tau(  62) = (  0.9333334  0.0666666  0.4997208  )
        63           Ga  tau(  63) = (  0.9333334  0.0666666  0.8330541  )
        64           Ga  tau(  64) = (  0.9333334  0.2666666  0.1663874  )
        65           Ga  tau(  65) = (  0.9333334  0.2666666  0.4997208  )
        66           Ga  tau(  66) = (  0.9333334  0.2666666  0.8330541  )
        67           Ga  tau(  67) = (  0.9333334  0.4666666  0.1663874  )
        68           Ga  tau(  68) = (  0.9333334  0.4666666  0.4997208  )
        69           Ga  tau(  69) = (  0.9333334  0.4666666  0.8330541  )
        70           Ga  tau(  70) = (  0.9333334  0.6666666  0.1663874  )
        71           Ga  tau(  71) = (  0.9333334  0.6666666  0.4997208  )
        72           Ga  tau(  72) = (  0.9333334  0.6666666  0.8330541  )
        73           Ga  tau(  73) = (  0.9333334  0.8666666  0.1663874  )
        74           Ga  tau(  74) = (  0.9333334  0.8666666  0.4997208  )
        75           Ga  tau(  75) = (  0.9333334  0.8666666  0.8330541  )
        76           Ga  tau(  76) = (  0.0666666  0.1333334  0.3330541  )
        77           Ga  tau(  77) = (  0.0666666  0.1333334  0.6663874  )
        78           Ga  tau(  78) = (  0.0666666  0.1333334  0.9997208  )
        79           Ga  tau(  79) = (  0.0666666  0.3333334  0.3330541  )
        80           Ga  tau(  80) = (  0.0666666  0.3333334  0.6663874  )
        81           Ga  tau(  81) = (  0.0666666  0.3333334  0.9997208  )
        82           Ga  tau(  82) = (  0.0666666  0.5333334  0.3330541  )
        83           Ga  tau(  83) = (  0.0666666  0.5333334  0.6663874  )
        84           Ga  tau(  84) = (  0.0666666  0.5333334  0.9997208  )
        85           Ga  tau(  85) = (  0.0666666  0.7333334  0.3330541  )
        86           Ga  tau(  86) = (  0.0666666  0.7333334  0.6663874  )
        87           Ga  tau(  87) = (  0.0666666  0.7333334  0.9997208  )
        88           Ga  tau(  88) = (  0.0666666  0.9333334  0.3330541  )
        89           Ga  tau(  89) = (  0.0666666  0.9333334  0.6663874  )
        90           Ga  tau(  90) = (  0.0666666  0.9333334  0.9997208  )
        91           Ga  tau(  91) = (  0.2666666  0.1333334  0.3330541  )
        92           Ga  tau(  92) = (  0.2666666  0.1333334  0.6663874  )
        93           Ga  tau(  93) = (  0.2666666  0.1333334  0.9997208  )
        94           Ga  tau(  94) = (  0.2666666  0.3333334  0.3330541  )
        95           Ga  tau(  95) = (  0.2666666  0.3333334  0.6663874  )
        96           Ga  tau(  96) = (  0.2666666  0.3333334  0.9997208  )
        97           Ga  tau(  97) = (  0.2666666  0.5333334  0.3330541  )
        98           Ga  tau(  98) = (  0.2666666  0.5333334  0.6663874  )
        99           Ga  tau(  99) = (  0.2666666  0.5333334  0.9997208  )
       100           Ga  tau( 100) = (  0.2666666  0.7333334  0.3330541  )
       101           Ga  tau( 101) = (  0.2666666  0.7333334  0.6663874  )
       102           Ga  tau( 102) = (  0.2666666  0.7333334  0.9997208  )
       103           Ga  tau( 103) = (  0.2666666  0.9333334  0.3330541  )
       104           Ga  tau( 104) = (  0.2666666  0.9333334  0.6663874  )
       105           Ga  tau( 105) = (  0.2666666  0.9333334  0.9997208  )
       106           Ga  tau( 106) = (  0.4666666  0.1333334  0.3330541  )
       107           Ga  tau( 107) = (  0.4666666  0.1333334  0.6663874  )
       108           Ga  tau( 108) = (  0.4666666  0.1333334  0.9997208  )
       109           Ga  tau( 109) = (  0.4666666  0.3333334  0.3330541  )
       110           Ga  tau( 110) = (  0.4666666  0.3333334  0.6663874  )
       111           Ga  tau( 111) = (  0.4666666  0.3333334  0.9997208  )
       112           Ga  tau( 112) = (  0.4666666  0.5333334  0.3330541  )
       113           Ga  tau( 113) = (  0.4666666  0.5333334  0.6663874  )
       114           Ga  tau( 114) = (  0.4666666  0.5333334  0.9997208  )
       115           Ga  tau( 115) = (  0.4666666  0.7333334  0.3330541  )
       116           Ga  tau( 116) = (  0.4666666  0.7333334  0.6663874  )
       117           Ga  tau( 117) = (  0.4666666  0.7333334  0.9997208  )
       118           Ga  tau( 118) = (  0.4666666  0.9333334  0.3330541  )
       119           Ga  tau( 119) = (  0.4666666  0.9333334  0.6663874  )
       120           Ga  tau( 120) = (  0.4666666  0.9333334  0.9997208  )
       121           Ga  tau( 121) = (  0.6666666  0.1333334  0.3330541  )
       122           Ga  tau( 122) = (  0.6666666  0.1333334  0.6663874  )
       123           Ga  tau( 123) = (  0.6666666  0.1333334  0.9997208  )
       124           Ga  tau( 124) = (  0.6666666  0.3333334  0.3330541  )
       125           Ga  tau( 125) = (  0.6666666  0.3333334  0.6663874  )
       126           Ga  tau( 126) = (  0.6666666  0.3333334  0.9997208  )
       127           Ga  tau( 127) = (  0.6666666  0.5333334  0.3330541  )
       128           Ga  tau( 128) = (  0.6666666  0.5333334  0.6663874  )
       129           Ga  tau( 129) = (  0.6666666  0.5333334  0.9997208  )
       130           Ga  tau( 130) = (  0.6666666  0.7333334  0.3330541  )
       131           Ga  tau( 131) = (  0.6666666  0.7333334  0.6663874  )
       132           Ga  tau( 132) = (  0.6666666  0.7333334  0.9997208  )
       133           Ga  tau( 133) = (  0.6666666  0.9333334  0.3330541  )
       134           Ga  tau( 134) = (  0.6666666  0.9333334  0.6663874  )
       135           Ga  tau( 135) = (  0.6666666  0.9333334  0.9997208  )
       136           Ga  tau( 136) = (  0.8666666  0.1333334  0.3330541  )
       137           Ga  tau( 137) = (  0.8666666  0.1333334  0.6663874  )
       138           Ga  tau( 138) = (  0.8666666  0.1333334  0.9997208  )
       139           Ga  tau( 139) = (  0.8666666  0.3333334  0.3330541  )
       140           Ga  tau( 140) = (  0.8666666  0.3333334  0.6663874  )
       141           Ga  tau( 141) = (  0.8666666  0.3333334  0.9997208  )
       142           Ga  tau( 142) = (  0.8666666  0.5333334  0.3330541  )
       143           Ga  tau( 143) = (  0.8666666  0.5333334  0.6663874  )
       144           Ga  tau( 144) = (  0.8666666  0.5333334  0.9997208  )
       145           Ga  tau( 145) = (  0.8666666  0.7333334  0.3330541  )
       146           Ga  tau( 146) = (  0.8666666  0.7333334  0.6663874  )
       147           Ga  tau( 147) = (  0.8666666  0.7333334  0.9997208  )
       148           Ga  tau( 148) = (  0.8666666  0.9333334  0.3330541  )
       149           Ga  tau( 149) = (  0.8666666  0.9333334  0.6663874  )
       150           Ga  tau( 150) = (  0.8666666  0.9333334  0.9997208  )
       151           N   tau( 151) = (  0.1333334  0.0666666  0.6252792  )
       152           N   tau( 152) = (  0.1333334  0.0666666  0.9586126  )
       153           N   tau( 153) = (  0.1333334  0.2666666  0.2919459  )
       154           N   tau( 154) = (  0.1333334  0.2666666  0.6252792  )
       155           N   tau( 155) = (  0.1333334  0.2666666  0.9586126  )
       156           N   tau( 156) = (  0.1333334  0.4666666  0.2919459  )
       157           N   tau( 157) = (  0.1333334  0.4666666  0.6252792  )
       158           N   tau( 158) = (  0.1333334  0.4666666  0.9586126  )
       159           N   tau( 159) = (  0.1333334  0.6666666  0.2919459  )
       160           N   tau( 160) = (  0.1333334  0.6666666  0.6252792  )
       161           N   tau( 161) = (  0.1333334  0.6666666  0.9586126  )
       162           N   tau( 162) = (  0.1333334  0.8666666  0.2919459  )
       163           N   tau( 163) = (  0.1333334  0.8666666  0.6252792  )
       164           N   tau( 164) = (  0.1333334  0.8666666  0.9586126  )
       165           N   tau( 165) = (  0.3333334  0.0666666  0.2919459  )
       166           N   tau( 166) = (  0.3333334  0.0666666  0.6252792  )
       167           N   tau( 167) = (  0.3333334  0.0666666  0.9586126  )
       168           N   tau( 168) = (  0.3333334  0.2666666  0.2919459  )
       169           N   tau( 169) = (  0.3333334  0.2666666  0.6252792  )
       170           N   tau( 170) = (  0.3333334  0.2666666  0.9586126  )
       171           N   tau( 171) = (  0.3333334  0.4666666  0.2919459  )
       172           N   tau( 172) = (  0.3333334  0.4666666  0.6252792  )
       173           N   tau( 173) = (  0.3333334  0.4666666  0.9586126  )
       174           N   tau( 174) = (  0.3333334  0.6666666  0.2919459  )
       175           N   tau( 175) = (  0.3333334  0.6666666  0.6252792  )
       176           N   tau( 176) = (  0.3333334  0.6666666  0.9586126  )
       177           N   tau( 177) = (  0.3333334  0.8666666  0.2919459  )
       178           N   tau( 178) = (  0.3333334  0.8666666  0.6252792  )
       179           N   tau( 179) = (  0.3333334  0.8666666  0.9586126  )
       180           N   tau( 180) = (  0.5333334  0.0666666  0.2919459  )
       181           N   tau( 181) = (  0.5333334  0.0666666  0.6252792  )
       182           N   tau( 182) = (  0.5333334  0.0666666  0.9586126  )
       183           N   tau( 183) = (  0.5333334  0.2666666  0.2919459  )
       184           N   tau( 184) = (  0.5333334  0.2666666  0.6252792  )
       185           N   tau( 185) = (  0.5333334  0.2666666  0.9586126  )
       186           N   tau( 186) = (  0.5333334  0.4666666  0.2919459  )
       187           N   tau( 187) = (  0.5333334  0.4666666  0.6252792  )
       188           N   tau( 188) = (  0.5333334  0.4666666  0.9586126  )
       189           N   tau( 189) = (  0.5333334  0.6666666  0.2919459  )
       190           N   tau( 190) = (  0.5333334  0.6666666  0.6252792  )
       191           N   tau( 191) = (  0.5333334  0.6666666  0.9586126  )
       192           N   tau( 192) = (  0.5333334  0.8666666  0.2919459  )
       193           N   tau( 193) = (  0.5333334  0.8666666  0.6252792  )
       194           N   tau( 194) = (  0.5333334  0.8666666  0.9586126  )
       195           N   tau( 195) = (  0.7333334  0.0666666  0.2919459  )
       196           N   tau( 196) = (  0.7333334  0.0666666  0.6252792  )
       197           N   tau( 197) = (  0.7333334  0.0666666  0.9586126  )
       198           N   tau( 198) = (  0.7333334  0.2666666  0.2919459  )
       199           N   tau( 199) = (  0.7333334  0.2666666  0.6252792  )
       200           N   tau( 200) = (  0.7333334  0.2666666  0.9586126  )
       201           N   tau( 201) = (  0.7333334  0.4666666  0.2919459  )
       202           N   tau( 202) = (  0.7333334  0.4666666  0.6252792  )
       203           N   tau( 203) = (  0.7333334  0.4666666  0.9586126  )
       204           N   tau( 204) = (  0.7333334  0.6666666  0.2919459  )
       205           N   tau( 205) = (  0.7333334  0.6666666  0.6252792  )
       206           N   tau( 206) = (  0.7333334  0.6666666  0.9586126  )
       207           N   tau( 207) = (  0.7333334  0.8666666  0.2919459  )
       208           N   tau( 208) = (  0.7333334  0.8666666  0.6252792  )
       209           N   tau( 209) = (  0.7333334  0.8666666  0.9586126  )
       210           N   tau( 210) = (  0.9333334  0.0666666  0.2919459  )
       211           N   tau( 211) = (  0.9333334  0.0666666  0.6252792  )
       212           N   tau( 212) = (  0.9333334  0.0666666  0.9586126  )
       213           N   tau( 213) = (  0.9333334  0.2666666  0.2919459  )
       214           N   tau( 214) = (  0.9333334  0.2666666  0.6252792  )
       215           N   tau( 215) = (  0.9333334  0.2666666  0.9586126  )
       216           N   tau( 216) = (  0.9333334  0.4666666  0.2919459  )
       217           N   tau( 217) = (  0.9333334  0.4666666  0.6252792  )
       218           N   tau( 218) = (  0.9333334  0.4666666  0.9586126  )
       219           N   tau( 219) = (  0.9333334  0.6666666  0.2919459  )
       220           N   tau( 220) = (  0.9333334  0.6666666  0.6252792  )
       221           N   tau( 221) = (  0.9333334  0.6666666  0.9586126  )
       222           N   tau( 222) = (  0.9333334  0.8666666  0.2919459  )
       223           N   tau( 223) = (  0.9333334  0.8666666  0.6252792  )
       224           N   tau( 224) = (  0.9333334  0.8666666  0.9586126  )
       225           N   tau( 225) = (  0.0666666  0.1333334  0.1252792  )
       226           N   tau( 226) = (  0.0666666  0.1333334  0.4586126  )
       227           N   tau( 227) = (  0.0666666  0.1333334  0.7919459  )
       228           N   tau( 228) = (  0.0666666  0.3333334  0.1252792  )
       229           N   tau( 229) = (  0.0666666  0.3333334  0.4586126  )
       230           N   tau( 230) = (  0.0666666  0.3333334  0.7919459  )
       231           N   tau( 231) = (  0.0666666  0.5333334  0.1252792  )
       232           N   tau( 232) = (  0.0666666  0.5333334  0.4586126  )
       233           N   tau( 233) = (  0.0666666  0.5333334  0.7919459  )
       234           N   tau( 234) = (  0.0666666  0.7333334  0.1252792  )
       235           N   tau( 235) = (  0.0666666  0.7333334  0.4586126  )
       236           N   tau( 236) = (  0.0666666  0.7333334  0.7919459  )
       237           N   tau( 237) = (  0.0666666  0.9333334  0.1252792  )
       238           N   tau( 238) = (  0.0666666  0.9333334  0.4586126  )
       239           N   tau( 239) = (  0.0666666  0.9333334  0.7919459  )
       240           N   tau( 240) = (  0.2666666  0.1333334  0.1252792  )
       241           N   tau( 241) = (  0.2666666  0.1333334  0.4586126  )
       242           N   tau( 242) = (  0.2666666  0.1333334  0.7919459  )
       243           N   tau( 243) = (  0.2666666  0.3333334  0.1252792  )
       244           N   tau( 244) = (  0.2666666  0.3333334  0.4586126  )
       245           N   tau( 245) = (  0.2666666  0.3333334  0.7919459  )
       246           N   tau( 246) = (  0.2666666  0.5333334  0.1252792  )
       247           N   tau( 247) = (  0.2666666  0.5333334  0.4586126  )
       248           N   tau( 248) = (  0.2666666  0.5333334  0.7919459  )
       249           N   tau( 249) = (  0.2666666  0.7333334  0.1252792  )
       250           N   tau( 250) = (  0.2666666  0.7333334  0.4586126  )
       251           N   tau( 251) = (  0.2666666  0.7333334  0.7919459  )
       252           N   tau( 252) = (  0.2666666  0.9333334  0.1252792  )
       253           N   tau( 253) = (  0.2666666  0.9333334  0.4586126  )
       254           N   tau( 254) = (  0.2666666  0.9333334  0.7919459  )
       255           N   tau( 255) = (  0.4666666  0.1333334  0.1252792  )
       256           N   tau( 256) = (  0.4666666  0.1333334  0.4586126  )
       257           N   tau( 257) = (  0.4666666  0.1333334  0.7919459  )
       258           N   tau( 258) = (  0.4666666  0.3333334  0.1252792  )
       259           N   tau( 259) = (  0.4666666  0.3333334  0.4586126  )
       260           N   tau( 260) = (  0.4666666  0.3333334  0.7919459  )
       261           N   tau( 261) = (  0.4666666  0.5333334  0.1252792  )
       262           N   tau( 262) = (  0.4666666  0.5333334  0.4586126  )
       263           N   tau( 263) = (  0.4666666  0.5333334  0.7919459  )
       264           N   tau( 264) = (  0.4666666  0.7333334  0.1252792  )
       265           N   tau( 265) = (  0.4666666  0.7333334  0.4586126  )
       266           N   tau( 266) = (  0.4666666  0.7333334  0.7919459  )
       267           N   tau( 267) = (  0.4666666  0.9333334  0.1252792  )
       268           N   tau( 268) = (  0.4666666  0.9333334  0.4586126  )
       269           N   tau( 269) = (  0.4666666  0.9333334  0.7919459  )
       270           N   tau( 270) = (  0.6666666  0.1333334  0.1252792  )
       271           N   tau( 271) = (  0.6666666  0.1333334  0.4586126  )
       272           N   tau( 272) = (  0.6666666  0.1333334  0.7919459  )
       273           N   tau( 273) = (  0.6666666  0.3333334  0.1252792  )
       274           N   tau( 274) = (  0.6666666  0.3333334  0.4586126  )
       275           N   tau( 275) = (  0.6666666  0.3333334  0.7919459  )
       276           N   tau( 276) = (  0.6666666  0.5333334  0.1252792  )
       277           N   tau( 277) = (  0.6666666  0.5333334  0.4586126  )
       278           N   tau( 278) = (  0.6666666  0.5333334  0.7919459  )
       279           N   tau( 279) = (  0.6666666  0.7333334  0.1252792  )
       280           N   tau( 280) = (  0.6666666  0.7333334  0.4586126  )
       281           N   tau( 281) = (  0.6666666  0.7333334  0.7919459  )
       282           N   tau( 282) = (  0.6666666  0.9333334  0.1252792  )
       283           N   tau( 283) = (  0.6666666  0.9333334  0.4586126  )
       284           N   tau( 284) = (  0.6666666  0.9333334  0.7919459  )
       285           N   tau( 285) = (  0.8666666  0.1333334  0.1252792  )
       286           N   tau( 286) = (  0.8666666  0.1333334  0.4586126  )
       287           N   tau( 287) = (  0.8666666  0.1333334  0.7919459  )
       288           N   tau( 288) = (  0.8666666  0.3333334  0.1252792  )
       289           N   tau( 289) = (  0.8666666  0.3333334  0.4586126  )
       290           N   tau( 290) = (  0.8666666  0.3333334  0.7919459  )
       291           N   tau( 291) = (  0.8666666  0.5333334  0.1252792  )
       292           N   tau( 292) = (  0.8666666  0.5333334  0.4586126  )
       293           N   tau( 293) = (  0.8666666  0.5333334  0.7919459  )
       294           N   tau( 294) = (  0.8666666  0.7333334  0.1252792  )
       295           N   tau( 295) = (  0.8666666  0.7333334  0.4586126  )
       296           N   tau( 296) = (  0.8666666  0.7333334  0.7919459  )
       297           N   tau( 297) = (  0.8666666  0.9333334  0.1252792  )
       298           N   tau( 298) = (  0.8666666  0.9333334  0.4586126  )
       299           N   tau( 299) = (  0.8666666  0.9333334  0.7919459  )
       300           Ga  tau( 300) = (  0.1333334  0.0666666  0.2919459  )

     number of k points=     6  Gaussian smearing, width (Ry)=  0.0100
                       cart. coord. in units 2pi/alat
        k(    1) = (   0.0000000   0.0000000   0.0000000), wk =   0.2500000
        k(    2) = (   0.0000000   0.0000000  -0.5112854), wk =   0.2500000
        k(    3) = (   0.0000000  -0.5773503   0.0000000), wk =   0.5000000
        k(    4) = (   0.0000000  -0.5773503  -0.5112854), wk =   0.5000000
        k(    5) = (  -0.5000000  -0.2886751   0.0000000), wk =   0.2500000
        k(    6) = (  -0.5000000  -0.2886751  -0.5112854), wk =   0.2500000

                       cryst. coord.
        k(    1) = (   0.0000000   0.0000000   0.0000000), wk =   0.2500000
        k(    2) = (   0.0000000   0.0000000  -0.5000000), wk =   0.2500000
        k(    3) = (   0.0000000  -0.5000000   0.0000000), wk =   0.5000000
        k(    4) = (   0.0000000  -0.5000000  -0.5000000), wk =   0.5000000
        k(    5) = (  -0.5000000  -0.0000000   0.0000000), wk =   0.2500000
        k(    6) = (  -0.5000000  -0.0000000  -0.5000000), wk =   0.2500000

     Dense  grid:  2698283 G-vectors     FFT dimensions: ( 192, 192, 180)

     Smooth grid:  1930731 G-vectors     FFT dimensions: ( 180, 180, 160)

     Dynamical RAM for                 wfc:      93.42 MB

     Dynamical RAM for     wfc (w. buffer):     280.26 MB

     Dynamical RAM for           str. fact:       1.29 MB

     Dynamical RAM for           local pot:       0.00 MB

     Dynamical RAM for          nlocal pot:     224.93 MB

     Dynamical RAM for                qrad:       3.00 MB

     Dynamical RAM for          rho,v,vnew:       4.46 MB

     Dynamical RAM for               rhoin:       1.49 MB

     Dynamical RAM for            rho*nmix:      10.29 MB

     Dynamical RAM for           G-vectors:       2.64 MB

     Dynamical RAM for          h,s,v(r/c):    1931.67 MB

     Dynamical RAM for          <psi|beta>:      96.89 MB

     Dynamical RAM for                 psi:     373.69 MB

     Dynamical RAM for                hpsi:     373.69 MB

     Dynamical RAM for                spsi:     373.69 MB

     Dynamical RAM for      wfcinit/wfcrot:     247.22 MB

     Dynamical RAM for           addusdens:      54.68 MB

     Dynamical RAM for          addusforce:     103.36 MB

     Dynamical RAM for         addusstress:      32.57 MB

     Estimated static dynamical RAM per process >     524.22 MB

     Estimated max dynamical RAM per process >       3.60 GB

     Estimated total dynamical RAM >     919.10 GB

     Atomic positions and unit cell read from directory:
     ./GaN.save/
     Atomic positions from file used, from input discarded
 

     Check: negative core charge=   -0.000003

     The initial density is read from file :
     ./GaN.save/charge-density


     starting charge    2707.0000, renormalised to    2706.0000


     %%%%%%%%%%%%%%%%%%%%%%%%%%%%%%%%%%%%%%%%%%%%%%%%%%%%%%%%%%%%%%%%%%%%%%%%
     %                                                                      %
     % You are using vdW-DF, which was implemented by the Thonhauser group. %
     % Please cite the following two papers that made this development      %
     % possible and the two reviews that describe the various versions:     %
     %                                                                      %
     %   T. Thonhauser et al., PRL 115, 136402 (2015).                      %
     %   T. Thonhauser et al., PRB 76, 125112 (2007).                       %
     %   K. Berland et al., Rep. Prog. Phys. 78, 066501 (2015).             %
     %   D.C. Langreth et al., J. Phys.: Condens. Matter 21, 084203 (2009). %
     %                                                                      %
     % If you are calculating stress with vdW-DF, please also cite:         %
     %                                                                      %
     %   R. Sabatini et al., J. Phys.: Condens. Matter 24, 424209 (2012).   %
     %                                                                      %
     %%%%%%%%%%%%%%%%%%%%%%%%%%%%%%%%%%%%%%%%%%%%%%%%%%%%%%%%%%%%%%%%%%%%%%%%

     %%%%%%%%%%%%%%%%%%%%%%%%%%%%%%%%%%%%%%%%%%%%%%%%%%%%%%%%%%%%%%%%%%%%%%%%
     %                                                                      %
     %  vdW-DF NEWS:                                                        %
     %                                                                      %
     %  * vdW-DF3 is now available. DOI: 10.1021/acs.jctc.0c00471           %
     %    use with input_dft = 'vdW-DF3-opt1' or 'vdW-DF3-opt2'             %
     %                                                                      %
     %  * Unscreened and range-separated vdW-DF hybrid functionals          %
     %    DOI: 10.1063/1.4986522 and 10.1088/1361-648X/ac2ad2               %
     %    use with input_dft = 'vdW-DF-cx0' (etc) and 'vdW-DF-ahcx'         %
     %                                                                      %
     %%%%%%%%%%%%%%%%%%%%%%%%%%%%%%%%%%%%%%%%%%%%%%%%%%%%%%%%%%%%%%%%%%%%%%%%


     Carrying out vdW-DF run using the following parameters:
     Nqs    =  20  Npoints =  1024  r_max =  100.000
     q_mesh =  0.00001000  0.04494208  0.09755937  0.15916263
               0.23128650  0.31572767  0.41458969  0.53033537
               0.66584808  0.82450364  1.01025438  1.22772762
               1.48234092  1.78043706  2.12944203  2.53805004
               3.01644009  3.57652955  4.23227104  5.00000000


     -----------------------------------------------
     Non-local corr. energy    =      82.09847616 Ry
     -----------------------------------------------

     Wavefunctions not found or not readable, recomputing them from scratch
     Starting wfcs are 1955 randomized atomic wfcs
     Checking if some PAW data can be deallocated... 
       PAW data deallocated on  149 nodes for type:  1
       PAW data deallocated on  107 nodes for type:  2

     total cpu time spent up to now is      120.3 secs

     Self-consistent Calculation

     iteration #  1     ecut=    70.00 Ry     beta= 0.70
     Davidson diagonalization with overlap

---- Real-time Memory Report at c_bands before calling an iterative solver
          1255 MiB given to the printing process from OS
             0 MiB allocation reported by mallinfo(arena+hblkhd)
       1720280 MiB available memory on the node where the printing process lives
------------------
     ethr =  1.00E-05,  avg # of iterations = 28.2


     -----------------------------------------------
     Non-local corr. energy    =      82.16572774 Ry
     -----------------------------------------------


     total cpu time spent up to now is     3825.7 secs

     total energy              =  -47098.87310508 Ry
     estimated scf accuracy    <       0.10682698 Ry

     iteration #  2     ecut=    70.00 Ry     beta= 0.70
     Davidson diagonalization with overlap

---- Real-time Memory Report at c_bands before calling an iterative solver
          3617 MiB given to the printing process from OS
             0 MiB allocation reported by mallinfo(arena+hblkhd)
       1720785 MiB available memory on the node where the printing process lives
------------------
     ethr =  3.95E-06,  avg # of iterations = 11.5


     -----------------------------------------------
     Non-local corr. energy    =      82.15444106 Ry
     -----------------------------------------------


     total cpu time spent up to now is     6654.9 secs

     total energy              =  -47098.51054483 Ry
     estimated scf accuracy    <       4.39546313 Ry

     iteration #  3     ecut=    70.00 Ry     beta= 0.70
     Davidson diagonalization with overlap

---- Real-time Memory Report at c_bands before calling an iterative solver
          3617 MiB given to the printing process from OS
             0 MiB allocation reported by mallinfo(arena+hblkhd)
       1700073 MiB available memory on the node where the printing process lives
------------------
     ethr =  3.95E-06,  avg # of iterations = 13.5


     -----------------------------------------------
     Non-local corr. energy    =      82.14157811 Ry
     -----------------------------------------------


     total cpu time spent up to now is     9290.4 secs

     total energy              =  -47098.94454933 Ry
     estimated scf accuracy    <       0.07873154 Ry

     iteration #  4     ecut=    70.00 Ry     beta= 0.70
     Davidson diagonalization with overlap

---- Real-time Memory Report at c_bands before calling an iterative solver
          3617 MiB given to the printing process from OS
             0 MiB allocation reported by mallinfo(arena+hblkhd)
       1699948 MiB available memory on the node where the printing process lives
------------------
     ethr =  2.91E-06,  avg # of iterations = 16.0


     -----------------------------------------------
     Non-local corr. energy    =      82.13203068 Ry
     -----------------------------------------------


     total cpu time spent up to now is    11234.7 secs

     total energy              =  -47098.94800730 Ry
     estimated scf accuracy    <       0.03331953 Ry

     iteration #  5     ecut=    70.00 Ry     beta= 0.70
     Davidson diagonalization with overlap

---- Real-time Memory Report at c_bands before calling an iterative solver
          3617 MiB given to the printing process from OS
             0 MiB allocation reported by mallinfo(arena+hblkhd)
       1699799 MiB available memory on the node where the printing process lives
------------------
     ethr =  1.23E-06,  avg # of iterations = 17.5


     -----------------------------------------------
     Non-local corr. energy    =      82.12681329 Ry
     -----------------------------------------------


     total cpu time spent up to now is    13079.9 secs

     total energy              =  -47098.94827285 Ry
     estimated scf accuracy    <       0.02098289 Ry

     iteration #  6     ecut=    70.00 Ry     beta= 0.70
     Davidson diagonalization with overlap

---- Real-time Memory Report at c_bands before calling an iterative solver
          3617 MiB given to the printing process from OS
             0 MiB allocation reported by mallinfo(arena+hblkhd)
       1699647 MiB available memory on the node where the printing process lives
------------------
     ethr =  7.75E-07,  avg # of iterations = 13.8


     -----------------------------------------------
     Non-local corr. energy    =      82.11965947 Ry
     -----------------------------------------------


     total cpu time spent up to now is    14311.0 secs

     total energy              =  -47098.94636818 Ry
     estimated scf accuracy    <       0.01351709 Ry

     iteration #  7     ecut=    70.00 Ry     beta= 0.70
     Davidson diagonalization with overlap

---- Real-time Memory Report at c_bands before calling an iterative solver
          3617 MiB given to the printing process from OS
             0 MiB allocation reported by mallinfo(arena+hblkhd)
       1699503 MiB available memory on the node where the printing process lives
------------------
     ethr =  5.00E-07,  avg # of iterations = 16.2


     -----------------------------------------------
     Non-local corr. energy    =      82.11774658 Ry
     -----------------------------------------------


     total cpu time spent up to now is    16192.3 secs

     total energy              =  -47098.94592067 Ry
     estimated scf accuracy    <       0.00411245 Ry

     iteration #  8     ecut=    70.00 Ry     beta= 0.70
     Davidson diagonalization with overlap

---- Real-time Memory Report at c_bands before calling an iterative solver
          3617 MiB given to the printing process from OS
             0 MiB allocation reported by mallinfo(arena+hblkhd)
       1699328 MiB available memory on the node where the printing process lives
------------------
     ethr =  1.52E-07,  avg # of iterations = 16.7


     -----------------------------------------------
     Non-local corr. energy    =      82.12098196 Ry
     -----------------------------------------------


     total cpu time spent up to now is    18411.9 secs

     total energy              =  -47098.94631713 Ry
     estimated scf accuracy    <       0.00045199 Ry

     iteration #  9     ecut=    70.00 Ry     beta= 0.70
     Davidson diagonalization with overlap

---- Real-time Memory Report at c_bands before calling an iterative solver
          3617 MiB given to the printing process from OS
             0 MiB allocation reported by mallinfo(arena+hblkhd)
       1699172 MiB available memory on the node where the printing process lives
------------------
     ethr =  1.67E-08,  avg # of iterations = 14.0


     -----------------------------------------------
     Non-local corr. energy    =      82.12635411 Ry
     -----------------------------------------------


     total cpu time spent up to now is    21588.9 secs

     total energy              =  -47098.94641136 Ry
     estimated scf accuracy    <       0.00035581 Ry

     iteration # 10     ecut=    70.00 Ry     beta= 0.70
     Davidson diagonalization with overlap

---- Real-time Memory Report at c_bands before calling an iterative solver
          3617 MiB given to the printing process from OS
             0 MiB allocation reported by mallinfo(arena+hblkhd)
       1699018 MiB available memory on the node where the printing process lives
------------------
     ethr =  1.31E-08,  avg # of iterations = 12.5


     -----------------------------------------------
     Non-local corr. energy    =      82.13524363 Ry
     -----------------------------------------------


     total cpu time spent up to now is    22984.1 secs

     total energy              =  -47098.94640690 Ry
     estimated scf accuracy    <       0.00026775 Ry

     iteration # 11     ecut=    70.00 Ry     beta= 0.70
     Davidson diagonalization with overlap

---- Real-time Memory Report at c_bands before calling an iterative solver
          3617 MiB given to the printing process from OS
             0 MiB allocation reported by mallinfo(arena+hblkhd)
       1698995 MiB available memory on the node where the printing process lives
------------------
     ethr =  9.89E-09,  avg # of iterations = 13.0


     -----------------------------------------------
     Non-local corr. energy    =      82.13853027 Ry
     -----------------------------------------------


     total cpu time spent up to now is    24441.0 secs

     total energy              =  -47098.94633356 Ry
     estimated scf accuracy    <       0.00034488 Ry

     iteration # 12     ecut=    70.00 Ry     beta= 0.70
     Davidson diagonalization with overlap

---- Real-time Memory Report at c_bands before calling an iterative solver
          3617 MiB given to the printing process from OS
             0 MiB allocation reported by mallinfo(arena+hblkhd)
       1698989 MiB available memory on the node where the printing process lives
------------------
     ethr =  9.89E-09,  avg # of iterations = 14.8


     -----------------------------------------------
     Non-local corr. energy    =      82.13324854 Ry
     -----------------------------------------------


     total cpu time spent up to now is    26757.5 secs

     total energy              =  -47098.94638309 Ry
     estimated scf accuracy    <       0.00008571 Ry

     iteration # 13     ecut=    70.00 Ry     beta= 0.70
     Davidson diagonalization with overlap

---- Real-time Memory Report at c_bands before calling an iterative solver
          3617 MiB given to the printing process from OS
             0 MiB allocation reported by mallinfo(arena+hblkhd)
       1698940 MiB available memory on the node where the printing process lives
------------------
     ethr =  3.17E-09,  avg # of iterations = 14.7


     -----------------------------------------------
     Non-local corr. energy    =      82.13178059 Ry
     -----------------------------------------------


     total cpu time spent up to now is    28958.2 secs

     total energy              =  -47098.94639027 Ry
     estimated scf accuracy    <       0.00001897 Ry

     iteration # 14     ecut=    70.00 Ry     beta= 0.70
     Davidson diagonalization with overlap

---- Real-time Memory Report at c_bands before calling an iterative solver
          3617 MiB given to the printing process from OS
             0 MiB allocation reported by mallinfo(arena+hblkhd)
       1698932 MiB available memory on the node where the printing process lives
------------------
     ethr =  7.01E-10,  avg # of iterations = 17.2


     -----------------------------------------------
     Non-local corr. energy    =      82.13036701 Ry
     -----------------------------------------------


     total cpu time spent up to now is    31085.9 secs

     total energy              =  -47098.94639086 Ry
     estimated scf accuracy    <       0.00000663 Ry

     iteration # 15     ecut=    70.00 Ry     beta= 0.70
     Davidson diagonalization with overlap

---- Real-time Memory Report at c_bands before calling an iterative solver
          3617 MiB given to the printing process from OS
             0 MiB allocation reported by mallinfo(arena+hblkhd)
       1698909 MiB available memory on the node where the printing process lives
------------------
     ethr =  2.45E-10,  avg # of iterations = 15.7


     -----------------------------------------------
     Non-local corr. energy    =      82.13001726 Ry
     -----------------------------------------------


     total cpu time spent up to now is    33310.3 secs

     total energy              =  -47098.94639179 Ry
     estimated scf accuracy    <       0.00000065 Ry

     iteration # 16     ecut=    70.00 Ry     beta= 0.70
     Davidson diagonalization with overlap

---- Real-time Memory Report at c_bands before calling an iterative solver
          3617 MiB given to the printing process from OS
             0 MiB allocation reported by mallinfo(arena+hblkhd)
       1698885 MiB available memory on the node where the printing process lives
------------------
     ethr =  2.39E-11,  avg # of iterations = 11.5


     -----------------------------------------------
     Non-local corr. energy    =      82.12982831 Ry
     -----------------------------------------------


     total cpu time spent up to now is    36939.9 secs

     total energy              =  -47098.94639203 Ry
     estimated scf accuracy    <       0.00000042 Ry

     iteration # 17     ecut=    70.00 Ry     beta= 0.70
     Davidson diagonalization with overlap

---- Real-time Memory Report at c_bands before calling an iterative solver
          3617 MiB given to the printing process from OS
             0 MiB allocation reported by mallinfo(arena+hblkhd)
       1698872 MiB available memory on the node where the printing process lives
------------------
     ethr =  1.56E-11,  avg # of iterations = 16.7


     -----------------------------------------------
     Non-local corr. energy    =      82.12995433 Ry
     -----------------------------------------------


     total cpu time spent up to now is    39084.2 secs

     End of self-consistent calculation

          k = 0.0000 0.0000 0.0000 (241213 PWs)   bands (ev):

    -7.0335  -6.9394  -6.9334  -6.8804  -6.8420  -6.8411  -6.8054  -6.8026
    -6.7841  -6.7407  -6.6838  -6.6223  -6.6194  -6.5913  -6.5658  -6.5658
    -6.5561  -6.5533  -6.5504  -6.5396  -6.5391  -6.5281  -6.4788  -6.4686
    -6.4676  -6.4607  -6.4543  -6.4472  -6.4471  -6.4437  -6.4430  -6.4218
    -6.4215  -6.4181  -6.4167  -6.4166  -6.4164  -6.4073  -6.4058  -6.4055
    -6.4020  -6.4008  -6.3992  -6.3882  -6.3806  -6.3794  -6.3787  -6.3746
    -6.3704  -6.3704  -6.3642  -6.3637  -6.3636  -6.3611  -6.3510  -6.3507
    -6.3499  -6.3418  -6.3414  -6.3368  -6.3332  -6.3298  -6.3289  -6.3243
    -6.3224  -6.3120  -6.3116  -6.3108  -6.3082  -6.3081  -6.3023  -6.3021
    -6.2988  -6.2985  -6.2889  -6.2888  -6.2886  -6.2823  -6.2790  -6.2747
    -6.2740  -6.2717  -6.2715  -6.2709  -6.2649  -6.2632  -6.2630  -6.2624
    -6.2554  -6.2551  -6.2543  -6.2499  -6.2498  -6.2458  -6.2458  -6.2430
    -6.2413  -6.2412  -6.2389  -6.2384  -6.2383  -6.2378  -6.2360  -6.2358
    -6.2350  -6.2322  -6.2311  -6.2308  -6.2304  -6.2251  -6.2233  -6.2231
    -6.2191  -6.2173  -6.2167  -6.2160  -6.2144  -6.2141  -6.2079  -6.2077
    -6.2064  -6.2055  -6.2050  -6.2009  -6.1998  -6.1985  -6.1983  -6.1914
    -6.1909  -6.1907  -6.1900  -6.1899  -6.1886  -6.1869  -6.1811  -6.1792
    -6.1792  -6.1720  -6.1706  -6.1696  -6.1675  -6.1637  -6.1627  -6.1575
    -6.1567  -6.1528  -6.1522  -6.1517  -6.1507  -6.1498  -6.1458  -6.1429
    -6.1424  -6.1321  -6.0163  -6.0033  -6.0003  -5.9909  -5.9539  -5.9390
    -5.9332  -5.8386  -5.8298  -5.7369  -5.7316  -5.7180  -5.7074  -5.7035
    -5.6965  -5.4842  -5.4837  -5.4353  -5.4344  -5.4225  -5.4223  -5.4100
    -5.3922  -5.3831  -5.3825  -5.3760  -5.3748  -5.3727  -5.3612  -5.3589
    -5.3588  -5.3448  -5.3438  -5.3421  -5.3394  -5.3393  -5.3380  -5.3258
    -5.3241  -5.3196  -5.3190  -5.3172  -5.3135  -5.3115  -5.3102  -5.3022
    -5.3007  -5.2987  -5.2966  -5.2959  -5.2910  -5.2908  -5.2857  -5.2848
    -5.2813  -5.2809  -5.2756  -5.2756  -5.2735  -5.2721  -5.2720  -5.2698
    -5.2683  -5.2667  -5.2665  -5.2620  -5.2588  -5.2587  -5.2522  -5.2520
    -5.2490  -5.2434  -5.2429  -5.2425  -5.2423  -5.2417  -5.2384  -5.2372
    -5.2361  -5.2320  -5.2311  -5.2299  -5.2246  -5.2235  -5.2234  -5.2220
    -5.2211  -5.2179  -5.2169  -5.2160  -5.2087  -5.2087  -5.2079  -5.2019
    -5.2015  -5.2007  -5.1978  -5.1954  -5.1951  -5.1898  -5.1897  -5.1886
    -5.1885  -5.1829  -5.1828  -5.1801  -5.1798  -5.1791  -5.1778  -5.1736
    -5.1726  -5.1726  -5.1598  -5.1592  -5.1589  -5.1549  -5.1545  -5.1529
    -5.1464  -5.1462  -5.1448  -5.1447  -5.1432  -5.1431  -5.1393  -5.1393
    -5.1389  -5.1366  -5.1306  -5.1305  -5.1293  -5.1278  -5.1278  -5.1270
    -5.1259  -5.1258  -5.1244  -5.1242  -5.1238  -5.1235  -5.1201  -5.1201
    -5.1185  -5.1184  -5.1149  -5.1147  -5.1146  -5.1145  -5.1143  -5.1143
    -5.1140  -5.1115  -5.1113  -5.1093  -5.1092  -5.1069  -5.1069  -5.1059
    -5.1057  -5.1042  -5.1024  -5.1016  -5.1015  -5.1011  -5.0984  -5.0982
    -5.0961  -5.0960  -5.0950  -5.0949  -5.0938  -5.0929  -5.0929  -5.0920
    -5.0904  -5.0897  -5.0896  -5.0889  -5.0889  -5.0869  -5.0869  -5.0866
    -5.0865  -5.0861  -5.0850  -5.0850  -5.0817  -5.0814  -5.0814  -5.0800
    -5.0799  -5.0793  -5.0789  -5.0786  -5.0785  -5.0756  -5.0756  -5.0754
    -5.0750  -5.0749  -5.0749  -5.0745  -5.0730  -5.0729  -5.0722  -5.0719
    -5.0719  -5.0715  -5.0714  -5.0686  -5.0685  -5.0677  -5.0671  -5.0670
    -5.0663  -5.0657  -5.0657  -5.0649  -5.0649  -5.0631  -5.0623  -5.0623
    -5.0608  -5.0608  -5.0582  -5.0574  -5.0573  -5.0566  -5.0564  -5.0564
    -5.0558  -5.0545  -5.0545  -5.0545  -5.0541  -5.0521  -5.0521  -5.0502
    -5.0500  -5.0487  -5.0486  -5.0470  -5.0469  -5.0468  -5.0455  -5.0454
    -5.0443  -5.0442  -5.0431  -5.0430  -5.0422  -5.0421  -5.0418  -5.0400
    -5.0400  -5.0400  -5.0389  -5.0386  -5.0381  -5.0381  -5.0365  -5.0365
    -5.0356  -5.0349  -5.0348  -5.0344  -5.0339  -5.0338  -5.0336  -5.0330
    -5.0324  -5.0324  -5.0313  -5.0312  -5.0308  -5.0293  -5.0286  -5.0281
    -5.0280  -5.0256  -5.0253  -5.0252  -5.0251  -5.0241  -5.0233  -5.0233
    -5.0211  -5.0211  -5.0209  -5.0209  -5.0202  -5.0182  -5.0182  -5.0175
    -5.0173  -5.0172  -5.0171  -5.0156  -5.0153  -5.0152  -5.0131  -5.0129
    -5.0116  -5.0113  -5.0113  -5.0111  -5.0111  -5.0089  -5.0088  -5.0075
    -5.0069  -5.0066  -5.0065  -5.0042  -5.0042  -5.0033  -5.0033  -5.0031
    -5.0016  -5.0015  -5.0014  -5.0013  -5.0008  -4.9999  -4.9998  -4.9991
    -4.9987  -4.9986  -4.9981  -4.9981  -4.9980  -4.9973  -4.9950  -4.9949
    -4.9929  -4.9929  -4.9927  -4.9912  -4.9911  -4.9904  -4.9903  -4.9902
    -4.9895  -4.9893  -4.9892  -4.9881  -4.9881  -4.9865  -4.9864  -4.9863
    -4.9841  -4.9841  -4.9831  -4.9825  -4.9825  -4.9812  -4.9808  -4.9807
    -4.9797  -4.9797  -4.9794  -4.9781  -4.9781  -4.9773  -4.9772  -4.9768
    -4.9767  -4.9752  -4.9752  -4.9751  -4.9741  -4.9738  -4.9738  -4.9730
    -4.9729  -4.9717  -4.9716  -4.9713  -4.9705  -4.9693  -4.9671  -4.9671
    -4.9664  -4.9664  -4.9662  -4.9642  -4.9642  -4.9633  -4.9632  -4.9629
    -4.9629  -4.9618  -4.9618  -4.9611  -4.9593  -4.9593  -4.9571  -4.9570
    -4.9558  -4.9558  -4.9555  -4.9552  -4.9539  -4.9539  -4.9531  -4.9530
    -4.9523  -4.9523  -4.9519  -4.9510  -4.9510  -4.9505  -4.9494  -4.9494
    -4.9492  -4.9481  -4.9477  -4.9476  -4.9467  -4.9467  -4.9457  -4.9455
    -4.9452  -4.9451  -4.9437  -4.9436  -4.9434  -4.9422  -4.9421  -4.9420
    -4.9401  -4.9400  -4.9394  -4.9391  -4.9389  -4.9365  -4.9358  -4.9357
    -4.9355  -4.9355  -4.9329  -4.9328  -4.9321  -4.9319  -4.9318  -4.9313
    -4.9311  -4.9310  -4.9292  -4.9291  -4.9285  -4.9285  -4.9278  -4.9278
    -4.9277  -4.9270  -4.9269  -4.9257  -4.9230  -4.9227  -4.9226  -4.9225
    -4.9220  -4.9210  -4.9209  -4.9204  -4.9204  -4.9181  -4.9180  -4.9180
    -4.9174  -4.9154  -4.9154  -4.9151  -4.9140  -4.9140  -4.9124  -4.9123
    -4.9116  -4.9115  -4.9098  -4.9097  -4.9085  -4.9084  -4.9066  -4.9062
    -4.9062  -4.9050  -4.9050  -4.9050  -4.9045  -4.9043  -4.9043  -4.9042
    -4.9041  -4.9022  -4.9001  -4.9000  -4.9000  -4.8992  -4.8992  -4.8979
    -4.8978  -4.8970  -4.8950  -4.8950  -4.8938  -4.8938  -4.8930  -4.8923
    -4.8908  -4.8904  -4.8904  -4.8895  -4.8894  -4.8888  -4.8883  -4.8882
    -4.8862  -4.8860  -4.8859  -4.8836  -4.8834  -4.8824  -4.8814  -4.8813
    -4.8797  -4.8796  -4.8792  -4.8770  -4.8769  -4.8755  -4.8753  -4.8753
    -4.8747  -4.8745  -4.8734  -4.8733  -4.8723  -4.8711  -4.8706  -4.8705
    -4.8693  -4.8693  -4.8685  -4.8677  -4.8672  -4.8671  -4.8664  -4.8659
    -4.8650  -4.8650  -4.8633  -4.8632  -4.8615  -4.8614  -4.8598  -4.8573
    -4.8556  -4.8556  -4.8537  -4.8536  -4.8518  -4.8517  -4.8504  -4.8500
    -4.8486  -4.8485  -4.8462  -4.8453  -4.8441  -4.8439  -4.8435  -4.8434
    -4.8425  -4.8399  -4.8380  -4.8380  -4.8366  -4.8366  -4.8358  -4.8346
    -4.8334  -4.8332  -4.8329  -4.8326  -4.8325  -4.8286  -4.8286  -4.8269
    -4.8252  -4.8249  -4.8248  -4.8226  -4.8225  -4.8219  -4.8216  -4.8196
    -4.8196  -4.8157  -4.8149  -4.8148  -4.8099  -4.8099  -4.8015  -4.8015
    -4.8004  -4.7944  -4.7943  -4.7936  -4.7400  -4.7230  -4.7227  -4.7198
    -4.7196  -4.6831  -4.6712  -4.6711  -4.6651  -4.6650  -4.6421  -4.6404
    -4.3199  -4.3188  -4.3170  -4.3141  -4.2928  -4.2924  -4.2131  -4.1923
    -4.0805  -4.0797  -4.0565  -4.0563  -4.0389  -4.0385  -4.0339  -4.0198
    -4.0059  -4.0051  -4.0051  -3.9942  -3.9939  -3.9922  -3.9685  -3.9604
    -3.9599  -3.9466  -3.9309  -3.9308  -3.8978  -3.8977  -3.8893  -3.8694
    -3.8692  -3.8396  -3.8395  -3.8241  -3.8154  -3.8092  -3.7688  -3.7685
    -3.7631  -3.7628  -3.7568  -3.7064  -3.7056  -3.7053  -3.7038  -3.7020
    -3.7019  -3.6452  -3.5538  -3.4912  -3.4894  -3.4492  -3.3972  -3.3966
    -3.3737  -3.3734  -3.3455  -3.3406  -3.3403  -3.3344  -3.3190  -3.3168
    -3.3168  -3.3135  -3.2849  -3.2849  -3.2442  -3.2441  -3.2415  -3.2410
    -3.2367  -3.2226  -3.2132  -3.2082  -3.1992  -3.1991  -3.1964  -3.1962
[...]
Ga            9.7331852062        3.7481930779        7.9359510173
Ga            9.7334401091        3.7475113031       13.2181923432
Ga            8.1118344061        6.5559584946        2.6336311994
Ga            8.1126243006        6.5550869032        7.9359510173
Ga            8.1121613177        6.5556485430       13.2181923432
Ga            6.4843282807        9.3624566953        2.6262524391
Ga            6.4776827581        9.3561707794        7.9407787324
Ga            6.4840646998        9.3627017819       13.2206972745
Ga            4.8680434343       12.1767692266        2.6348258111
Ga            4.8507088834       12.1667611189        7.9359645937
Ga            4.8584950299       12.1712564527       13.2241653834
Ga           14.5994634036        0.9444282063        2.6026979808
Ga           14.5506718859        0.9142488012        7.9884453407
Ga           14.5863942535        0.9319787447       13.1910488628
Ga           12.9743391730        3.7495657449        2.6280244910
Ga           12.9687325051        3.7523983632        7.9430214538
Ga           12.9726420670        3.7506134914       13.2198170262
Ga           11.3561988832        6.5565030115        2.6333321448
Ga           11.3550445270        6.5558365436        7.9356799337
Ga           11.3558670792        6.5563114443       13.2179158474
Ga            9.7343900486        9.3613222426        2.6280244910
Ga            9.7340398340        9.3550504166        7.9430214538
Ga            9.7344488706        9.3593286325       13.2198170262
Ga            8.1176317943       12.1712898799        2.6026979808
Ga            8.0670999041       12.1441248886        7.9884453407
Ga            8.1003156693       12.1661963947       13.1910488628
Ga           -0.3277947513        2.0633934403        5.4863252250
Ga           -0.0037904632        1.8746833958       10.5703009831
Ga           -0.0391763136        1.8961084363       15.7529094613
Ga           -1.6677255667        4.7345357590        5.2946278003
Ga           -1.6359609678        4.6941654623       10.5875979087
Ga           -1.6274944780        4.6906620092       15.8490760160
Ga           -3.2475873612        7.4912117519        5.2869582315
Ga           -3.2454534798        7.4924437489       10.5812600453
Ga           -3.2457067677        7.4922975130       15.8558470982
Ga           -4.8450079037       10.2377501967        5.2946278003
Ga           -4.8640873067       10.2854442947       10.5875979087
Ga           -4.8628881412       10.2945282164       15.8490760160
Ga           -6.4883196010       12.7337354816        5.4863252250
Ga           -6.4897451494       13.1086864483       10.5703009831
Ga           -6.4888834452       13.0673288826       15.7529094613
Ga            3.5664314187        2.0590828185        5.4872623543
Ga            3.2482195269        1.8753630971       10.5706983930
Ga            3.2813651810        1.8944997494       15.7543824342
Ga            1.6236049297        4.6981206333        5.3075657416
Ga            1.6226933841        4.7042510811       10.5920706657
Ga            1.6231472098        4.6869292492       15.8427337837
Ga            0.0030034164        7.5004831660        5.2854637356
Ga           -0.0000893203        7.4987336857       10.5799161784
Ga            0.0003968788        7.4966718806       15.8603790910
Ga           -1.6142626922       10.3016702355        5.2854637356
Ga           -1.6173241549       10.2998665871       10.5799161784
Ga           -1.6188666310       10.3013185504       15.8603790910
Ga           -3.2308790794       13.1063335819        5.3075657416
Ga           -3.2260257287       13.1024789363       10.5920706657
Ga           -3.2407999623       13.1115328769       15.8427337837
Ga            6.5553881715        1.8868957485        5.2948515360
Ga            6.5052925211        1.8791894982       10.5880343141
Ga            6.4971693303        1.8738869389       15.8494137271
Ga            4.9117914183        4.7336888324        5.2948515360
Ga            4.8800697845        4.6941578516       10.5880343141
Ga            4.8714160381        4.6897742418       15.8494137271
Ga            3.2419115152        7.4997900641        5.2849462904
Ga            3.2451046436        7.4979667902       10.5797569196
Ga            3.2448750788        7.4959799640       15.8603348237
Ga            1.6215735928       10.3024231394        5.2840995848
Ga            1.6219780171       10.3026566339       10.5759693880
Ga            1.6221512323       10.3027566397       15.8593239512
Ga            0.0045911133       13.1069934806        5.2849462904
Ga            0.0046086760       13.1106704479       10.5797569196
Ga            0.0027732516       13.1114650520       15.8603348237
Ga            9.7332984481        1.8768968668        5.2871643035
Ga            9.7339162190        1.8744601042       10.5815510297
Ga            9.7337649172        1.8748126104       15.8560291588
Ga            8.1239937859        4.6903926782        5.2862453674
Ga            8.1161764777        4.6858793532       10.5786740547
Ga            8.1142779018        4.6847832099       15.8569386048
Ga            6.4920872710        7.4908393038        5.2871643035
Ga            6.4902858581        7.4925926904       10.5815510297
Ga            6.4905154866        7.4922854061       15.8560291588
Ga            4.8583716385       10.3008689336        5.2850817128
Ga            4.8624581727       10.2992043878       10.5799122160
Ga            4.8645132819       10.3009078114       15.8602103348
Ga            3.2386266340       13.1063495769        5.2850817128
Ga            3.2392283622       13.1107208922       10.5799122160
Ga            3.2417311248       13.1116489573       15.8602103348
Ga           12.9091133988        1.8856788489        5.2949771846
Ga           12.9623510858        1.8796730903       10.5881322463
Ga           12.9697990795        1.8744580608       15.8494108765
Ga           11.3457856445        4.6900521263        5.2861612875
Ga           11.3525349164        4.6858330637       10.5787400843
Ga           11.3542074242        4.6848352970       15.8570929192
Ga            9.7345947886        7.4807165495        5.2861612875
Ga            9.7343156092        7.4886711217       10.5787400843
Ga            9.7342877718        7.4906184394       15.8570929192
Ga            8.0876001660       10.2367847378        5.2949771846
Ga            8.1090178700       10.2858928065       10.5881322463
Ga            8.1082255188       10.2949504730       15.8494108765
Ga            6.4764962677       13.1054140528        5.3074040182
Ga            6.4711141613       13.1023066922       10.5920204494
Ga            6.4868862737       13.1114127255       15.8429373738
N             1.6220266536        0.9364760541        9.9081935419
N             1.6213875981        0.9361070953       15.1874459831
N            -0.0105982933        3.7683964334        4.6250085614
N            -0.0017533662        3.7606204165        9.9506001131
N            -0.0026470023        3.7713494735       15.1753894931
N            -1.6221862706        6.5709355198        4.6237478179
N            -1.6223289383        6.5603214229        9.9236845495
N            -1.6220728632        6.5611860256       15.2096737398
N            -3.2318658175        9.3589822790        4.6237478179
N            -3.2411292289        9.3641657736        9.9236845495
N            -3.2402524234        9.3639552398       15.2096737398
N            -4.8531418727       12.1559279510        4.6250085614
N            -4.8554536372       12.1674758909        9.9506001131
N            -4.8466088194       12.1613374509       15.1753894931
N             4.8908365529        0.9361538582        4.6257089020
N             4.8802563780        0.9310923240        9.9509081902
N             4.8885981327        0.9273906070       15.1759499245
N             3.2561525733        3.7675095652        4.6257089020
N             3.2464790687        3.7608776320        9.9509081902
N             3.2474441650        3.7699526619       15.1759499245
N             1.6223468440        6.5504913112        4.6320819274
N             1.6224373844        6.5642936062        9.9199630644
N             1.6226337413        6.5607016471       15.2127478808
N             0.0015002636        9.3670692168        4.6289951192
N             0.0008460440        9.3666915030        9.9195275253
N             0.0010002455        9.3667805312       15.2098814668
N            -1.6273044642       12.1790524840        4.6320819274
N            -1.6153060559       12.1722297469        9.9199630644
N            -1.6183186053       12.1741957764       15.2127478808
N             8.1236643185        0.9296374245        4.6237117662
N             8.1149125964        0.9350958567        9.9237196183
N             8.1151227187        0.9347003788       15.2098257019
N             6.4948407965        3.7497966114        4.6310189743
N             6.4915444892        3.7478934875        9.9245217754
N             6.4908390049        3.7474861759       15.2092676124
N             4.8669230591        6.5704787533        4.6237117662
N             4.8672743390        6.5601703235        9.9237196183
N             4.8670369062        6.5605500337       15.2098257019
N             3.2423438508        9.3668797228        4.6289850050
N             3.2437789319        9.3664168233        9.9196739204
N             3.2440562492        9.3665866711       15.2101178789
N             1.6217579506       12.1738168402        4.6289850050
N             1.6220746084       12.1752911066        9.9196739204
N             1.6223603595       12.1754463466       15.2101178789
N            11.3421521722        0.9287790280        4.6233415138
N            11.3525617519        0.9350937484        9.9239225739
N            11.3520936234        0.9347899331       15.2097950892
N             9.7345134227        3.7454990536        4.6289624679
N             9.7341817637        3.7459448875        9.9222300979
N             9.7341217558        3.7470499601       15.2082296656
N             8.1109553154        6.5575841845        4.6289624679
N             8.1111755893        6.5570740425        9.9222300979
N             8.1121026063        6.5564695379       15.2082296656
N             6.4754235927        9.3582001945        4.6233415138
N             6.4860970908        9.3640577948        9.9239225739
N             6.4855999148        9.3638042913       15.2097950892
N             4.8716370032       12.1788439745        4.6322817166
N             4.8597849227       12.1720011727        9.9202321033
N             4.8635608014       12.1741811773       15.2131107159
N            14.5757412079        0.9356431036        4.6252425341
N            14.5869733559        0.9309328237        9.9503061510
N            14.5778671234        0.9271286201       15.1753319792
N            12.9736088261        3.7487087577        4.6307836395
N            12.9762462052        3.7478002960        9.9239643874
N            12.9769682579        3.7476595328       15.2089301128
N            11.3574449222        6.5572224124        4.6286576252
N            11.3569338377        6.5569273377        9.9219399658
N            11.3560133713        6.5563959061       15.2079981725
N             9.7332827024        9.3611182372        4.6307836395
N             9.7338146411        9.3638565054        9.9239643874
N             9.7340537629        9.3645522030       15.2089301128
N             8.0981625744       12.1551384072        4.6252425341
N             8.0996994263       12.1672208725        9.9503061510
N             8.0918517731       12.1612367457       15.1753319792
N            -0.0595575697        1.9079604376        1.8677761775
N            -0.0454445085        1.8985559757        7.3770442234
N            -0.0043143346        1.8755282762       12.5559516749
N            -1.6255429327        4.6876730846        1.9835540116
N            -1.6272538081        4.6895258224        7.2800761889
N            -1.6317514757        4.6897818979       12.5662233139
N            -3.2456131294        7.4923515751        1.9842091804
N            -3.2465080431        7.4918348965        7.2749452152
N            -3.2446959910        7.4928810852       12.5673646636
N            -4.8645008532       10.2977127666        1.9835540116
N            -4.8637517729       10.2953047361        7.2800761889
N            -4.8657788388       10.2912816040       12.5662233139
N            -6.4888099391       13.0437521965        1.8677761775
N            -6.4898979115       13.0606766969        7.3770442234
N            -6.4892753972       13.1078103221       12.5559516749
N             3.3011547448        1.9059252594        1.8707982427
N             3.2886575437        1.8987099970        7.3796559359
N             3.2484996855        1.8755248468       12.5563788818
N             1.6228099262        4.6761193887        1.9852257591
N             1.6223290734        4.6848509003        7.2897019348
N             1.6225315055        4.6955016829       12.5647343960
N             0.0019548630        7.4923317607        1.9888983313
N            -0.0015151895        7.4936546793        7.2745209663
N             0.0001184416        7.4945635874       12.5672910247
N            -1.6218462929       10.3048378643        1.9888983313
N            -1.6224356381       10.3011712513        7.2745209663
N            -1.6208316850       10.3021315633       12.5672910247
N            -3.2503302179       13.1166457109        1.9852257591
N            -3.2430089335       13.1118635244        7.2897019348
N            -3.2336838691       13.1067134445       12.5647343960
N             6.4942826614        1.8744706572        1.9837691849
N             6.4967813466        1.8743075608        7.2804059242
N             6.4996767407        1.8785314202       12.5666930191
N             4.8704782185        4.6869824539        1.9837691849
N             4.8715863155        4.6892279270        7.2804059242
N             4.8766919821        4.6896234822       12.5666930191
N             3.2430703187        7.4923344082        1.9888031611
N             3.2464209425        7.4936944256        7.2741123369
N             3.2451771715        7.4946078416       12.5671211935
N             1.6226220244       10.3030284517        1.9866267308
N             1.6224504632       10.3029294008        7.2741299703
N             1.6227039167       10.3030757322       12.5651902254
N            -0.0012862724       13.1117248619        1.9888031611
N             0.0015668491       13.1139465785        7.2741123369
N             0.0017360051       13.1124127331       12.5671211935
N             9.7332409957        1.8749982810        1.9843450137
N             9.7329210749        1.8758084271        7.2751925487
N             9.7334968815        1.8739880555       12.5676661387
N             8.1128552835        4.6839618608        1.9860016614
N             8.1127448950        4.6838981280        7.2754768645
N             8.1135650825        4.6843716634       12.5655052389
N             6.4904143212        7.4917388415        1.9843450137
N             6.4909559679        7.4910567089        7.2751925487
N             6.4896673832        7.4924655578       12.5676661387
N             4.8667180701       10.3049117283        1.9886980354
N             4.8668051014       10.3007033448        7.2742266128
N             4.8657575801       10.3018891846       12.5672630074
N             3.2463010127       13.1115564013        1.9886980354
N             3.2426999613       13.1137359644        7.2742266128
N             3.2432031681       13.1122358644       12.5672630074
N            12.9723604747        1.8744052422        1.9838219503
N            12.9688971125        1.8742297640        7.2803572558
N            12.9675966905        1.8785883318       12.5667021036
N            11.3549819634        4.6840645113        1.9861216149
N            11.3544328480        4.6841841836        7.2753836095
N            11.3540163338        4.6845714738       12.5655302214
N             9.7340075214        7.4916746028        1.9861216149
N             9.7338366029        7.4911392188        7.2753836095
N             9.7339637490        7.4905848618       12.5655302214
N             8.1094604741       10.2971951156        1.9838219503
N             8.1075768245       10.2942834950        7.2803572558
N             8.1107012439       10.2909780126       12.5667021036
N             6.4957955965       13.1165565255        1.9854063696
N             6.4868125849       13.1113701813        7.2894950078
N             6.4782600938       13.1064323983       12.5645668650
Ga            1.6199378193        0.9352700651        4.5023790672



     Writing config-only to output data dir ./GaN.save/
     NEW-OLD atomic charge density approx. for the potential

     Check: negative core charge=   -0.000003


     -----------------------------------------------
     Non-local corr. energy    =      82.13189559 Ry
     -----------------------------------------------


     total cpu time spent up to now is   165835.6 secs

     Self-consistent Calculation

     iteration #  1     ecut=    70.00 Ry     beta= 0.70
     Davidson diagonalization with overlap

---- Real-time Memory Report at c_bands before calling an iterative solver
          3617 MiB given to the printing process from OS
             0 MiB allocation reported by mallinfo(arena+hblkhd)
       1706870 MiB available memory on the node where the printing process lives
------------------
     ethr =  1.00E-06,  avg # of iterations =  3.0


     -----------------------------------------------
     Non-local corr. energy    =      82.13198865 Ry
     -----------------------------------------------


     total cpu time spent up to now is   166497.4 secs

     total energy              =  -47098.95982104 Ry
     estimated scf accuracy    <       0.00550265 Ry

     iteration #  2     ecut=    70.00 Ry     beta= 0.70
     Davidson diagonalization with overlap

---- Real-time Memory Report at c_bands before calling an iterative solver
          3617 MiB given to the printing process from OS
             0 MiB allocation reported by mallinfo(arena+hblkhd)
       1716146 MiB available memory on the node where the printing process lives
------------------
     ethr =  2.03E-07,  avg # of iterations = 15.7


     -----------------------------------------------
     Non-local corr. energy    =      82.13175092 Ry
     -----------------------------------------------


     total cpu time spent up to now is   168779.9 secs

     total energy              =  -47098.95923799 Ry
     estimated scf accuracy    <       0.00695376 Ry

     iteration #  3     ecut=    70.00 Ry     beta= 0.70
     Davidson diagonalization with overlap

---- Real-time Memory Report at c_bands before calling an iterative solver
          3617 MiB given to the printing process from OS
             0 MiB allocation reported by mallinfo(arena+hblkhd)
       1696754 MiB available memory on the node where the printing process lives
------------------
     ethr =  2.03E-07,  avg # of iterations = 16.2


     -----------------------------------------------
     Non-local corr. energy    =      82.13189168 Ry
     -----------------------------------------------


     total cpu time spent up to now is   171549.4 secs

     total energy              =  -47098.96049394 Ry
     estimated scf accuracy    <       0.01056255 Ry

     iteration #  4     ecut=    70.00 Ry     beta= 0.70
     Davidson diagonalization with overlap

---- Real-time Memory Report at c_bands before calling an iterative solver
          3617 MiB given to the printing process from OS
             0 MiB allocation reported by mallinfo(arena+hblkhd)
       1696737 MiB available memory on the node where the printing process lives
------------------
