
     Program PWSCF v.7.1 starts on  1Oct2023 at  7:30:33 

     This program is part of the open-source Quantum ESPRESSO suite
     for quantum simulation of materials; please cite
         "P. Giannozzi et al., J. Phys.:Condens. Matter 21 395502 (2009);
         "P. Giannozzi et al., J. Phys.:Condens. Matter 29 465901 (2017);
         "P. Giannozzi et al., J. Chem. Phys. 152 154105 (2020);
          URL http://www.quantum-espresso.org", 
     in publications or presentations arising from this work. More details at
     http://www.quantum-espresso.org/quote

     Parallel version (MPI & OpenMP), running on     256 processor cores
     Number of MPI processes:               256
     Threads/MPI process:                     1

     MPI processes distributed on     2 nodes
     1947801 MiB available memory on the printing compute node when the environment starts
 
     Reading input from espresso.pwi
Warning: card &CELL ignored
Warning: card    CELL_DYNAMICS    = 'BFGS' ignored
Warning: card / ignored

     Current dimensions of program PWSCF are:
     Max number of different atomic species (ntypx) = 10
     Max number of k-points (npk) =  40000
     Max angular momentum in pseudopotentials (lmaxx) =  4
     file C.pbe-n-kjpaw_psl.1.0.0.UPF: wavefunction(s)  2S 2P renormalized

     **************************************************************************
     Initializing libbeef V0.1.2 with the BEEF-vdW functional.
     Citation: Wellendorff et al., PRB 85, 235149 (2012).
     **************************************************************************


     IMPORTANT: XC functional enforced from input :
     Exchange-correlation= BEEF-VDW
                           (   1   4  43  14   2   0   0)
     Any further DFT definition will be discarded
     Please, verify this is what you really want

 
     R & G space division:  proc/nbgrp/npool/nimage =     256
     WARNING: too many processors for an effective parallelization!
     wavefunctions fft division:  task group distribution
                                  #TG    x Z-proc =       8     32
     Subspace diagonalization in iterative solution of the eigenvalue problem:
     a serial algorithm will be used

 
     Parallelization info
     --------------------
     sticks:   dense  smooth     PW     G-vecs:    dense   smooth      PW
     Min          79      63     15                 8501     6083     751
     Max          80      64     16                 8510     6094     766
     Sum       20305   16237   4049              2177001  1558403  194543
 
     Using Pencil Decomposition
 


     bravais-lattice index     =            1
     lattice parameter (alat)  =      27.0027  a.u.
     unit-cell volume          =   19688.9026 (a.u.)^3
     number of atoms/cell      =          511
     number of atomic types    =            1
     number of electrons       =      2046.00
     number of Kohn-Sham states=         1228
     kinetic-energy cutoff     =      70.0000  Ry
     charge density cutoff     =     350.0000  Ry
     scf convergence threshold =      1.0E-08
     mixing beta               =       0.7000
     number of iterations used =            8  plain     mixing
     Exchange-correlation= BEEF-VDW
                           (   1   4  43  14   2   0   0)

     celldm(1)=  27.002699  celldm(2)=   0.000000  celldm(3)=   0.000000
     celldm(4)=   0.000000  celldm(5)=   0.000000  celldm(6)=   0.000000

     crystal axes: (cart. coord. in units of alat)
               a(1) = (   1.000000   0.000000   0.000000 )  
               a(2) = (   0.000000   1.000000   0.000000 )  
               a(3) = (   0.000000   0.000000   1.000000 )  

     reciprocal axes: (cart. coord. in units 2 pi/alat)
               b(1) = (  1.000000  0.000000  0.000000 )  
               b(2) = (  0.000000  1.000000  0.000000 )  
               b(3) = (  0.000000  0.000000  1.000000 )  


     PseudoPot. # 1 for C  read from file:
     /trace/group/acmegroup/atimmins/packages/espresso/pseudo/psl_1.0.0/pslibrary.1.0.0/pbe/PSEUDOPOTENTIALS/C.pbe-n-kjpaw_psl.1.0.0.UPF
     MD5 check sum: 5459cf7f2c8c37df2f7cde8914797f4d
     Pseudo is Projector augmented-wave + core cor, Zval =  4.0
     Generated using 'atomic' code by A. Dal Corso  v.7.1
     Shape of augmentation charge: PSQ
     Using radial grid of 1073 points,  4 beta functions with: 
                l(1) =   0
                l(2) =   0
                l(3) =   1
                l(4) =   1
     Q(r) pseudized with 0 coefficients 


     atomic species   valence    mass     pseudopotential
        C              4.00    12.01100     C ( 1.00)

      6 Sym. Ops. (no inversion) found ( 4 have fractional translation)


                                    s                        frac. trans.

      isym =  1     identity                                     

 cryst.   s( 1) = (     1          0          0      )
                  (     0          1          0      )
                  (     0          0          1      )

 cart.    s( 1) = (  1.0000000  0.0000000  0.0000000 )
                  (  0.0000000  1.0000000  0.0000000 )
                  (  0.0000000  0.0000000  1.0000000 )


      isym =  2     120 deg rotation - cart. axis [1,-1,1]       

 cryst.   s( 2) = (     0          0          1      )    f =( -0.2500000 )
                  (    -1          0          0      )       ( -0.2500000 )
                  (     0         -1          0      )       (  0.0000000 )

 cart.    s( 2) = (  0.0000000 -1.0000000  0.0000000 )    f =( -0.2500000 )
                  (  0.0000000  0.0000000 -1.0000000 )       ( -0.2500000 )
                  (  1.0000000  0.0000000  0.0000000 )       (  0.0000000 )


      isym =  3     120 deg rotation - cart. axis [-1,1,-1]      

 cryst.   s( 3) = (     0         -1          0      )    f =(  0.0000000 )
                  (     0          0         -1      )       ( -0.2500000 )
                  (     1          0          0      )       ( -0.2500000 )

 cart.    s( 3) = (  0.0000000  0.0000000  1.0000000 )    f =(  0.0000000 )
                  ( -1.0000000  0.0000000  0.0000000 )       ( -0.2500000 )
                  (  0.0000000 -1.0000000  0.0000000 )       ( -0.2500000 )


      isym =  4     inv. 180 deg rotation - cart. axis [1,1,0]   

 cryst.   s( 4) = (     0         -1          0      )    f =( -0.2500000 )
                  (    -1          0          0      )       ( -0.2500000 )
                  (     0          0          1      )       (  0.0000000 )

 cart.    s( 4) = (  0.0000000 -1.0000000  0.0000000 )    f =( -0.2500000 )
                  ( -1.0000000  0.0000000  0.0000000 )       ( -0.2500000 )
                  (  0.0000000  0.0000000  1.0000000 )       (  0.0000000 )


      isym =  5     inv. 180 deg rotation - cart. axis [-1,0,1]  

 cryst.   s( 5) = (     0          0          1      )
                  (     0          1          0      )
                  (     1          0          0      )

 cart.    s( 5) = (  0.0000000  0.0000000  1.0000000 )
                  (  0.0000000  1.0000000  0.0000000 )
                  (  1.0000000  0.0000000  0.0000000 )


      isym =  6     inv. 180 deg rotation - cart. axis [0,1,1]   

 cryst.   s( 6) = (     1          0          0      )    f =(  0.0000000 )
                  (     0          0         -1      )       ( -0.2500000 )
                  (     0         -1          0      )       ( -0.2500000 )

 cart.    s( 6) = (  1.0000000  0.0000000  0.0000000 )    f =(  0.0000000 )
                  (  0.0000000  0.0000000 -1.0000000 )       ( -0.2500000 )
                  (  0.0000000 -1.0000000  0.0000000 )       ( -0.2500000 )


     point group C_3v (3m)  
     there are  3 classes
     the character table:

       E     2C3   3s_v 
A_1    1.00  1.00  1.00
A_2    1.00  1.00 -1.00
E      2.00 -1.00  0.00

     the symmetry operations in each class and the name of the first element:

     E        1
          identity                                               
     2C3      2    3
          120 deg rotation - cart. axis [1,-1,1]                 
     3s_v     4    5    6
          inv. 180 deg rotation - cart. axis [1,1,0]             

   Cartesian axes

     site n.     atom                  positions (alat units)
         1           C   tau(   1) = (   0.0625015   0.1874985   0.3125015  )
         2           C   tau(   2) = (   0.0625015   0.1874985   0.5625015  )
         3           C   tau(   3) = (   0.0625015   0.1874985   0.8125015  )
         4           C   tau(   4) = (   0.0625015   0.4374985   0.0625015  )
         5           C   tau(   5) = (   0.0625015   0.4374985   0.3125015  )
         6           C   tau(   6) = (   0.0625015   0.4374985   0.5625015  )
         7           C   tau(   7) = (   0.0625015   0.4374985   0.8125015  )
         8           C   tau(   8) = (   0.0625015   0.6874985   0.0625015  )
         9           C   tau(   9) = (   0.0625015   0.6874985   0.3125015  )
        10           C   tau(  10) = (   0.0625015   0.6874985   0.5625015  )
        11           C   tau(  11) = (   0.0625015   0.6874985   0.8125015  )
        12           C   tau(  12) = (   0.0625015   0.9374985   0.0625015  )
        13           C   tau(  13) = (   0.0625015   0.9374985   0.3125015  )
        14           C   tau(  14) = (   0.0625015   0.9374985   0.5625015  )
        15           C   tau(  15) = (   0.0625015   0.9374985   0.8125015  )
        16           C   tau(  16) = (   0.3125015   0.1874985   0.0625015  )
        17           C   tau(  17) = (   0.3125015   0.1874985   0.3125015  )
        18           C   tau(  18) = (   0.3125015   0.1874985   0.5625015  )
        19           C   tau(  19) = (   0.3125015   0.1874985   0.8125015  )
        20           C   tau(  20) = (   0.3125015   0.4374985   0.0625015  )
        21           C   tau(  21) = (   0.3125015   0.4374985   0.3125015  )
        22           C   tau(  22) = (   0.3125015   0.4374985   0.5625015  )
        23           C   tau(  23) = (   0.3125015   0.4374985   0.8125015  )
        24           C   tau(  24) = (   0.3125015   0.6874985   0.0625015  )
        25           C   tau(  25) = (   0.3125015   0.6874985   0.3125015  )
        26           C   tau(  26) = (   0.3125015   0.6874985   0.5625015  )
        27           C   tau(  27) = (   0.3125015   0.6874985   0.8125015  )
        28           C   tau(  28) = (   0.3125015   0.9374985   0.0625015  )
        29           C   tau(  29) = (   0.3125015   0.9374985   0.3125015  )
        30           C   tau(  30) = (   0.3125015   0.9374985   0.5625015  )
        31           C   tau(  31) = (   0.3125015   0.9374985   0.8125015  )
        32           C   tau(  32) = (   0.5625015   0.1874985   0.0625015  )
        33           C   tau(  33) = (   0.5625015   0.1874985   0.3125015  )
        34           C   tau(  34) = (   0.5625015   0.1874985   0.5625015  )
        35           C   tau(  35) = (   0.5625015   0.1874985   0.8125015  )
        36           C   tau(  36) = (   0.5625015   0.4374985   0.0625015  )
        37           C   tau(  37) = (   0.5625015   0.4374985   0.3125015  )
        38           C   tau(  38) = (   0.5625015   0.4374985   0.5625015  )
        39           C   tau(  39) = (   0.5625015   0.4374985   0.8125015  )
        40           C   tau(  40) = (   0.5625015   0.6874985   0.0625015  )
        41           C   tau(  41) = (   0.5625015   0.6874985   0.3125015  )
        42           C   tau(  42) = (   0.5625015   0.6874985   0.5625015  )
        43           C   tau(  43) = (   0.5625015   0.6874985   0.8125015  )
        44           C   tau(  44) = (   0.5625015   0.9374985   0.0625015  )
        45           C   tau(  45) = (   0.5625015   0.9374985   0.3125015  )
        46           C   tau(  46) = (   0.5625015   0.9374985   0.5625015  )
        47           C   tau(  47) = (   0.5625015   0.9374985   0.8125015  )
        48           C   tau(  48) = (   0.8125015   0.1874985   0.0625015  )
        49           C   tau(  49) = (   0.8125015   0.1874985   0.3125015  )
        50           C   tau(  50) = (   0.8125015   0.1874985   0.5625015  )
        51           C   tau(  51) = (   0.8125015   0.1874985   0.8125015  )
        52           C   tau(  52) = (   0.8125015   0.4374985   0.0625015  )
        53           C   tau(  53) = (   0.8125015   0.4374985   0.3125015  )
        54           C   tau(  54) = (   0.8125015   0.4374985   0.5625015  )
        55           C   tau(  55) = (   0.8125015   0.4374985   0.8125015  )
        56           C   tau(  56) = (   0.8125015   0.6874985   0.0625015  )
        57           C   tau(  57) = (   0.8125015   0.6874985   0.3125015  )
        58           C   tau(  58) = (   0.8125015   0.6874985   0.5625015  )
        59           C   tau(  59) = (   0.8125015   0.6874985   0.8125015  )
        60           C   tau(  60) = (   0.8125015   0.9374985   0.0625015  )
        61           C   tau(  61) = (   0.8125015   0.9374985   0.3125015  )
        62           C   tau(  62) = (   0.8125015   0.9374985   0.5625015  )
        63           C   tau(  63) = (   0.8125015   0.9374985   0.8125015  )
        64           C   tau(  64) = (   0.0000000   0.0000000   0.1250000  )
        65           C   tau(  65) = (   0.0000000   0.0000000   0.3750000  )
        66           C   tau(  66) = (   0.0000000   0.0000000   0.6250000  )
        67           C   tau(  67) = (   0.0000000   0.0000000   0.8750000  )
        68           C   tau(  68) = (   0.0000000   0.2500000   0.1250000  )
        69           C   tau(  69) = (   0.0000000   0.2500000   0.3750000  )
        70           C   tau(  70) = (   0.0000000   0.2500000   0.6250000  )
        71           C   tau(  71) = (   0.0000000   0.2500000   0.8750000  )
        72           C   tau(  72) = (   0.0000000   0.5000000   0.1250000  )
        73           C   tau(  73) = (   0.0000000   0.5000000   0.3750000  )
        74           C   tau(  74) = (   0.0000000   0.5000000   0.6250000  )
        75           C   tau(  75) = (   0.0000000   0.5000000   0.8750000  )
        76           C   tau(  76) = (   0.0000000   0.7500000   0.1250000  )
        77           C   tau(  77) = (   0.0000000   0.7500000   0.3750000  )
        78           C   tau(  78) = (   0.0000000   0.7500000   0.6250000  )
        79           C   tau(  79) = (   0.0000000   0.7500000   0.8750000  )
        80           C   tau(  80) = (   0.2500000   0.0000000   0.1250000  )
        81           C   tau(  81) = (   0.2500000   0.0000000   0.3750000  )
        82           C   tau(  82) = (   0.2500000   0.0000000   0.6250000  )
        83           C   tau(  83) = (   0.2500000   0.0000000   0.8750000  )
        84           C   tau(  84) = (   0.2500000   0.2500000   0.1250000  )
        85           C   tau(  85) = (   0.2500000   0.2500000   0.3750000  )
        86           C   tau(  86) = (   0.2500000   0.2500000   0.6250000  )
        87           C   tau(  87) = (   0.2500000   0.2500000   0.8750000  )
        88           C   tau(  88) = (   0.2500000   0.5000000   0.1250000  )
        89           C   tau(  89) = (   0.2500000   0.5000000   0.3750000  )
        90           C   tau(  90) = (   0.2500000   0.5000000   0.6250000  )
        91           C   tau(  91) = (   0.2500000   0.5000000   0.8750000  )
        92           C   tau(  92) = (   0.2500000   0.7500000   0.1250000  )
        93           C   tau(  93) = (   0.2500000   0.7500000   0.3750000  )
        94           C   tau(  94) = (   0.2500000   0.7500000   0.6250000  )
        95           C   tau(  95) = (   0.2500000   0.7500000   0.8750000  )
        96           C   tau(  96) = (   0.5000000   0.0000000   0.1250000  )
        97           C   tau(  97) = (   0.5000000   0.0000000   0.3750000  )
        98           C   tau(  98) = (   0.5000000   0.0000000   0.6250000  )
        99           C   tau(  99) = (   0.5000000   0.0000000   0.8750000  )
       100           C   tau( 100) = (   0.5000000   0.2500000   0.1250000  )
       101           C   tau( 101) = (   0.5000000   0.2500000   0.3750000  )
       102           C   tau( 102) = (   0.5000000   0.2500000   0.6250000  )
       103           C   tau( 103) = (   0.5000000   0.2500000   0.8750000  )
       104           C   tau( 104) = (   0.5000000   0.5000000   0.1250000  )
       105           C   tau( 105) = (   0.5000000   0.5000000   0.3750000  )
       106           C   tau( 106) = (   0.5000000   0.5000000   0.6250000  )
       107           C   tau( 107) = (   0.5000000   0.5000000   0.8750000  )
       108           C   tau( 108) = (   0.5000000   0.7500000   0.1250000  )
       109           C   tau( 109) = (   0.5000000   0.7500000   0.3750000  )
       110           C   tau( 110) = (   0.5000000   0.7500000   0.6250000  )
       111           C   tau( 111) = (   0.5000000   0.7500000   0.8750000  )
       112           C   tau( 112) = (   0.7500000   0.0000000   0.1250000  )
       113           C   tau( 113) = (   0.7500000   0.0000000   0.3750000  )
       114           C   tau( 114) = (   0.7500000   0.0000000   0.6250000  )
       115           C   tau( 115) = (   0.7500000   0.0000000   0.8750000  )
       116           C   tau( 116) = (   0.7500000   0.2500000   0.1250000  )
       117           C   tau( 117) = (   0.7500000   0.2500000   0.3750000  )
       118           C   tau( 118) = (   0.7500000   0.2500000   0.6250000  )
       119           C   tau( 119) = (   0.7500000   0.2500000   0.8750000  )
       120           C   tau( 120) = (   0.7500000   0.5000000   0.1250000  )
       121           C   tau( 121) = (   0.7500000   0.5000000   0.3750000  )
       122           C   tau( 122) = (   0.7500000   0.5000000   0.6250000  )
       123           C   tau( 123) = (   0.7500000   0.5000000   0.8750000  )
       124           C   tau( 124) = (   0.7500000   0.7500000   0.1250000  )
       125           C   tau( 125) = (   0.7500000   0.7500000   0.3750000  )
       126           C   tau( 126) = (   0.7500000   0.7500000   0.6250000  )
       127           C   tau( 127) = (   0.7500000   0.7500000   0.8750000  )
       128           C   tau( 128) = (   0.0625015   0.0625015   0.1874985  )
       129           C   tau( 129) = (   0.0625015   0.0625015   0.4374985  )
       130           C   tau( 130) = (   0.0625015   0.0625015   0.6874985  )
       131           C   tau( 131) = (   0.0625015   0.0625015   0.9374985  )
       132           C   tau( 132) = (   0.0625015   0.3125015   0.1874985  )
       133           C   tau( 133) = (   0.0625015   0.3125015   0.4374985  )
       134           C   tau( 134) = (   0.0625015   0.3125015   0.6874985  )
       135           C   tau( 135) = (   0.0625015   0.3125015   0.9374985  )
       136           C   tau( 136) = (   0.0625015   0.5625015   0.1874985  )
       137           C   tau( 137) = (   0.0625015   0.5625015   0.4374985  )
       138           C   tau( 138) = (   0.0625015   0.5625015   0.6874985  )
       139           C   tau( 139) = (   0.0625015   0.5625015   0.9374985  )
       140           C   tau( 140) = (   0.0625015   0.8125015   0.1874985  )
       141           C   tau( 141) = (   0.0625015   0.8125015   0.4374985  )
       142           C   tau( 142) = (   0.0625015   0.8125015   0.6874985  )
       143           C   tau( 143) = (   0.0625015   0.8125015   0.9374985  )
       144           C   tau( 144) = (   0.3125015   0.0625015   0.1874985  )
       145           C   tau( 145) = (   0.3125015   0.0625015   0.4374985  )
       146           C   tau( 146) = (   0.3125015   0.0625015   0.6874985  )
       147           C   tau( 147) = (   0.3125015   0.0625015   0.9374985  )
       148           C   tau( 148) = (   0.3125015   0.3125015   0.1874985  )
       149           C   tau( 149) = (   0.3125015   0.3125015   0.4374985  )
       150           C   tau( 150) = (   0.3125015   0.3125015   0.6874985  )
       151           C   tau( 151) = (   0.3125015   0.3125015   0.9374985  )
       152           C   tau( 152) = (   0.3125015   0.5625015   0.1874985  )
       153           C   tau( 153) = (   0.3125015   0.5625015   0.4374985  )
       154           C   tau( 154) = (   0.3125015   0.5625015   0.6874985  )
       155           C   tau( 155) = (   0.3125015   0.5625015   0.9374985  )
       156           C   tau( 156) = (   0.3125015   0.8125015   0.1874985  )
       157           C   tau( 157) = (   0.3125015   0.8125015   0.4374985  )
       158           C   tau( 158) = (   0.3125015   0.8125015   0.6874985  )
       159           C   tau( 159) = (   0.3125015   0.8125015   0.9374985  )
       160           C   tau( 160) = (   0.5625015   0.0625015   0.1874985  )
       161           C   tau( 161) = (   0.5625015   0.0625015   0.4374985  )
       162           C   tau( 162) = (   0.5625015   0.0625015   0.6874985  )
       163           C   tau( 163) = (   0.5625015   0.0625015   0.9374985  )
       164           C   tau( 164) = (   0.5625015   0.3125015   0.1874985  )
       165           C   tau( 165) = (   0.5625015   0.3125015   0.4374985  )
       166           C   tau( 166) = (   0.5625015   0.3125015   0.6874985  )
       167           C   tau( 167) = (   0.5625015   0.3125015   0.9374985  )
       168           C   tau( 168) = (   0.5625015   0.5625015   0.1874985  )
       169           C   tau( 169) = (   0.5625015   0.5625015   0.4374985  )
       170           C   tau( 170) = (   0.5625015   0.5625015   0.6874985  )
       171           C   tau( 171) = (   0.5625015   0.5625015   0.9374985  )
       172           C   tau( 172) = (   0.5625015   0.8125015   0.1874985  )
       173           C   tau( 173) = (   0.5625015   0.8125015   0.4374985  )
       174           C   tau( 174) = (   0.5625015   0.8125015   0.6874985  )
       175           C   tau( 175) = (   0.5625015   0.8125015   0.9374985  )
       176           C   tau( 176) = (   0.8125015   0.0625015   0.1874985  )
       177           C   tau( 177) = (   0.8125015   0.0625015   0.4374985  )
       178           C   tau( 178) = (   0.8125015   0.0625015   0.6874985  )
       179           C   tau( 179) = (   0.8125015   0.0625015   0.9374985  )
       180           C   tau( 180) = (   0.8125015   0.3125015   0.1874985  )
       181           C   tau( 181) = (   0.8125015   0.3125015   0.4374985  )
       182           C   tau( 182) = (   0.8125015   0.3125015   0.6874985  )
       183           C   tau( 183) = (   0.8125015   0.3125015   0.9374985  )
       184           C   tau( 184) = (   0.8125015   0.5625015   0.1874985  )
       185           C   tau( 185) = (   0.8125015   0.5625015   0.4374985  )
       186           C   tau( 186) = (   0.8125015   0.5625015   0.6874985  )
       187           C   tau( 187) = (   0.8125015   0.5625015   0.9374985  )
       188           C   tau( 188) = (   0.8125015   0.8125015   0.1874985  )
       189           C   tau( 189) = (   0.8125015   0.8125015   0.4374985  )
       190           C   tau( 190) = (   0.8125015   0.8125015   0.6874985  )
       191           C   tau( 191) = (   0.8125015   0.8125015   0.9374985  )
       192           C   tau( 192) = (   0.0000000   0.1250000   0.0000000  )
       193           C   tau( 193) = (   0.0000000   0.1250000   0.2500000  )
       194           C   tau( 194) = (   0.0000000   0.1250000   0.5000000  )
       195           C   tau( 195) = (   0.0000000   0.1250000   0.7500000  )
       196           C   tau( 196) = (   0.0000000   0.3750000   0.0000000  )
       197           C   tau( 197) = (   0.0000000   0.3750000   0.2500000  )
       198           C   tau( 198) = (   0.0000000   0.3750000   0.5000000  )
       199           C   tau( 199) = (   0.0000000   0.3750000   0.7500000  )
       200           C   tau( 200) = (   0.0000000   0.6250000   0.0000000  )
       201           C   tau( 201) = (   0.0000000   0.6250000   0.2500000  )
       202           C   tau( 202) = (   0.0000000   0.6250000   0.5000000  )
       203           C   tau( 203) = (   0.0000000   0.6250000   0.7500000  )
       204           C   tau( 204) = (   0.0000000   0.8750000   0.0000000  )
       205           C   tau( 205) = (   0.0000000   0.8750000   0.2500000  )
       206           C   tau( 206) = (   0.0000000   0.8750000   0.5000000  )
       207           C   tau( 207) = (   0.0000000   0.8750000   0.7500000  )
       208           C   tau( 208) = (   0.2500000   0.1250000   0.0000000  )
       209           C   tau( 209) = (   0.2500000   0.1250000   0.2500000  )
       210           C   tau( 210) = (   0.2500000   0.1250000   0.5000000  )
       211           C   tau( 211) = (   0.2500000   0.1250000   0.7500000  )
       212           C   tau( 212) = (   0.2500000   0.3750000   0.0000000  )
       213           C   tau( 213) = (   0.2500000   0.3750000   0.2500000  )
       214           C   tau( 214) = (   0.2500000   0.3750000   0.5000000  )
       215           C   tau( 215) = (   0.2500000   0.3750000   0.7500000  )
       216           C   tau( 216) = (   0.2500000   0.6250000   0.0000000  )
       217           C   tau( 217) = (   0.2500000   0.6250000   0.2500000  )
       218           C   tau( 218) = (   0.2500000   0.6250000   0.5000000  )
       219           C   tau( 219) = (   0.2500000   0.6250000   0.7500000  )
       220           C   tau( 220) = (   0.2500000   0.8750000   0.0000000  )
       221           C   tau( 221) = (   0.2500000   0.8750000   0.2500000  )
       222           C   tau( 222) = (   0.2500000   0.8750000   0.5000000  )
       223           C   tau( 223) = (   0.2500000   0.8750000   0.7500000  )
       224           C   tau( 224) = (   0.5000000   0.1250000   0.0000000  )
       225           C   tau( 225) = (   0.5000000   0.1250000   0.2500000  )
       226           C   tau( 226) = (   0.5000000   0.1250000   0.5000000  )
       227           C   tau( 227) = (   0.5000000   0.1250000   0.7500000  )
       228           C   tau( 228) = (   0.5000000   0.3750000   0.0000000  )
       229           C   tau( 229) = (   0.5000000   0.3750000   0.2500000  )
       230           C   tau( 230) = (   0.5000000   0.3750000   0.5000000  )
       231           C   tau( 231) = (   0.5000000   0.3750000   0.7500000  )
       232           C   tau( 232) = (   0.5000000   0.6250000   0.0000000  )
       233           C   tau( 233) = (   0.5000000   0.6250000   0.2500000  )
       234           C   tau( 234) = (   0.5000000   0.6250000   0.5000000  )
       235           C   tau( 235) = (   0.5000000   0.6250000   0.7500000  )
       236           C   tau( 236) = (   0.5000000   0.8750000   0.0000000  )
       237           C   tau( 237) = (   0.5000000   0.8750000   0.2500000  )
       238           C   tau( 238) = (   0.5000000   0.8750000   0.5000000  )
       239           C   tau( 239) = (   0.5000000   0.8750000   0.7500000  )
       240           C   tau( 240) = (   0.7500000   0.1250000   0.0000000  )
       241           C   tau( 241) = (   0.7500000   0.1250000   0.2500000  )
       242           C   tau( 242) = (   0.7500000   0.1250000   0.5000000  )
       243           C   tau( 243) = (   0.7500000   0.1250000   0.7500000  )
       244           C   tau( 244) = (   0.7500000   0.3750000   0.0000000  )
       245           C   tau( 245) = (   0.7500000   0.3750000   0.2500000  )
       246           C   tau( 246) = (   0.7500000   0.3750000   0.5000000  )
       247           C   tau( 247) = (   0.7500000   0.3750000   0.7500000  )
       248           C   tau( 248) = (   0.7500000   0.6250000   0.0000000  )
       249           C   tau( 249) = (   0.7500000   0.6250000   0.2500000  )
       250           C   tau( 250) = (   0.7500000   0.6250000   0.5000000  )
       251           C   tau( 251) = (   0.7500000   0.6250000   0.7500000  )
       252           C   tau( 252) = (   0.7500000   0.8750000   0.0000000  )
       253           C   tau( 253) = (   0.7500000   0.8750000   0.2500000  )
       254           C   tau( 254) = (   0.7500000   0.8750000   0.5000000  )
       255           C   tau( 255) = (   0.7500000   0.8750000   0.7500000  )
       256           C   tau( 256) = (   0.1874985   0.1874985   0.1874985  )
       257           C   tau( 257) = (   0.1874985   0.1874985   0.4374985  )
       258           C   tau( 258) = (   0.1874985   0.1874985   0.6874985  )
       259           C   tau( 259) = (   0.1874985   0.1874985   0.9374985  )
       260           C   tau( 260) = (   0.1874985   0.4374985   0.1874985  )
       261           C   tau( 261) = (   0.1874985   0.4374985   0.4374985  )
       262           C   tau( 262) = (   0.1874985   0.4374985   0.6874985  )
       263           C   tau( 263) = (   0.1874985   0.4374985   0.9374985  )
       264           C   tau( 264) = (   0.1874985   0.6874985   0.1874985  )
       265           C   tau( 265) = (   0.1874985   0.6874985   0.4374985  )
       266           C   tau( 266) = (   0.1874985   0.6874985   0.6874985  )
       267           C   tau( 267) = (   0.1874985   0.6874985   0.9374985  )
       268           C   tau( 268) = (   0.1874985   0.9374985   0.1874985  )
       269           C   tau( 269) = (   0.1874985   0.9374985   0.4374985  )
       270           C   tau( 270) = (   0.1874985   0.9374985   0.6874985  )
       271           C   tau( 271) = (   0.1874985   0.9374985   0.9374985  )
       272           C   tau( 272) = (   0.4374985   0.1874985   0.1874985  )
       273           C   tau( 273) = (   0.4374985   0.1874985   0.4374985  )
       274           C   tau( 274) = (   0.4374985   0.1874985   0.6874985  )
       275           C   tau( 275) = (   0.4374985   0.1874985   0.9374985  )
       276           C   tau( 276) = (   0.4374985   0.4374985   0.1874985  )
       277           C   tau( 277) = (   0.4374985   0.4374985   0.4374985  )
       278           C   tau( 278) = (   0.4374985   0.4374985   0.6874985  )
       279           C   tau( 279) = (   0.4374985   0.4374985   0.9374985  )
       280           C   tau( 280) = (   0.4374985   0.6874985   0.1874985  )
       281           C   tau( 281) = (   0.4374985   0.6874985   0.4374985  )
       282           C   tau( 282) = (   0.4374985   0.6874985   0.6874985  )
       283           C   tau( 283) = (   0.4374985   0.6874985   0.9374985  )
       284           C   tau( 284) = (   0.4374985   0.9374985   0.1874985  )
       285           C   tau( 285) = (   0.4374985   0.9374985   0.4374985  )
       286           C   tau( 286) = (   0.4374985   0.9374985   0.6874985  )
       287           C   tau( 287) = (   0.4374985   0.9374985   0.9374985  )
       288           C   tau( 288) = (   0.6874985   0.1874985   0.1874985  )
       289           C   tau( 289) = (   0.6874985   0.1874985   0.4374985  )
       290           C   tau( 290) = (   0.6874985   0.1874985   0.6874985  )
       291           C   tau( 291) = (   0.6874985   0.1874985   0.9374985  )
       292           C   tau( 292) = (   0.6874985   0.4374985   0.1874985  )
       293           C   tau( 293) = (   0.6874985   0.4374985   0.4374985  )
       294           C   tau( 294) = (   0.6874985   0.4374985   0.6874985  )
       295           C   tau( 295) = (   0.6874985   0.4374985   0.9374985  )
       296           C   tau( 296) = (   0.6874985   0.6874985   0.1874985  )
       297           C   tau( 297) = (   0.6874985   0.6874985   0.4374985  )
       298           C   tau( 298) = (   0.6874985   0.6874985   0.6874985  )
       299           C   tau( 299) = (   0.6874985   0.6874985   0.9374985  )
       300           C   tau( 300) = (   0.6874985   0.9374985   0.1874985  )
       301           C   tau( 301) = (   0.6874985   0.9374985   0.4374985  )
       302           C   tau( 302) = (   0.6874985   0.9374985   0.6874985  )
       303           C   tau( 303) = (   0.6874985   0.9374985   0.9374985  )
       304           C   tau( 304) = (   0.9374985   0.1874985   0.1874985  )
       305           C   tau( 305) = (   0.9374985   0.1874985   0.4374985  )
       306           C   tau( 306) = (   0.9374985   0.1874985   0.6874985  )
       307           C   tau( 307) = (   0.9374985   0.1874985   0.9374985  )
       308           C   tau( 308) = (   0.9374985   0.4374985   0.1874985  )
       309           C   tau( 309) = (   0.9374985   0.4374985   0.4374985  )
       310           C   tau( 310) = (   0.9374985   0.4374985   0.6874985  )
       311           C   tau( 311) = (   0.9374985   0.4374985   0.9374985  )
       312           C   tau( 312) = (   0.9374985   0.6874985   0.1874985  )
       313           C   tau( 313) = (   0.9374985   0.6874985   0.4374985  )
       314           C   tau( 314) = (   0.9374985   0.6874985   0.6874985  )
       315           C   tau( 315) = (   0.9374985   0.6874985   0.9374985  )
       316           C   tau( 316) = (   0.9374985   0.9374985   0.1874985  )
       317           C   tau( 317) = (   0.9374985   0.9374985   0.4374985  )
       318           C   tau( 318) = (   0.9374985   0.9374985   0.6874985  )
       319           C   tau( 319) = (   0.9374985   0.9374985   0.9374985  )
       320           C   tau( 320) = (   0.1250000   0.0000000   0.0000000  )
       321           C   tau( 321) = (   0.1250000   0.0000000   0.2500000  )
       322           C   tau( 322) = (   0.1250000   0.0000000   0.5000000  )
       323           C   tau( 323) = (   0.1250000   0.0000000   0.7500000  )
       324           C   tau( 324) = (   0.1250000   0.2500000   0.0000000  )
       325           C   tau( 325) = (   0.1250000   0.2500000   0.2500000  )
       326           C   tau( 326) = (   0.1250000   0.2500000   0.5000000  )
       327           C   tau( 327) = (   0.1250000   0.2500000   0.7500000  )
       328           C   tau( 328) = (   0.1250000   0.5000000   0.0000000  )
       329           C   tau( 329) = (   0.1250000   0.5000000   0.2500000  )
       330           C   tau( 330) = (   0.1250000   0.5000000   0.5000000  )
       331           C   tau( 331) = (   0.1250000   0.5000000   0.7500000  )
       332           C   tau( 332) = (   0.1250000   0.7500000   0.0000000  )
       333           C   tau( 333) = (   0.1250000   0.7500000   0.2500000  )
       334           C   tau( 334) = (   0.1250000   0.7500000   0.5000000  )
       335           C   tau( 335) = (   0.1250000   0.7500000   0.7500000  )
       336           C   tau( 336) = (   0.3750000   0.0000000   0.0000000  )
       337           C   tau( 337) = (   0.3750000   0.0000000   0.2500000  )
       338           C   tau( 338) = (   0.3750000   0.0000000   0.5000000  )
       339           C   tau( 339) = (   0.3750000   0.0000000   0.7500000  )
       340           C   tau( 340) = (   0.3750000   0.2500000   0.0000000  )
       341           C   tau( 341) = (   0.3750000   0.2500000   0.2500000  )
       342           C   tau( 342) = (   0.3750000   0.2500000   0.5000000  )
       343           C   tau( 343) = (   0.3750000   0.2500000   0.7500000  )
       344           C   tau( 344) = (   0.3750000   0.5000000   0.0000000  )
       345           C   tau( 345) = (   0.3750000   0.5000000   0.2500000  )
       346           C   tau( 346) = (   0.3750000   0.5000000   0.5000000  )
       347           C   tau( 347) = (   0.3750000   0.5000000   0.7500000  )
       348           C   tau( 348) = (   0.3750000   0.7500000   0.0000000  )
       349           C   tau( 349) = (   0.3750000   0.7500000   0.2500000  )
       350           C   tau( 350) = (   0.3750000   0.7500000   0.5000000  )
       351           C   tau( 351) = (   0.3750000   0.7500000   0.7500000  )
       352           C   tau( 352) = (   0.6250000   0.0000000   0.0000000  )
       353           C   tau( 353) = (   0.6250000   0.0000000   0.2500000  )
       354           C   tau( 354) = (   0.6250000   0.0000000   0.5000000  )
       355           C   tau( 355) = (   0.6250000   0.0000000   0.7500000  )
       356           C   tau( 356) = (   0.6250000   0.2500000   0.0000000  )
       357           C   tau( 357) = (   0.6250000   0.2500000   0.2500000  )
       358           C   tau( 358) = (   0.6250000   0.2500000   0.5000000  )
       359           C   tau( 359) = (   0.6250000   0.2500000   0.7500000  )
       360           C   tau( 360) = (   0.6250000   0.5000000   0.0000000  )
       361           C   tau( 361) = (   0.6250000   0.5000000   0.2500000  )
       362           C   tau( 362) = (   0.6250000   0.5000000   0.5000000  )
       363           C   tau( 363) = (   0.6250000   0.5000000   0.7500000  )
       364           C   tau( 364) = (   0.6250000   0.7500000   0.0000000  )
       365           C   tau( 365) = (   0.6250000   0.7500000   0.2500000  )
       366           C   tau( 366) = (   0.6250000   0.7500000   0.5000000  )
       367           C   tau( 367) = (   0.6250000   0.7500000   0.7500000  )
       368           C   tau( 368) = (   0.8750000   0.0000000   0.0000000  )
       369           C   tau( 369) = (   0.8750000   0.0000000   0.2500000  )
       370           C   tau( 370) = (   0.8750000   0.0000000   0.5000000  )
       371           C   tau( 371) = (   0.8750000   0.0000000   0.7500000  )
       372           C   tau( 372) = (   0.8750000   0.2500000   0.0000000  )
       373           C   tau( 373) = (   0.8750000   0.2500000   0.2500000  )
       374           C   tau( 374) = (   0.8750000   0.2500000   0.5000000  )
       375           C   tau( 375) = (   0.8750000   0.2500000   0.7500000  )
       376           C   tau( 376) = (   0.8750000   0.5000000   0.0000000  )
       377           C   tau( 377) = (   0.8750000   0.5000000   0.2500000  )
       378           C   tau( 378) = (   0.8750000   0.5000000   0.5000000  )
       379           C   tau( 379) = (   0.8750000   0.5000000   0.7500000  )
       380           C   tau( 380) = (   0.8750000   0.7500000   0.0000000  )
       381           C   tau( 381) = (   0.8750000   0.7500000   0.2500000  )
       382           C   tau( 382) = (   0.8750000   0.7500000   0.5000000  )
       383           C   tau( 383) = (   0.8750000   0.7500000   0.7500000  )
       384           C   tau( 384) = (   0.1874985   0.0625015   0.0625015  )
       385           C   tau( 385) = (   0.1874985   0.0625015   0.3125015  )
       386           C   tau( 386) = (   0.1874985   0.0625015   0.5625015  )
       387           C   tau( 387) = (   0.1874985   0.0625015   0.8125015  )
       388           C   tau( 388) = (   0.1874985   0.3125015   0.0625015  )
       389           C   tau( 389) = (   0.1874985   0.3125015   0.3125015  )
       390           C   tau( 390) = (   0.1874985   0.3125015   0.5625015  )
       391           C   tau( 391) = (   0.1874985   0.3125015   0.8125015  )
       392           C   tau( 392) = (   0.1874985   0.5625015   0.0625015  )
       393           C   tau( 393) = (   0.1874985   0.5625015   0.3125015  )
       394           C   tau( 394) = (   0.1874985   0.5625015   0.5625015  )
       395           C   tau( 395) = (   0.1874985   0.5625015   0.8125015  )
       396           C   tau( 396) = (   0.1874985   0.8125015   0.0625015  )
       397           C   tau( 397) = (   0.1874985   0.8125015   0.3125015  )
       398           C   tau( 398) = (   0.1874985   0.8125015   0.5625015  )
       399           C   tau( 399) = (   0.1874985   0.8125015   0.8125015  )
       400           C   tau( 400) = (   0.4374985   0.0625015   0.0625015  )
       401           C   tau( 401) = (   0.4374985   0.0625015   0.3125015  )
       402           C   tau( 402) = (   0.4374985   0.0625015   0.5625015  )
       403           C   tau( 403) = (   0.4374985   0.0625015   0.8125015  )
       404           C   tau( 404) = (   0.4374985   0.3125015   0.0625015  )
       405           C   tau( 405) = (   0.4374985   0.3125015   0.3125015  )
       406           C   tau( 406) = (   0.4374985   0.3125015   0.5625015  )
       407           C   tau( 407) = (   0.4374985   0.3125015   0.8125015  )
       408           C   tau( 408) = (   0.4374985   0.5625015   0.0625015  )
       409           C   tau( 409) = (   0.4374985   0.5625015   0.3125015  )
       410           C   tau( 410) = (   0.4374985   0.5625015   0.5625015  )
       411           C   tau( 411) = (   0.4374985   0.5625015   0.8125015  )
       412           C   tau( 412) = (   0.4374985   0.8125015   0.0625015  )
       413           C   tau( 413) = (   0.4374985   0.8125015   0.3125015  )
       414           C   tau( 414) = (   0.4374985   0.8125015   0.5625015  )
       415           C   tau( 415) = (   0.4374985   0.8125015   0.8125015  )
       416           C   tau( 416) = (   0.6874985   0.0625015   0.0625015  )
       417           C   tau( 417) = (   0.6874985   0.0625015   0.3125015  )
       418           C   tau( 418) = (   0.6874985   0.0625015   0.5625015  )
       419           C   tau( 419) = (   0.6874985   0.0625015   0.8125015  )
       420           C   tau( 420) = (   0.6874985   0.3125015   0.0625015  )
       421           C   tau( 421) = (   0.6874985   0.3125015   0.3125015  )
       422           C   tau( 422) = (   0.6874985   0.3125015   0.5625015  )
       423           C   tau( 423) = (   0.6874985   0.3125015   0.8125015  )
       424           C   tau( 424) = (   0.6874985   0.5625015   0.0625015  )
       425           C   tau( 425) = (   0.6874985   0.5625015   0.3125015  )
       426           C   tau( 426) = (   0.6874985   0.5625015   0.5625015  )
       427           C   tau( 427) = (   0.6874985   0.5625015   0.8125015  )
       428           C   tau( 428) = (   0.6874985   0.8125015   0.0625015  )
       429           C   tau( 429) = (   0.6874985   0.8125015   0.3125015  )
       430           C   tau( 430) = (   0.6874985   0.8125015   0.5625015  )
       431           C   tau( 431) = (   0.6874985   0.8125015   0.8125015  )
       432           C   tau( 432) = (   0.9374985   0.0625015   0.0625015  )
       433           C   tau( 433) = (   0.9374985   0.0625015   0.3125015  )
       434           C   tau( 434) = (   0.9374985   0.0625015   0.5625015  )
       435           C   tau( 435) = (   0.9374985   0.0625015   0.8125015  )
       436           C   tau( 436) = (   0.9374985   0.3125015   0.0625015  )
       437           C   tau( 437) = (   0.9374985   0.3125015   0.3125015  )
       438           C   tau( 438) = (   0.9374985   0.3125015   0.5625015  )
       439           C   tau( 439) = (   0.9374985   0.3125015   0.8125015  )
       440           C   tau( 440) = (   0.9374985   0.5625015   0.0625015  )
       441           C   tau( 441) = (   0.9374985   0.5625015   0.3125015  )
       442           C   tau( 442) = (   0.9374985   0.5625015   0.5625015  )
       443           C   tau( 443) = (   0.9374985   0.5625015   0.8125015  )
       444           C   tau( 444) = (   0.9374985   0.8125015   0.0625015  )
       445           C   tau( 445) = (   0.9374985   0.8125015   0.3125015  )
       446           C   tau( 446) = (   0.9374985   0.8125015   0.5625015  )
       447           C   tau( 447) = (   0.9374985   0.8125015   0.8125015  )
       448           C   tau( 448) = (   0.1250000   0.1250000   0.1250000  )
       449           C   tau( 449) = (   0.1250000   0.1250000   0.3750000  )
       450           C   tau( 450) = (   0.1250000   0.1250000   0.6250000  )
       451           C   tau( 451) = (   0.1250000   0.1250000   0.8750000  )
       452           C   tau( 452) = (   0.1250000   0.3750000   0.1250000  )
       453           C   tau( 453) = (   0.1250000   0.3750000   0.3750000  )
       454           C   tau( 454) = (   0.1250000   0.3750000   0.6250000  )
       455           C   tau( 455) = (   0.1250000   0.3750000   0.8750000  )
       456           C   tau( 456) = (   0.1250000   0.6250000   0.1250000  )
       457           C   tau( 457) = (   0.1250000   0.6250000   0.3750000  )
       458           C   tau( 458) = (   0.1250000   0.6250000   0.6250000  )
       459           C   tau( 459) = (   0.1250000   0.6250000   0.8750000  )
       460           C   tau( 460) = (   0.1250000   0.8750000   0.1250000  )
       461           C   tau( 461) = (   0.1250000   0.8750000   0.3750000  )
       462           C   tau( 462) = (   0.1250000   0.8750000   0.6250000  )
       463           C   tau( 463) = (   0.1250000   0.8750000   0.8750000  )
       464           C   tau( 464) = (   0.3750000   0.1250000   0.1250000  )
       465           C   tau( 465) = (   0.3750000   0.1250000   0.3750000  )
       466           C   tau( 466) = (   0.3750000   0.1250000   0.6250000  )
       467           C   tau( 467) = (   0.3750000   0.1250000   0.8750000  )
       468           C   tau( 468) = (   0.3750000   0.3750000   0.1250000  )
       469           C   tau( 469) = (   0.3750000   0.3750000   0.3750000  )
       470           C   tau( 470) = (   0.3750000   0.3750000   0.6250000  )
       471           C   tau( 471) = (   0.3750000   0.3750000   0.8750000  )
       472           C   tau( 472) = (   0.3750000   0.6250000   0.1250000  )
       473           C   tau( 473) = (   0.3750000   0.6250000   0.3750000  )
       474           C   tau( 474) = (   0.3750000   0.6250000   0.6250000  )
       475           C   tau( 475) = (   0.3750000   0.6250000   0.8750000  )
       476           C   tau( 476) = (   0.3750000   0.8750000   0.1250000  )
       477           C   tau( 477) = (   0.3750000   0.8750000   0.3750000  )
       478           C   tau( 478) = (   0.3750000   0.8750000   0.6250000  )
       479           C   tau( 479) = (   0.3750000   0.8750000   0.8750000  )
       480           C   tau( 480) = (   0.6250000   0.1250000   0.1250000  )
       481           C   tau( 481) = (   0.6250000   0.1250000   0.3750000  )
       482           C   tau( 482) = (   0.6250000   0.1250000   0.6250000  )
       483           C   tau( 483) = (   0.6250000   0.1250000   0.8750000  )
       484           C   tau( 484) = (   0.6250000   0.3750000   0.1250000  )
       485           C   tau( 485) = (   0.6250000   0.3750000   0.3750000  )
       486           C   tau( 486) = (   0.6250000   0.3750000   0.6250000  )
       487           C   tau( 487) = (   0.6250000   0.3750000   0.8750000  )
       488           C   tau( 488) = (   0.6250000   0.6250000   0.1250000  )
       489           C   tau( 489) = (   0.6250000   0.6250000   0.3750000  )
       490           C   tau( 490) = (   0.6250000   0.6250000   0.6250000  )
       491           C   tau( 491) = (   0.6250000   0.6250000   0.8750000  )
       492           C   tau( 492) = (   0.6250000   0.8750000   0.1250000  )
       493           C   tau( 493) = (   0.6250000   0.8750000   0.3750000  )
       494           C   tau( 494) = (   0.6250000   0.8750000   0.6250000  )
       495           C   tau( 495) = (   0.6250000   0.8750000   0.8750000  )
       496           C   tau( 496) = (   0.8750000   0.1250000   0.1250000  )
       497           C   tau( 497) = (   0.8750000   0.1250000   0.3750000  )
       498           C   tau( 498) = (   0.8750000   0.1250000   0.6250000  )
       499           C   tau( 499) = (   0.8750000   0.1250000   0.8750000  )
       500           C   tau( 500) = (   0.8750000   0.3750000   0.1250000  )
       501           C   tau( 501) = (   0.8750000   0.3750000   0.3750000  )
       502           C   tau( 502) = (   0.8750000   0.3750000   0.6250000  )
       503           C   tau( 503) = (   0.8750000   0.3750000   0.8750000  )
       504           C   tau( 504) = (   0.8750000   0.6250000   0.1250000  )
       505           C   tau( 505) = (   0.8750000   0.6250000   0.3750000  )
       506           C   tau( 506) = (   0.8750000   0.6250000   0.6250000  )
       507           C   tau( 507) = (   0.8750000   0.6250000   0.8750000  )
       508           C   tau( 508) = (   0.8750000   0.8750000   0.1250000  )
       509           C   tau( 509) = (   0.8750000   0.8750000   0.3750000  )
       510           C   tau( 510) = (   0.8750000   0.8750000   0.6250000  )
       511           C   tau( 511) = (   0.8750000   0.8750000   0.8750000  )

   Crystallographic axes

     site n.     atom                  positions (cryst. coord.)
         1           C   tau(   1) = (  0.0625015  0.1874985  0.3125015  )
         2           C   tau(   2) = (  0.0625015  0.1874985  0.5625015  )
         3           C   tau(   3) = (  0.0625015  0.1874985  0.8125015  )
         4           C   tau(   4) = (  0.0625015  0.4374985  0.0625015  )
         5           C   tau(   5) = (  0.0625015  0.4374985  0.3125015  )
         6           C   tau(   6) = (  0.0625015  0.4374985  0.5625015  )
         7           C   tau(   7) = (  0.0625015  0.4374985  0.8125015  )
         8           C   tau(   8) = (  0.0625015  0.6874985  0.0625015  )
         9           C   tau(   9) = (  0.0625015  0.6874985  0.3125015  )
        10           C   tau(  10) = (  0.0625015  0.6874985  0.5625015  )
        11           C   tau(  11) = (  0.0625015  0.6874985  0.8125015  )
        12           C   tau(  12) = (  0.0625015  0.9374985  0.0625015  )
        13           C   tau(  13) = (  0.0625015  0.9374985  0.3125015  )
        14           C   tau(  14) = (  0.0625015  0.9374985  0.5625015  )
        15           C   tau(  15) = (  0.0625015  0.9374985  0.8125015  )
        16           C   tau(  16) = (  0.3125015  0.1874985  0.0625015  )
        17           C   tau(  17) = (  0.3125015  0.1874985  0.3125015  )
        18           C   tau(  18) = (  0.3125015  0.1874985  0.5625015  )
        19           C   tau(  19) = (  0.3125015  0.1874985  0.8125015  )
        20           C   tau(  20) = (  0.3125015  0.4374985  0.0625015  )
        21           C   tau(  21) = (  0.3125015  0.4374985  0.3125015  )
        22           C   tau(  22) = (  0.3125015  0.4374985  0.5625015  )
        23           C   tau(  23) = (  0.3125015  0.4374985  0.8125015  )
        24           C   tau(  24) = (  0.3125015  0.6874985  0.0625015  )
        25           C   tau(  25) = (  0.3125015  0.6874985  0.3125015  )
        26           C   tau(  26) = (  0.3125015  0.6874985  0.5625015  )
        27           C   tau(  27) = (  0.3125015  0.6874985  0.8125015  )
        28           C   tau(  28) = (  0.3125015  0.9374985  0.0625015  )
        29           C   tau(  29) = (  0.3125015  0.9374985  0.3125015  )
        30           C   tau(  30) = (  0.3125015  0.9374985  0.5625015  )
        31           C   tau(  31) = (  0.3125015  0.9374985  0.8125015  )
        32           C   tau(  32) = (  0.5625015  0.1874985  0.0625015  )
        33           C   tau(  33) = (  0.5625015  0.1874985  0.3125015  )
        34           C   tau(  34) = (  0.5625015  0.1874985  0.5625015  )
        35           C   tau(  35) = (  0.5625015  0.1874985  0.8125015  )
        36           C   tau(  36) = (  0.5625015  0.4374985  0.0625015  )
        37           C   tau(  37) = (  0.5625015  0.4374985  0.3125015  )
        38           C   tau(  38) = (  0.5625015  0.4374985  0.5625015  )
        39           C   tau(  39) = (  0.5625015  0.4374985  0.8125015  )
        40           C   tau(  40) = (  0.5625015  0.6874985  0.0625015  )
        41           C   tau(  41) = (  0.5625015  0.6874985  0.3125015  )
        42           C   tau(  42) = (  0.5625015  0.6874985  0.5625015  )
        43           C   tau(  43) = (  0.5625015  0.6874985  0.8125015  )
        44           C   tau(  44) = (  0.5625015  0.9374985  0.0625015  )
        45           C   tau(  45) = (  0.5625015  0.9374985  0.3125015  )
        46           C   tau(  46) = (  0.5625015  0.9374985  0.5625015  )
        47           C   tau(  47) = (  0.5625015  0.9374985  0.8125015  )
        48           C   tau(  48) = (  0.8125015  0.1874985  0.0625015  )
        49           C   tau(  49) = (  0.8125015  0.1874985  0.3125015  )
        50           C   tau(  50) = (  0.8125015  0.1874985  0.5625015  )
        51           C   tau(  51) = (  0.8125015  0.1874985  0.8125015  )
        52           C   tau(  52) = (  0.8125015  0.4374985  0.0625015  )
        53           C   tau(  53) = (  0.8125015  0.4374985  0.3125015  )
        54           C   tau(  54) = (  0.8125015  0.4374985  0.5625015  )
        55           C   tau(  55) = (  0.8125015  0.4374985  0.8125015  )
        56           C   tau(  56) = (  0.8125015  0.6874985  0.0625015  )
        57           C   tau(  57) = (  0.8125015  0.6874985  0.3125015  )
        58           C   tau(  58) = (  0.8125015  0.6874985  0.5625015  )
        59           C   tau(  59) = (  0.8125015  0.6874985  0.8125015  )
        60           C   tau(  60) = (  0.8125015  0.9374985  0.0625015  )
        61           C   tau(  61) = (  0.8125015  0.9374985  0.3125015  )
        62           C   tau(  62) = (  0.8125015  0.9374985  0.5625015  )
        63           C   tau(  63) = (  0.8125015  0.9374985  0.8125015  )
        64           C   tau(  64) = (  0.0000000  0.0000000  0.1250000  )
        65           C   tau(  65) = (  0.0000000  0.0000000  0.3750000  )
        66           C   tau(  66) = (  0.0000000  0.0000000  0.6250000  )
        67           C   tau(  67) = (  0.0000000  0.0000000  0.8750000  )
        68           C   tau(  68) = (  0.0000000  0.2500000  0.1250000  )
        69           C   tau(  69) = (  0.0000000  0.2500000  0.3750000  )
        70           C   tau(  70) = (  0.0000000  0.2500000  0.6250000  )
        71           C   tau(  71) = (  0.0000000  0.2500000  0.8750000  )
        72           C   tau(  72) = (  0.0000000  0.5000000  0.1250000  )
        73           C   tau(  73) = (  0.0000000  0.5000000  0.3750000  )
        74           C   tau(  74) = (  0.0000000  0.5000000  0.6250000  )
        75           C   tau(  75) = (  0.0000000  0.5000000  0.8750000  )
        76           C   tau(  76) = (  0.0000000  0.7500000  0.1250000  )
        77           C   tau(  77) = (  0.0000000  0.7500000  0.3750000  )
        78           C   tau(  78) = (  0.0000000  0.7500000  0.6250000  )
        79           C   tau(  79) = (  0.0000000  0.7500000  0.8750000  )
        80           C   tau(  80) = (  0.2500000  0.0000000  0.1250000  )
        81           C   tau(  81) = (  0.2500000  0.0000000  0.3750000  )
        82           C   tau(  82) = (  0.2500000  0.0000000  0.6250000  )
        83           C   tau(  83) = (  0.2500000  0.0000000  0.8750000  )
        84           C   tau(  84) = (  0.2500000  0.2500000  0.1250000  )
        85           C   tau(  85) = (  0.2500000  0.2500000  0.3750000  )
        86           C   tau(  86) = (  0.2500000  0.2500000  0.6250000  )
        87           C   tau(  87) = (  0.2500000  0.2500000  0.8750000  )
        88           C   tau(  88) = (  0.2500000  0.5000000  0.1250000  )
        89           C   tau(  89) = (  0.2500000  0.5000000  0.3750000  )
        90           C   tau(  90) = (  0.2500000  0.5000000  0.6250000  )
        91           C   tau(  91) = (  0.2500000  0.5000000  0.8750000  )
        92           C   tau(  92) = (  0.2500000  0.7500000  0.1250000  )
        93           C   tau(  93) = (  0.2500000  0.7500000  0.3750000  )
        94           C   tau(  94) = (  0.2500000  0.7500000  0.6250000  )
        95           C   tau(  95) = (  0.2500000  0.7500000  0.8750000  )
        96           C   tau(  96) = (  0.5000000  0.0000000  0.1250000  )
        97           C   tau(  97) = (  0.5000000  0.0000000  0.3750000  )
        98           C   tau(  98) = (  0.5000000  0.0000000  0.6250000  )
        99           C   tau(  99) = (  0.5000000  0.0000000  0.8750000  )
       100           C   tau( 100) = (  0.5000000  0.2500000  0.1250000  )
       101           C   tau( 101) = (  0.5000000  0.2500000  0.3750000  )
       102           C   tau( 102) = (  0.5000000  0.2500000  0.6250000  )
       103           C   tau( 103) = (  0.5000000  0.2500000  0.8750000  )
       104           C   tau( 104) = (  0.5000000  0.5000000  0.1250000  )
       105           C   tau( 105) = (  0.5000000  0.5000000  0.3750000  )
       106           C   tau( 106) = (  0.5000000  0.5000000  0.6250000  )
       107           C   tau( 107) = (  0.5000000  0.5000000  0.8750000  )
       108           C   tau( 108) = (  0.5000000  0.7500000  0.1250000  )
       109           C   tau( 109) = (  0.5000000  0.7500000  0.3750000  )
       110           C   tau( 110) = (  0.5000000  0.7500000  0.6250000  )
       111           C   tau( 111) = (  0.5000000  0.7500000  0.8750000  )
       112           C   tau( 112) = (  0.7500000  0.0000000  0.1250000  )
       113           C   tau( 113) = (  0.7500000  0.0000000  0.3750000  )
       114           C   tau( 114) = (  0.7500000  0.0000000  0.6250000  )
       115           C   tau( 115) = (  0.7500000  0.0000000  0.8750000  )
       116           C   tau( 116) = (  0.7500000  0.2500000  0.1250000  )
       117           C   tau( 117) = (  0.7500000  0.2500000  0.3750000  )
       118           C   tau( 118) = (  0.7500000  0.2500000  0.6250000  )
       119           C   tau( 119) = (  0.7500000  0.2500000  0.8750000  )
       120           C   tau( 120) = (  0.7500000  0.5000000  0.1250000  )
       121           C   tau( 121) = (  0.7500000  0.5000000  0.3750000  )
       122           C   tau( 122) = (  0.7500000  0.5000000  0.6250000  )
       123           C   tau( 123) = (  0.7500000  0.5000000  0.8750000  )
       124           C   tau( 124) = (  0.7500000  0.7500000  0.1250000  )
       125           C   tau( 125) = (  0.7500000  0.7500000  0.3750000  )
       126           C   tau( 126) = (  0.7500000  0.7500000  0.6250000  )
       127           C   tau( 127) = (  0.7500000  0.7500000  0.8750000  )
       128           C   tau( 128) = (  0.0625015  0.0625015  0.1874985  )
       129           C   tau( 129) = (  0.0625015  0.0625015  0.4374985  )
       130           C   tau( 130) = (  0.0625015  0.0625015  0.6874985  )
       131           C   tau( 131) = (  0.0625015  0.0625015  0.9374985  )
       132           C   tau( 132) = (  0.0625015  0.3125015  0.1874985  )
       133           C   tau( 133) = (  0.0625015  0.3125015  0.4374985  )
       134           C   tau( 134) = (  0.0625015  0.3125015  0.6874985  )
       135           C   tau( 135) = (  0.0625015  0.3125015  0.9374985  )
       136           C   tau( 136) = (  0.0625015  0.5625015  0.1874985  )
       137           C   tau( 137) = (  0.0625015  0.5625015  0.4374985  )
       138           C   tau( 138) = (  0.0625015  0.5625015  0.6874985  )
       139           C   tau( 139) = (  0.0625015  0.5625015  0.9374985  )
       140           C   tau( 140) = (  0.0625015  0.8125015  0.1874985  )
       141           C   tau( 141) = (  0.0625015  0.8125015  0.4374985  )
       142           C   tau( 142) = (  0.0625015  0.8125015  0.6874985  )
       143           C   tau( 143) = (  0.0625015  0.8125015  0.9374985  )
       144           C   tau( 144) = (  0.3125015  0.0625015  0.1874985  )
       145           C   tau( 145) = (  0.3125015  0.0625015  0.4374985  )
       146           C   tau( 146) = (  0.3125015  0.0625015  0.6874985  )
       147           C   tau( 147) = (  0.3125015  0.0625015  0.9374985  )
       148           C   tau( 148) = (  0.3125015  0.3125015  0.1874985  )
       149           C   tau( 149) = (  0.3125015  0.3125015  0.4374985  )
       150           C   tau( 150) = (  0.3125015  0.3125015  0.6874985  )
       151           C   tau( 151) = (  0.3125015  0.3125015  0.9374985  )
       152           C   tau( 152) = (  0.3125015  0.5625015  0.1874985  )
       153           C   tau( 153) = (  0.3125015  0.5625015  0.4374985  )
       154           C   tau( 154) = (  0.3125015  0.5625015  0.6874985  )
       155           C   tau( 155) = (  0.3125015  0.5625015  0.9374985  )
       156           C   tau( 156) = (  0.3125015  0.8125015  0.1874985  )
       157           C   tau( 157) = (  0.3125015  0.8125015  0.4374985  )
       158           C   tau( 158) = (  0.3125015  0.8125015  0.6874985  )
       159           C   tau( 159) = (  0.3125015  0.8125015  0.9374985  )
       160           C   tau( 160) = (  0.5625015  0.0625015  0.1874985  )
       161           C   tau( 161) = (  0.5625015  0.0625015  0.4374985  )
       162           C   tau( 162) = (  0.5625015  0.0625015  0.6874985  )
       163           C   tau( 163) = (  0.5625015  0.0625015  0.9374985  )
       164           C   tau( 164) = (  0.5625015  0.3125015  0.1874985  )
       165           C   tau( 165) = (  0.5625015  0.3125015  0.4374985  )
       166           C   tau( 166) = (  0.5625015  0.3125015  0.6874985  )
       167           C   tau( 167) = (  0.5625015  0.3125015  0.9374985  )
       168           C   tau( 168) = (  0.5625015  0.5625015  0.1874985  )
       169           C   tau( 169) = (  0.5625015  0.5625015  0.4374985  )
       170           C   tau( 170) = (  0.5625015  0.5625015  0.6874985  )
       171           C   tau( 171) = (  0.5625015  0.5625015  0.9374985  )
       172           C   tau( 172) = (  0.5625015  0.8125015  0.1874985  )
       173           C   tau( 173) = (  0.5625015  0.8125015  0.4374985  )
       174           C   tau( 174) = (  0.5625015  0.8125015  0.6874985  )
       175           C   tau( 175) = (  0.5625015  0.8125015  0.9374985  )
       176           C   tau( 176) = (  0.8125015  0.0625015  0.1874985  )
       177           C   tau( 177) = (  0.8125015  0.0625015  0.4374985  )
       178           C   tau( 178) = (  0.8125015  0.0625015  0.6874985  )
       179           C   tau( 179) = (  0.8125015  0.0625015  0.9374985  )
       180           C   tau( 180) = (  0.8125015  0.3125015  0.1874985  )
       181           C   tau( 181) = (  0.8125015  0.3125015  0.4374985  )
       182           C   tau( 182) = (  0.8125015  0.3125015  0.6874985  )
       183           C   tau( 183) = (  0.8125015  0.3125015  0.9374985  )
       184           C   tau( 184) = (  0.8125015  0.5625015  0.1874985  )
       185           C   tau( 185) = (  0.8125015  0.5625015  0.4374985  )
       186           C   tau( 186) = (  0.8125015  0.5625015  0.6874985  )
       187           C   tau( 187) = (  0.8125015  0.5625015  0.9374985  )
       188           C   tau( 188) = (  0.8125015  0.8125015  0.1874985  )
       189           C   tau( 189) = (  0.8125015  0.8125015  0.4374985  )
       190           C   tau( 190) = (  0.8125015  0.8125015  0.6874985  )
       191           C   tau( 191) = (  0.8125015  0.8125015  0.9374985  )
       192           C   tau( 192) = (  0.0000000  0.1250000  0.0000000  )
       193           C   tau( 193) = (  0.0000000  0.1250000  0.2500000  )
       194           C   tau( 194) = (  0.0000000  0.1250000  0.5000000  )
       195           C   tau( 195) = (  0.0000000  0.1250000  0.7500000  )
       196           C   tau( 196) = (  0.0000000  0.3750000  0.0000000  )
       197           C   tau( 197) = (  0.0000000  0.3750000  0.2500000  )
       198           C   tau( 198) = (  0.0000000  0.3750000  0.5000000  )
       199           C   tau( 199) = (  0.0000000  0.3750000  0.7500000  )
       200           C   tau( 200) = (  0.0000000  0.6250000  0.0000000  )
       201           C   tau( 201) = (  0.0000000  0.6250000  0.2500000  )
       202           C   tau( 202) = (  0.0000000  0.6250000  0.5000000  )
       203           C   tau( 203) = (  0.0000000  0.6250000  0.7500000  )
       204           C   tau( 204) = (  0.0000000  0.8750000  0.0000000  )
       205           C   tau( 205) = (  0.0000000  0.8750000  0.2500000  )
       206           C   tau( 206) = (  0.0000000  0.8750000  0.5000000  )
       207           C   tau( 207) = (  0.0000000  0.8750000  0.7500000  )
       208           C   tau( 208) = (  0.2500000  0.1250000  0.0000000  )
       209           C   tau( 209) = (  0.2500000  0.1250000  0.2500000  )
       210           C   tau( 210) = (  0.2500000  0.1250000  0.5000000  )
       211           C   tau( 211) = (  0.2500000  0.1250000  0.7500000  )
       212           C   tau( 212) = (  0.2500000  0.3750000  0.0000000  )
       213           C   tau( 213) = (  0.2500000  0.3750000  0.2500000  )
       214           C   tau( 214) = (  0.2500000  0.3750000  0.5000000  )
       215           C   tau( 215) = (  0.2500000  0.3750000  0.7500000  )
       216           C   tau( 216) = (  0.2500000  0.6250000  0.0000000  )
       217           C   tau( 217) = (  0.2500000  0.6250000  0.2500000  )
       218           C   tau( 218) = (  0.2500000  0.6250000  0.5000000  )
       219           C   tau( 219) = (  0.2500000  0.6250000  0.7500000  )
       220           C   tau( 220) = (  0.2500000  0.8750000  0.0000000  )
       221           C   tau( 221) = (  0.2500000  0.8750000  0.2500000  )
       222           C   tau( 222) = (  0.2500000  0.8750000  0.5000000  )
       223           C   tau( 223) = (  0.2500000  0.8750000  0.7500000  )
       224           C   tau( 224) = (  0.5000000  0.1250000  0.0000000  )
       225           C   tau( 225) = (  0.5000000  0.1250000  0.2500000  )
       226           C   tau( 226) = (  0.5000000  0.1250000  0.5000000  )
       227           C   tau( 227) = (  0.5000000  0.1250000  0.7500000  )
       228           C   tau( 228) = (  0.5000000  0.3750000  0.0000000  )
       229           C   tau( 229) = (  0.5000000  0.3750000  0.2500000  )
       230           C   tau( 230) = (  0.5000000  0.3750000  0.5000000  )
       231           C   tau( 231) = (  0.5000000  0.3750000  0.7500000  )
       232           C   tau( 232) = (  0.5000000  0.6250000  0.0000000  )
       233           C   tau( 233) = (  0.5000000  0.6250000  0.2500000  )
       234           C   tau( 234) = (  0.5000000  0.6250000  0.5000000  )
       235           C   tau( 235) = (  0.5000000  0.6250000  0.7500000  )
       236           C   tau( 236) = (  0.5000000  0.8750000  0.0000000  )
       237           C   tau( 237) = (  0.5000000  0.8750000  0.2500000  )
       238           C   tau( 238) = (  0.5000000  0.8750000  0.5000000  )
       239           C   tau( 239) = (  0.5000000  0.8750000  0.7500000  )
       240           C   tau( 240) = (  0.7500000  0.1250000  0.0000000  )
       241           C   tau( 241) = (  0.7500000  0.1250000  0.2500000  )
       242           C   tau( 242) = (  0.7500000  0.1250000  0.5000000  )
       243           C   tau( 243) = (  0.7500000  0.1250000  0.7500000  )
       244           C   tau( 244) = (  0.7500000  0.3750000  0.0000000  )
       245           C   tau( 245) = (  0.7500000  0.3750000  0.2500000  )
       246           C   tau( 246) = (  0.7500000  0.3750000  0.5000000  )
       247           C   tau( 247) = (  0.7500000  0.3750000  0.7500000  )
       248           C   tau( 248) = (  0.7500000  0.6250000  0.0000000  )
       249           C   tau( 249) = (  0.7500000  0.6250000  0.2500000  )
       250           C   tau( 250) = (  0.7500000  0.6250000  0.5000000  )
       251           C   tau( 251) = (  0.7500000  0.6250000  0.7500000  )
       252           C   tau( 252) = (  0.7500000  0.8750000  0.0000000  )
       253           C   tau( 253) = (  0.7500000  0.8750000  0.2500000  )
       254           C   tau( 254) = (  0.7500000  0.8750000  0.5000000  )
       255           C   tau( 255) = (  0.7500000  0.8750000  0.7500000  )
       256           C   tau( 256) = (  0.1874985  0.1874985  0.1874985  )
       257           C   tau( 257) = (  0.1874985  0.1874985  0.4374985  )
       258           C   tau( 258) = (  0.1874985  0.1874985  0.6874985  )
       259           C   tau( 259) = (  0.1874985  0.1874985  0.9374985  )
       260           C   tau( 260) = (  0.1874985  0.4374985  0.1874985  )
       261           C   tau( 261) = (  0.1874985  0.4374985  0.4374985  )
       262           C   tau( 262) = (  0.1874985  0.4374985  0.6874985  )
       263           C   tau( 263) = (  0.1874985  0.4374985  0.9374985  )
       264           C   tau( 264) = (  0.1874985  0.6874985  0.1874985  )
       265           C   tau( 265) = (  0.1874985  0.6874985  0.4374985  )
       266           C   tau( 266) = (  0.1874985  0.6874985  0.6874985  )
       267           C   tau( 267) = (  0.1874985  0.6874985  0.9374985  )
       268           C   tau( 268) = (  0.1874985  0.9374985  0.1874985  )
       269           C   tau( 269) = (  0.1874985  0.9374985  0.4374985  )
       270           C   tau( 270) = (  0.1874985  0.9374985  0.6874985  )
       271           C   tau( 271) = (  0.1874985  0.9374985  0.9374985  )
       272           C   tau( 272) = (  0.4374985  0.1874985  0.1874985  )
       273           C   tau( 273) = (  0.4374985  0.1874985  0.4374985  )
       274           C   tau( 274) = (  0.4374985  0.1874985  0.6874985  )
       275           C   tau( 275) = (  0.4374985  0.1874985  0.9374985  )
       276           C   tau( 276) = (  0.4374985  0.4374985  0.1874985  )
       277           C   tau( 277) = (  0.4374985  0.4374985  0.4374985  )
       278           C   tau( 278) = (  0.4374985  0.4374985  0.6874985  )
       279           C   tau( 279) = (  0.4374985  0.4374985  0.9374985  )
       280           C   tau( 280) = (  0.4374985  0.6874985  0.1874985  )
       281           C   tau( 281) = (  0.4374985  0.6874985  0.4374985  )
       282           C   tau( 282) = (  0.4374985  0.6874985  0.6874985  )
       283           C   tau( 283) = (  0.4374985  0.6874985  0.9374985  )
       284           C   tau( 284) = (  0.4374985  0.9374985  0.1874985  )
       285           C   tau( 285) = (  0.4374985  0.9374985  0.4374985  )
       286           C   tau( 286) = (  0.4374985  0.9374985  0.6874985  )
       287           C   tau( 287) = (  0.4374985  0.9374985  0.9374985  )
       288           C   tau( 288) = (  0.6874985  0.1874985  0.1874985  )
       289           C   tau( 289) = (  0.6874985  0.1874985  0.4374985  )
       290           C   tau( 290) = (  0.6874985  0.1874985  0.6874985  )
       291           C   tau( 291) = (  0.6874985  0.1874985  0.9374985  )
       292           C   tau( 292) = (  0.6874985  0.4374985  0.1874985  )
       293           C   tau( 293) = (  0.6874985  0.4374985  0.4374985  )
       294           C   tau( 294) = (  0.6874985  0.4374985  0.6874985  )
       295           C   tau( 295) = (  0.6874985  0.4374985  0.9374985  )
       296           C   tau( 296) = (  0.6874985  0.6874985  0.1874985  )
       297           C   tau( 297) = (  0.6874985  0.6874985  0.4374985  )
       298           C   tau( 298) = (  0.6874985  0.6874985  0.6874985  )
       299           C   tau( 299) = (  0.6874985  0.6874985  0.9374985  )
       300           C   tau( 300) = (  0.6874985  0.9374985  0.1874985  )
       301           C   tau( 301) = (  0.6874985  0.9374985  0.4374985  )
       302           C   tau( 302) = (  0.6874985  0.9374985  0.6874985  )
       303           C   tau( 303) = (  0.6874985  0.9374985  0.9374985  )
       304           C   tau( 304) = (  0.9374985  0.1874985  0.1874985  )
       305           C   tau( 305) = (  0.9374985  0.1874985  0.4374985  )
       306           C   tau( 306) = (  0.9374985  0.1874985  0.6874985  )
       307           C   tau( 307) = (  0.9374985  0.1874985  0.9374985  )
       308           C   tau( 308) = (  0.9374985  0.4374985  0.1874985  )
       309           C   tau( 309) = (  0.9374985  0.4374985  0.4374985  )
       310           C   tau( 310) = (  0.9374985  0.4374985  0.6874985  )
       311           C   tau( 311) = (  0.9374985  0.4374985  0.9374985  )
       312           C   tau( 312) = (  0.9374985  0.6874985  0.1874985  )
       313           C   tau( 313) = (  0.9374985  0.6874985  0.4374985  )
       314           C   tau( 314) = (  0.9374985  0.6874985  0.6874985  )
       315           C   tau( 315) = (  0.9374985  0.6874985  0.9374985  )
       316           C   tau( 316) = (  0.9374985  0.9374985  0.1874985  )
       317           C   tau( 317) = (  0.9374985  0.9374985  0.4374985  )
       318           C   tau( 318) = (  0.9374985  0.9374985  0.6874985  )
       319           C   tau( 319) = (  0.9374985  0.9374985  0.9374985  )
       320           C   tau( 320) = (  0.1250000  0.0000000  0.0000000  )
       321           C   tau( 321) = (  0.1250000  0.0000000  0.2500000  )
       322           C   tau( 322) = (  0.1250000  0.0000000  0.5000000  )
       323           C   tau( 323) = (  0.1250000  0.0000000  0.7500000  )
       324           C   tau( 324) = (  0.1250000  0.2500000  0.0000000  )
       325           C   tau( 325) = (  0.1250000  0.2500000  0.2500000  )
       326           C   tau( 326) = (  0.1250000  0.2500000  0.5000000  )
       327           C   tau( 327) = (  0.1250000  0.2500000  0.7500000  )
       328           C   tau( 328) = (  0.1250000  0.5000000  0.0000000  )
       329           C   tau( 329) = (  0.1250000  0.5000000  0.2500000  )
       330           C   tau( 330) = (  0.1250000  0.5000000  0.5000000  )
       331           C   tau( 331) = (  0.1250000  0.5000000  0.7500000  )
       332           C   tau( 332) = (  0.1250000  0.7500000  0.0000000  )
       333           C   tau( 333) = (  0.1250000  0.7500000  0.2500000  )
       334           C   tau( 334) = (  0.1250000  0.7500000  0.5000000  )
       335           C   tau( 335) = (  0.1250000  0.7500000  0.7500000  )
       336           C   tau( 336) = (  0.3750000  0.0000000  0.0000000  )
       337           C   tau( 337) = (  0.3750000  0.0000000  0.2500000  )
       338           C   tau( 338) = (  0.3750000  0.0000000  0.5000000  )
       339           C   tau( 339) = (  0.3750000  0.0000000  0.7500000  )
       340           C   tau( 340) = (  0.3750000  0.2500000  0.0000000  )
       341           C   tau( 341) = (  0.3750000  0.2500000  0.2500000  )
       342           C   tau( 342) = (  0.3750000  0.2500000  0.5000000  )
       343           C   tau( 343) = (  0.3750000  0.2500000  0.7500000  )
       344           C   tau( 344) = (  0.3750000  0.5000000  0.0000000  )
       345           C   tau( 345) = (  0.3750000  0.5000000  0.2500000  )
       346           C   tau( 346) = (  0.3750000  0.5000000  0.5000000  )
       347           C   tau( 347) = (  0.3750000  0.5000000  0.7500000  )
       348           C   tau( 348) = (  0.3750000  0.7500000  0.0000000  )
       349           C   tau( 349) = (  0.3750000  0.7500000  0.2500000  )
       350           C   tau( 350) = (  0.3750000  0.7500000  0.5000000  )
       351           C   tau( 351) = (  0.3750000  0.7500000  0.7500000  )
       352           C   tau( 352) = (  0.6250000  0.0000000  0.0000000  )
       353           C   tau( 353) = (  0.6250000  0.0000000  0.2500000  )
       354           C   tau( 354) = (  0.6250000  0.0000000  0.5000000  )
       355           C   tau( 355) = (  0.6250000  0.0000000  0.7500000  )
       356           C   tau( 356) = (  0.6250000  0.2500000  0.0000000  )
       357           C   tau( 357) = (  0.6250000  0.2500000  0.2500000  )
       358           C   tau( 358) = (  0.6250000  0.2500000  0.5000000  )
       359           C   tau( 359) = (  0.6250000  0.2500000  0.7500000  )
       360           C   tau( 360) = (  0.6250000  0.5000000  0.0000000  )
       361           C   tau( 361) = (  0.6250000  0.5000000  0.2500000  )
       362           C   tau( 362) = (  0.6250000  0.5000000  0.5000000  )
       363           C   tau( 363) = (  0.6250000  0.5000000  0.7500000  )
       364           C   tau( 364) = (  0.6250000  0.7500000  0.0000000  )
       365           C   tau( 365) = (  0.6250000  0.7500000  0.2500000  )
       366           C   tau( 366) = (  0.6250000  0.7500000  0.5000000  )
       367           C   tau( 367) = (  0.6250000  0.7500000  0.7500000  )
       368           C   tau( 368) = (  0.8750000  0.0000000  0.0000000  )
       369           C   tau( 369) = (  0.8750000  0.0000000  0.2500000  )
       370           C   tau( 370) = (  0.8750000  0.0000000  0.5000000  )
       371           C   tau( 371) = (  0.8750000  0.0000000  0.7500000  )
       372           C   tau( 372) = (  0.8750000  0.2500000  0.0000000  )
       373           C   tau( 373) = (  0.8750000  0.2500000  0.2500000  )
       374           C   tau( 374) = (  0.8750000  0.2500000  0.5000000  )
       375           C   tau( 375) = (  0.8750000  0.2500000  0.7500000  )
       376           C   tau( 376) = (  0.8750000  0.5000000  0.0000000  )
       377           C   tau( 377) = (  0.8750000  0.5000000  0.2500000  )
       378           C   tau( 378) = (  0.8750000  0.5000000  0.5000000  )
       379           C   tau( 379) = (  0.8750000  0.5000000  0.7500000  )
       380           C   tau( 380) = (  0.8750000  0.7500000  0.0000000  )
       381           C   tau( 381) = (  0.8750000  0.7500000  0.2500000  )
       382           C   tau( 382) = (  0.8750000  0.7500000  0.5000000  )
       383           C   tau( 383) = (  0.8750000  0.7500000  0.7500000  )
       384           C   tau( 384) = (  0.1874985  0.0625015  0.0625015  )
       385           C   tau( 385) = (  0.1874985  0.0625015  0.3125015  )
       386           C   tau( 386) = (  0.1874985  0.0625015  0.5625015  )
       387           C   tau( 387) = (  0.1874985  0.0625015  0.8125015  )
       388           C   tau( 388) = (  0.1874985  0.3125015  0.0625015  )
       389           C   tau( 389) = (  0.1874985  0.3125015  0.3125015  )
       390           C   tau( 390) = (  0.1874985  0.3125015  0.5625015  )
       391           C   tau( 391) = (  0.1874985  0.3125015  0.8125015  )
       392           C   tau( 392) = (  0.1874985  0.5625015  0.0625015  )
       393           C   tau( 393) = (  0.1874985  0.5625015  0.3125015  )
       394           C   tau( 394) = (  0.1874985  0.5625015  0.5625015  )
       395           C   tau( 395) = (  0.1874985  0.5625015  0.8125015  )
       396           C   tau( 396) = (  0.1874985  0.8125015  0.0625015  )
       397           C   tau( 397) = (  0.1874985  0.8125015  0.3125015  )
       398           C   tau( 398) = (  0.1874985  0.8125015  0.5625015  )
       399           C   tau( 399) = (  0.1874985  0.8125015  0.8125015  )
       400           C   tau( 400) = (  0.4374985  0.0625015  0.0625015  )
       401           C   tau( 401) = (  0.4374985  0.0625015  0.3125015  )
       402           C   tau( 402) = (  0.4374985  0.0625015  0.5625015  )
       403           C   tau( 403) = (  0.4374985  0.0625015  0.8125015  )
       404           C   tau( 404) = (  0.4374985  0.3125015  0.0625015  )
       405           C   tau( 405) = (  0.4374985  0.3125015  0.3125015  )
       406           C   tau( 406) = (  0.4374985  0.3125015  0.5625015  )
       407           C   tau( 407) = (  0.4374985  0.3125015  0.8125015  )
       408           C   tau( 408) = (  0.4374985  0.5625015  0.0625015  )
       409           C   tau( 409) = (  0.4374985  0.5625015  0.3125015  )
       410           C   tau( 410) = (  0.4374985  0.5625015  0.5625015  )
       411           C   tau( 411) = (  0.4374985  0.5625015  0.8125015  )
       412           C   tau( 412) = (  0.4374985  0.8125015  0.0625015  )
       413           C   tau( 413) = (  0.4374985  0.8125015  0.3125015  )
       414           C   tau( 414) = (  0.4374985  0.8125015  0.5625015  )
       415           C   tau( 415) = (  0.4374985  0.8125015  0.8125015  )
       416           C   tau( 416) = (  0.6874985  0.0625015  0.0625015  )
       417           C   tau( 417) = (  0.6874985  0.0625015  0.3125015  )
       418           C   tau( 418) = (  0.6874985  0.0625015  0.5625015  )
       419           C   tau( 419) = (  0.6874985  0.0625015  0.8125015  )
       420           C   tau( 420) = (  0.6874985  0.3125015  0.0625015  )
       421           C   tau( 421) = (  0.6874985  0.3125015  0.3125015  )
       422           C   tau( 422) = (  0.6874985  0.3125015  0.5625015  )
       423           C   tau( 423) = (  0.6874985  0.3125015  0.8125015  )
[...]
              0.218540663633976E+03
              0.135715161739222E+02
              0.344934672357122E+02
              0.158024555857565E+03
              0.518047282236844E+02
             -0.989164775642124E+02
             -0.185210931066655E+03
              0.102147300212914E+01
             -0.217272163497785E+03
              0.740890280401587E+02
             -0.243914024145378E+02
             -0.747647581539932E+02
              0.683920009523592E+02
              0.330407098204971E+02
              0.780289436997738E+02
             -0.215831233008794E+01
              0.115018533380972E+03
             -0.209913225574658E+03
             -0.986755322221154E+01
             -0.190564083940223E+03
              0.611486968967313E+02
              0.931037025787012E+02
             -0.177958191197320E+02
             -0.554222548384370E+02
              0.162578192250446E+03
             -0.733804742075126E+02
              0.511803441300127E+02
             -0.342991752324147E+02
              0.127948307530283E+03
              0.106295303799544E+03
             -0.482989887599119E+02
              0.109731875841249E+03
              0.410824874481548E+02
             -0.112629046355458E+03
             -0.560455030327607E+02
              0.172201208733455E+03
              0.816040864528518E+02
              0.491646244214394E+00
             -0.224698062388509E+02
              0.272860262908617E+03
              0.156384549135744E+03
              0.505236168060077E+02
             -0.194176774323769E+03
              0.269776275442576E+03
             -0.141995408443281E+03
             -0.166788156955173E+03
             -0.226676549791003E+03
              0.112645909363471E+03
             -0.200297109998736E+03
              0.896681356931638E+02
              0.174981217757819E+03
              0.111127743109893E+03
              0.547675383557743E+02
              0.705053725594121E+02
             -0.178331450908932E+03
             -0.593099231994967E+02
             -0.501918242546383E+02
              0.959627991626380E+02
              0.162622352074919E+03
              0.189340732004521E+03
              0.158203142252356E+03
             -0.387153799396976E+02
              0.383158476857459E+02
             -0.152093407499565E+02
             -0.579141291404525E+02
              0.627669297772950E+02
              0.656025532634621E+02
             -0.920428002102032E+02
             -0.123574585474164E+03
             -0.435003223443415E+02
              0.156882219490793E+03
              0.780509725733558E+02
             -0.101786408600010E+03
             -0.134987230687801E+03
             -0.176135226722767E+03
             -0.783035352985115E+01
              0.378229652027339E+02
             -0.742961730614780E+02
              0.265826555277990E+03
              0.228536818880475E+02
             -0.317586494149570E+03
              0.710969127194210E+02
              0.154752274796081E+03
             -0.669393598509084E+02
              0.146460700090821E+02
             -0.101781161138228E+03
              0.124992585578597E+03
              0.474837879078825E+02
             -0.160122908355389E+03
              0.195768393912997E+03
             -0.175335964421145E+02
             -0.106315385290231E+03
             -0.101842500505627E+03
              0.369216867654454E+03
              0.178595312132711E+03
             -0.394294744082847E+02
              0.105698660072190E+03
             -0.139443597343215E+03
             -0.214807267746339E+02
             -0.166645602044900E+03
              0.718032091223295E+02
              0.954570424963474E+02
              0.129503331368872E+03
             -0.554656914389689E+02
              0.165034934570849E+02
              0.143592091467344E+03
              0.713343947401631E+02
              0.934428589125981E+02
              0.435209153783762E+02
             -0.354225656760980E+02
             -0.391401310252206E+01
             -0.250314508245131E+02
              0.370200098233890E+02
              0.148319586239729E+02
             -0.117864859075624E+03
              0.219355150497545E+03
              0.929830027036701E+02
             -0.142703130998268E+03
             -0.977112016840095E+02
             -0.159929427897131E+03
             -0.812840824486939E+02
             -0.513058699205617E+02
             -0.125608084507917E+03
             -0.127165874550568E+03
              0.196131783767009E+03
              0.132823585070620E+03
             -0.311448198325679E+02
              0.173375536372283E+03
              0.467574955040354E+02
             -0.301475231098626E+03
              0.155173063212974E+03
              0.457980219208271E+02
              0.141717657570007E+03
              0.364710711754469E+02
              0.382875167783605E+02
              0.330189629136230E+02
              0.863357838685046E+02
             -0.111870695059396E+03
             -0.643359418521006E+02
             -0.977709600287891E+02
             -0.689265086843247E+02
              0.416141112502111E+02
             -0.107216158438675E+03
              0.419536155720007E+02
              0.610718662933074E+02
             -0.731271300154262E+02
             -0.295095763335826E+02
             -0.814920325816149E+01
              0.189001526170906E+03
              0.143972696205805E+02
              0.204689489974011E+03
              0.530286769764559E+02
             -0.233583888958026E+03
             -0.905677127074526E+02
              0.793484432008258E+02
              0.154630498429471E+03
              0.581920816197633E+02
              0.608484392318490E+02
              0.164429182300665E+03
             -0.112194772105910E+03
             -0.174175502514945E+03
              0.204303627261604E+03
             -0.210052519411240E+02
             -0.232741165405190E+03
              0.781766052160347E+02
              0.150785934726389E+03
             -0.238869777497232E+02
             -0.118592869465510E+03
             -0.589404511046666E+01
              0.186348171550344E+02
             -0.714383285208582E+02
              0.387721256981163E+02
             -0.279769325043296E+02
              0.309433250045902E+03
              0.703449275058767E+02
             -0.155131154231099E+03
              0.452555362525472E+02
              0.207006464890842E+03
             -0.115534169216093E+03
             -0.610852024947413E+02
             -0.111727550898941E+03
              0.728460405584525E+02
              0.499804675638538E+02
              0.457860624161004E+02
             -0.192519907406711E+01
              0.220834225458797E+03
             -0.144374506005728E+03
             -0.109678498027950E+03
             -0.104805103674525E+03
              0.108809788495351E+03
              0.209929580265268E+03
             -0.661948406083599E+01
              0.902338586033251E+02
             -0.111933010145086E+03
             -0.107710205657746E+02
             -0.304959517985095E+02
             -0.448846801416123E+02
             -0.556061928203419E+02
             -0.578211549647008E+02
             -0.373558422948131E+02
              0.566758874262506E+02
              0.554888213462289E+02
             -0.157151842051260E+03
              0.109990459246635E+03
             -0.174719726041786E+03
              0.126668770185440E+03
             -0.172273807557982E+03
              0.258897160498675E+03
              0.127867626079446E+03
              0.126799222178808E+03
              0.265828828720544E+02
              0.154667324884060E+02
             -0.324799365583299E+03
              0.633301637795899E+02
              0.182782840259142E+02
              0.697604814422402E+01
             -0.405481885768954E+02
              0.232416802339942E+03
             -0.105237560200179E+03
             -0.840850329756722E+02
             -0.254103780224096E+03
             -0.861775584391457E+02
             -0.101257508852024E+03
             -0.106902888746951E+03
             -0.257588177860284E+02
             -0.459343617035768E+02
             -0.665161023419871E+02
             -0.107336955782342E+03
              0.808186903703354E+02
              0.254294221109736E+03
              0.220694506596622E+03
             -0.737196314861865E+02
             -0.275119910528580E+03
             -0.108964968277034E+03
              0.696574438117310E+02
              0.485240997420522E+02
              0.665102735360854E+02
              0.692064885104553E+02
              0.213179559285018E+02
              0.223960249139319E+03
             -0.589149667764505E+02
              0.133212911562855E+03
              0.431790496766076E+02
             -0.835848594264003E+02
             -0.584907063281031E+02
              0.112873567905460E+03
             -0.482365453741652E+02
             -0.560497646526302E+02
             -0.303462015521364E+02
              0.143984900974402E+03
             -0.179663680165282E+03
             -0.415199527786669E+02
             -0.156830913862313E+03
             -0.340502334005321E+03
              0.162299234886946E+02
             -0.348190862623263E+02
              0.119397821169856E+03
              0.127428896700549E+03
              0.193097617380888E+03
             -0.117755667433977E+03
              0.200441489515236E+03
              0.470270633664093E+02
             -0.380201614173095E+02
              0.417822731495456E+02
             -0.795509699512887E+02
             -0.515654262364792E+02
              0.979764925387576E+02
             -0.109492530605318E+03
              0.251969490604617E+03
             -0.620889071123765E+02
             -0.137538060237390E+03
              0.248815015692661E+03
             -0.145411086608638E+03
             -0.343358055913952E+02
              0.257190091158840E+02
              0.721998900893502E+02
             -0.115961990642706E+03
             -0.898252131088208E+02
              0.117516367663315E+03
             -0.224587384522076E+03
              0.148477216235520E+03
              0.266675980919307E+02
              0.117244829734007E+03
              0.161940635561012E+03
              0.215270548783373E+02
             -0.190427983107266E+03
             -0.955329212877194E+02
             -0.161850006409485E+03
             -0.956988590269316E+02
             -0.617945568269506E+02
              0.253096295505223E+02
             -0.528638727880036E+02
              0.141311829088768E+02
             -0.276129552082759E+03
             -0.985920003670429E+01
             -0.161165025620416E+03
              0.147009963503476E+03
             -0.627463832877299E+02
             -0.195561818259621E+02
              0.111894359445092E+03
              0.555342042974897E+01
              0.121859303276003E+03
             -0.189772574887426E+03
              0.469318781370771E+02
              0.265684321428727E+02
              0.627912957517036E+02
              0.152575724833627E+03
             -0.117994017114080E+02
             -0.178450474139974E+03
             -0.890553647408489E+02
             -0.641062662465044E+02
             -0.357824575898640E+02
              0.147232076362877E+03
              0.989423147884108E+02
             -0.772137634827834E+02
             -0.997634429387562E+02
              0.829743990313384E+02
              0.750053978044405E+02
             -0.190599367844975E+03
              0.601868320348569E+02
              0.143262170975319E+03
             -0.111880006919708E+02
              0.162351800520030E+03
              0.954360222479612E+02
              0.124405869480562E+03
              0.176799992018666E+03
              0.647027361645496E+01
             -0.290472857719078E+03
              0.264613990173937E+02
              0.315416569357857E+03
              0.210115786089671E+03
             -0.148136855702597E+03
              0.111313471499930E+02
              0.174916291425543E+03
              0.161572399869278E+03
              0.689656560707103E+02
             -0.495929689531231E+02
              0.766037928101510E+02
              0.189793762733793E+03
             -0.650917959574444E+02
             -0.626394720247698E+02
              0.108901595249018E+03
             -0.164650381098145E+02
              0.878018764090814E+02
              0.206148519431281E+00
              0.208996949649843E+03
             -0.706532624905774E+02
              0.291960937348398E+02
             -0.113239518016676E+03
              0.101935512199540E+03
             -0.126268974377604E+02
              0.162696985913889E+03
              0.113939799024515E+02
              0.452826307107377E+02
             -0.108609649447800E+03
             -0.594541959844419E+02
             -0.333151492454410E+02
             -0.136639393367119E+02
              0.171473084002202E+03
              0.488676070885115E+02
              0.226617750971431E+03
              0.133966614474354E+03
              0.211053822706663E+02
             -0.381423781069543E-01
              0.205822380346171E+03
              0.107699995124133E+03
              0.133832453744501E+02
              0.190270833441088E+03
             -0.169363200856554E+03
              0.708919447600890E+02
             -0.900860402594121E+02
             -0.684088070881596E+02
              0.246881218799570E+03
             -0.401286188381196E+02
              0.236050636981440E+01
             -0.392209412152130E+02
              0.206158795145435E+03
             -0.577108559492774E+02
             -0.577726992855980E+01
              0.427282961763315E+03
             -0.153816800685710E+03
             -0.125039392484414E+03
             -0.160431667510182E+03
             -0.755482702130898E+02
              0.877596827393323E+02
             -0.400709548513246E+02
              0.371143935634121E+02
              0.153686691651637E+01
              0.536817383667561E+02
              0.865624345715610E+02
              0.818079802974378E+02
              0.174095698668862E+03
              0.712491342793057E+02
              0.121370700274011E+03
             -0.173795333585259E+03
             -0.135470573818637E+03
             -0.550980509182289E+02
             -0.148951299667958E+03
              0.268443751948810E+03
              0.230286353490015E+03
              0.100086607844130E+03
              0.271492843810961E+03
             -0.145639441744842E+03
             -0.700504408143617E+02
             -0.722972730243682E+02
              0.214222879246635E+03
 
 BEEF-vdW xc energy contributions
            1 :    -2093.868456820218     
            2 :     1847.706697819872     
            3 :    -1423.137136434450     
            4 :     930.1296622556708     
            5 :    -481.0274742386782     
            6 :     153.4671408740378     
            7 :     29.08845984884374     
            8 :    -93.23302651765425     
            9 :     92.88020287876407     
           10 :    -80.50287296133865     
           11 :     85.89610919533379     
           12 :    -110.4802599388072     
           13 :     136.5487425373567     
           14 :    -143.7835559424520     
           15 :     123.1529113681781     
           16 :    -81.43769460526983     
           17 :     35.75339466694004     
           18 :    -2.913927865205551     
           19 :    -9.502916801719948     
           20 :     5.577736965996337     
           21 :     3.436718261601527     
           22 :    -6.910733516600885     
           23 :    0.9591332858935857     
           24 :     10.42289412323498     
           25 :    -19.15351917273529     
           26 :     18.83444257526480     
           27 :    -8.755096135178064     
           28 :    -6.081314751130776     
           29 :     18.45222169638964     
           30 :    -23.38860986146256     
           31 :    -273.9301697381816     
           32 :    -198.8160435334394     

     Writing all to output data dir ./diamond.save/
 
     init_run     :     23.85s CPU     24.80s WALL (       1 calls)
     electrons    :    539.80s CPU    551.19s WALL (       1 calls)
     forces       :      7.87s CPU      8.31s WALL (       1 calls)
     stress       :    103.43s CPU    104.45s WALL (       1 calls)

     Called by init_run:
     wfcinit      :     16.78s CPU     17.48s WALL (       1 calls)
     potinit      :      0.96s CPU      1.01s WALL (       1 calls)
     hinit0       :      4.82s CPU      4.91s WALL (       1 calls)

     Called by electrons:
     c_bands      :    517.41s CPU    528.10s WALL (       2 calls)
     sum_band     :     21.25s CPU     21.73s WALL (       2 calls)
     v_of_rho     :      1.37s CPU      1.41s WALL (       2 calls)
     v_h          :      0.02s CPU      0.02s WALL (       2 calls)
     v_xc         :     22.33s CPU     22.61s WALL (      38 calls)
     newd         :      0.16s CPU      0.27s WALL (       2 calls)
     PAW_pot      :      0.24s CPU      0.25s WALL (       2 calls)
     mix_rho      :      0.00s CPU      0.00s WALL (       2 calls)
     vdW_kernel   :      0.16s CPU      0.17s WALL (       1 calls)

     Called by c_bands:
     init_us_2    :      0.12s CPU      0.13s WALL (       4 calls)
     init_us_2:cp :      0.12s CPU      0.13s WALL (       4 calls)
     cegterg      :    516.64s CPU    525.89s WALL (       2 calls)

     Called by sum_band:
     sum_band:wei :      0.00s CPU      0.00s WALL (       2 calls)
     sum_band:loo :     20.95s CPU     21.18s WALL (       2 calls)
     sum_band:buf :      0.00s CPU      0.00s WALL (       2 calls)
     sum_band:ini :      0.11s CPU      0.11s WALL (       2 calls)
     sum_band:cal :      2.98s CPU      3.02s WALL (       2 calls)
     sum_band:bec :      0.08s CPU      0.08s WALL (       2 calls)
     addusdens    :      0.16s CPU      0.28s WALL (       2 calls)
     addusd:skk   :      0.05s CPU      0.15s WALL (       2 calls)
     addusd:dgemm :      0.11s CPU      0.11s WALL (       2 calls)
     addusd:qvan2 :      0.01s CPU      0.01s WALL (       2 calls)

     Called by *egterg:
     cdiaghg      :    388.83s CPU    392.83s WALL (      18 calls)
     cegterg:over :      6.79s CPU      7.33s WALL (      18 calls)
     cegterg:upda :      3.01s CPU      3.08s WALL (      18 calls)
     cegterg:last :      1.63s CPU      1.65s WALL (       2 calls)
     h_psi        :     94.43s CPU     95.63s WALL (      20 calls)
     s_psi        :      5.89s CPU      6.19s WALL (      20 calls)
     g_psi        :      0.01s CPU      0.01s WALL (      18 calls)

     Called by h_psi:
     h_psi:calbec :      7.54s CPU      7.61s WALL (      20 calls)
     vloc_psi     :     80.94s CPU     81.67s WALL (      20 calls)
     vloc_psi:tg_ :      0.00s CPU      0.00s WALL (      20 calls)
     add_vuspsi   :      5.90s CPU      6.24s WALL (      20 calls)

     General routines
     calbec       :     17.99s CPU     18.17s WALL (      27 calls)
     fft          :     19.44s CPU     19.66s WALL (    2232 calls)
     ffts         :      0.03s CPU      0.03s WALL (       4 calls)
     fftw         :     98.16s CPU     99.06s WALL (   14104 calls)
     interpolate  :      0.04s CPU      0.05s WALL (       2 calls)
 
     Parallel routines
     fft_scatt_xy :      0.98s CPU      1.01s WALL (   16340 calls)
     fft_scatt_yz :    110.92s CPU    111.93s WALL (   16340 calls)
     fft_scatt_tg :      0.05s CPU      0.05s WALL (   14104 calls)

     PAW routines
     PAW_pot      :      0.24s CPU      0.25s WALL (       2 calls)
     PAW_symme    :      0.00s CPU      0.00s WALL (       3 calls)
 
     PWSCF        :  11m51.76s CPU  12m11.00s WALL

 
   This run was terminated on:   7:42:44   1Oct2023            

=------------------------------------------------------------------------------=
   JOB DONE.
=------------------------------------------------------------------------------=
