
     Program PWSCF v.7.1 starts on 11Feb2024 at 12:30:33 

     This program is part of the open-source Quantum ESPRESSO suite
     for quantum simulation of materials; please cite
         "P. Giannozzi et al., J. Phys.:Condens. Matter 21 395502 (2009);
         "P. Giannozzi et al., J. Phys.:Condens. Matter 29 465901 (2017);
         "P. Giannozzi et al., J. Chem. Phys. 152 154105 (2020);
          URL http://www.quantum-espresso.org", 
     in publications or presentations arising from this work. More details at
     http://www.quantum-espresso.org/quote

     Parallel version (MPI & OpenMP), running on     128 processor cores
     Number of MPI processes:               128
     Threads/MPI process:                     1

     MPI processes distributed on     1 nodes
     1985633 MiB available memory on the printing compute node when the environment starts
 
     Reading input from espresso.pwi
Warning: card &CELL ignored
Warning: card    CELL_DYNAMICS    = 'BFGS' ignored
Warning: card / ignored

     Current dimensions of program PWSCF are:
     Max number of different atomic species (ntypx) = 10
     Max number of k-points (npk) =  40000
     Max angular momentum in pseudopotentials (lmaxx) =  4
     file Pb.pbe-dn-kjpaw_psl.1.0.0.UPF: wavefunction(s)  6S 6P 5D renormalized
     file I.pbe-dn-kjpaw_psl.1.0.0.UPF: wavefunction(s)  5S 5P renormalized

     **************************************************************************
     Initializing libbeef V0.1.2 with the BEEF-vdW functional.
     Citation: Wellendorff et al., PRB 85, 235149 (2012).
     **************************************************************************


     IMPORTANT: XC functional enforced from input :
     Exchange-correlation= BEEF-VDW
                           (   1   4  43  14   2   0   0)
     Any further DFT definition will be discarded
     Please, verify this is what you really want

 
     K-points division:     npool     =       2
     R & G space division:  proc/nbgrp/npool/nimage =      64
     Subspace diagonalization in iterative solution of the eigenvalue problem:
     a serial algorithm will be used

 
     Parallelization info
     --------------------
     sticks:   dense  smooth     PW     G-vecs:    dense   smooth      PW
     Min         268     215     55                29758    21295    2791
     Max         269     216     56                29767    21298    2796
     Sum       17215   13777   3559              1904969  1362953  178821
 
     Using Slab Decomposition
 


     bravais-lattice index     =            4
     lattice parameter (alat)  =      26.7090  a.u.
     unit-cell volume          =   17226.5091 (a.u.)^3
     number of atoms/cell      =           53
     number of atomic types    =            2
     number of electrons       =       851.00
     number of Kohn-Sham states=          511
     kinetic-energy cutoff     =      70.0000  Ry
     charge density cutoff     =     350.0000  Ry
     scf convergence threshold =      1.0E-07
     mixing beta               =       0.7000
     number of iterations used =            8  plain     mixing
     energy convergence thresh.=      1.0E-04
     force convergence thresh. =      1.0E-03
     Exchange-correlation= BEEF-VDW
                           (   1   4  43  14   2   0   0)
     nstep                     =           50


     celldm(1)=  26.709025  celldm(2)=   0.000000  celldm(3)=   1.043981
     celldm(4)=   0.000000  celldm(5)=   0.000000  celldm(6)=   0.000000

     crystal axes: (cart. coord. in units of alat)
               a(1) = (   1.000000   0.000000   0.000000 )  
               a(2) = (  -0.500000   0.866025   0.000000 )  
               a(3) = (   0.000000   0.000000   1.043981 )  

     reciprocal axes: (cart. coord. in units 2 pi/alat)
               b(1) = (  1.000000  0.577350 -0.000000 )  
               b(2) = (  0.000000  1.154701  0.000000 )  
               b(3) = (  0.000000 -0.000000  0.957872 )  


     PseudoPot. # 1 for Pb read from file:
     //group///packages/espresso/pseudo/psl_1.0.0/pslibrary.1.0.0/pbe/PSEUDOPOTENTIALS/Pb.pbe-dn-kjpaw_psl.1.0.0.UPF
     MD5 check sum: 39ab5b8a6bbd56b7735ad9f188aac93a
     Pseudo is Projector augmented-wave + core cor, Zval = 14.0
     Generated using 'atomic' code by A. Dal Corso  v.7.1
     Shape of augmentation charge: PSQ
     Using radial grid of 1281 points,  6 beta functions with: 
                l(1) =   0
                l(2) =   0
                l(3) =   1
                l(4) =   1
                l(5) =   2
                l(6) =   2
     Q(r) pseudized with 0 coefficients 


     PseudoPot. # 2 for I  read from file:
     //group///packages/espresso/pseudo/psl_1.0.0/pslibrary.1.0.0/pbe/PSEUDOPOTENTIALS/I.pbe-dn-kjpaw_psl.1.0.0.UPF
     MD5 check sum: bfa8781bc1224d19af3f3980e3fab11e
     Pseudo is Projector augmented-wave + core cor, Zval = 17.0
     Generated using 'atomic' code by A. Dal Corso  v.7.1
     Shape of augmentation charge: PSQ
     Using radial grid of 1247 points,  6 beta functions with: 
                l(1) =   0
                l(2) =   0
                l(3) =   1
                l(4) =   1
                l(5) =   2
                l(6) =   2
     Q(r) pseudized with 0 coefficients 


     atomic species   valence    mass     pseudopotential
        Pb            14.00   207.20000     Pb( 1.00)
        I             17.00   126.90447     I ( 1.00)

     No symmetry found


                                    s                        frac. trans.

      isym =  1     identity                                     

 cryst.   s( 1) = (     1          0          0      )
                  (     0          1          0      )
                  (     0          0          1      )

 cart.    s( 1) = (  1.0000000  0.0000000  0.0000000 )
                  (  0.0000000  1.0000000  0.0000000 )
                  (  0.0000000  0.0000000  1.0000000 )


     point group C_1 (1)    
     there are  1 classes
     the character table:

       E    
A      1.00

     the symmetry operations in each class and the name of the first element:

     E        1
          identity                                               

   Cartesian axes

     site n.     atom                  positions (alat units)
         1           Pb  tau(   1) = (   0.1666712   0.2886557   0.5219862  )
         2           Pb  tau(   2) = (   0.0000102   0.5773235   1.0439712  )
         3           Pb  tau(   3) = (   0.0000034   0.5773295   0.5219807  )
         4           Pb  tau(   4) = (  -0.1666576   0.8659973   1.0439657  )
         5           Pb  tau(   5) = (  -0.1666644   0.8660033   0.5219752  )
         6           Pb  tau(   6) = (   0.5000113   0.2886484   1.0439810  )
         7           Pb  tau(   7) = (   0.5000045   0.2886544   0.5219905  )
         8           Pb  tau(   8) = (   0.3333436   0.5773222   1.0439755  )
         9           Pb  tau(   9) = (   0.3333367   0.5773282   0.5219850  )
        10           Pb  tau(  10) = (   0.1666758   0.8659960   1.0439700  )
        11           Pb  tau(  11) = (   0.1666690   0.8660020   0.5219795  )
        12           Pb  tau(  12) = (   0.8333447   0.2886471   1.0439853  )
        13           Pb  tau(  13) = (   0.8333379   0.2886531   0.5219949  )
        14           Pb  tau(  14) = (   0.6666769   0.5773209   1.0439798  )
        15           Pb  tau(  15) = (   0.6666701   0.5773269   0.5219894  )
        16           Pb  tau(  16) = (   0.5000091   0.8659947   1.0439743  )
        17           Pb  tau(  17) = (   0.5000023   0.8660007   0.5219839  )
        18           I   tau(  18) = (   0.1666738   0.0962066   0.3879099  )
        19           I   tau(  19) = (   0.1666806   0.0962006   0.9099004  )
        20           I   tau(  20) = (   0.0000060   0.3848804   0.3879044  )
        21           I   tau(  21) = (   0.0000129   0.3848744   0.9098949  )
        22           I   tau(  22) = (  -0.1666617   0.6735542   0.3878990  )
        23           I   tau(  23) = (  -0.1666549   0.6735482   0.9098894  )
        24           I   tau(  24) = (   0.5000071   0.0962053   0.3879143  )
        25           I   tau(  25) = (   0.5000140   0.0961993   0.9099047  )
        26           I   tau(  26) = (   0.3333394   0.3848792   0.3879088  )
        27           I   tau(  27) = (   0.3333462   0.3848731   0.9098993  )
        28           I   tau(  28) = (   0.1666716   0.6735530   0.3879033  )
        29           I   tau(  29) = (   0.1666784   0.6735469   0.9098938  )
        30           I   tau(  30) = (   0.8333405   0.0962041   0.3879186  )
        31           I   tau(  31) = (   0.8333473   0.0961980   0.9099091  )
        32           I   tau(  32) = (   0.6666727   0.3848779   0.3879131  )
        33           I   tau(  33) = (   0.6666795   0.3848718   0.9099036  )
        34           I   tau(  34) = (   0.5000049   0.6735517   0.3879076  )
        35           I   tau(  35) = (   0.5000117   0.6735457   0.9098981  )
        36           I   tau(  36) = (  -0.0000023   0.1924396   0.1340740  )
        37           I   tau(  37) = (   0.0000045   0.1924336   0.6560644  )
        38           I   tau(  38) = (  -0.1666701   0.4811134   0.1340685  )
        39           I   tau(  39) = (  -0.1666632   0.4811074   0.6560589  )
        40           I   tau(  40) = (  -0.3333378   0.7697873   0.1340630  )
        41           I   tau(  41) = (  -0.3333310   0.7697812   0.6560534  )
        42           I   tau(  42) = (   0.3333311   0.1924384   0.1340783  )
        43           I   tau(  43) = (   0.3333379   0.1924323   0.6560688  )
        44           I   tau(  44) = (   0.1666633   0.4811122   0.1340728  )
        45           I   tau(  45) = (   0.1666701   0.4811061   0.6560633  )
        46           I   tau(  46) = (  -0.0000045   0.7697860   0.1340673  )
        47           I   tau(  47) = (   0.0000023   0.7697799   0.6560578  )
        48           I   tau(  48) = (   0.6666644   0.1924371   0.1340827  )
        49           I   tau(  49) = (   0.6666712   0.1924310   0.6560731  )
        50           I   tau(  50) = (   0.4999966   0.4811109   0.1340772  )
        51           I   tau(  51) = (   0.5000034   0.4811049   0.6560676  )
        52           I   tau(  52) = (   0.3333288   0.7697847   0.1340717  )
        53           I   tau(  53) = (   0.3333356   0.7697787   0.6560621  )

   Crystallographic axes

     site n.     atom                  positions (cryst. coord.)
         1           Pb  tau(   1) = (  0.3333266  0.3333109  0.4999959  )
         2           Pb  tau(   2) = (  0.3333281  0.6666357  0.9999906  )
         3           Pb  tau(   3) = (  0.3333248  0.6666427  0.4999906  )
         4           Pb  tau(   4) = (  0.3333262  0.9999675  0.9999854  )
         5           Pb  tau(   5) = (  0.3333229  0.9999745  0.4999854  )
         6           Pb  tau(   6) = (  0.6666626  0.3333025  1.0000001  )
         7           Pb  tau(   7) = (  0.6666592  0.3333094  0.5000001  )
         8           Pb  tau(   8) = (  0.6666607  0.6666343  0.9999948  )
         9           Pb  tau(   9) = (  0.6666573  0.6666412  0.4999948  )
        10           Pb  tau(  10) = (  0.6666588  0.9999661  0.9999895  )
        11           Pb  tau(  11) = (  0.6666555  0.9999730  0.4999895  )
        12           Pb  tau(  12) = (  0.9999951  0.3333010  1.0000042  )
        13           Pb  tau(  13) = (  0.9999918  0.3333079  0.5000042  )
        14           Pb  tau(  14) = (  0.9999933  0.6666328  0.9999990  )
        15           Pb  tau(  15) = (  0.9999899  0.6666397  0.4999990  )
        16           Pb  tau(  16) = (  0.9999914  0.9999646  0.9999937  )
        17           Pb  tau(  17) = (  0.9999881  0.9999715  0.4999937  )
        18           I   tau(  18) = (  0.2222187  0.1110899  0.3715680  )
        19           I   tau(  19) = (  0.2222221  0.1110829  0.8715680  )
        20           I   tau(  20) = (  0.2222169  0.4444217  0.3715628  )
        21           I   tau(  21) = (  0.2222202  0.4444147  0.8715628  )
        22           I   tau(  22) = (  0.2222150  0.7777534  0.3715575  )
        23           I   tau(  23) = (  0.2222183  0.7777465  0.8715575  )
        24           I   tau(  24) = (  0.5555513  0.1110884  0.3715722  )
        25           I   tau(  25) = (  0.5555547  0.1110814  0.8715722  )
        26           I   tau(  26) = (  0.5555495  0.4444202  0.3715669  )
        27           I   tau(  27) = (  0.5555528  0.4444132  0.8715669  )
        28           I   tau(  28) = (  0.5555476  0.7777520  0.3715617  )
        29           I   tau(  29) = (  0.5555509  0.7777450  0.8715617  )
        30           I   tau(  30) = (  0.8888839  0.1110869  0.3715764  )
        31           I   tau(  31) = (  0.8888873  0.1110799  0.8715764  )
        32           I   tau(  32) = (  0.8888820  0.4444187  0.3715711  )
        33           I   tau(  33) = (  0.8888854  0.4444117  0.8715711  )
        34           I   tau(  34) = (  0.8888802  0.7777505  0.3715658  )
        35           I   tau(  35) = (  0.8888835  0.7777435  0.8715658  )
        36           I   tau(  36) = (  0.1111028  0.2222102  0.1284257  )
        37           I   tau(  37) = (  0.1111061  0.2222032  0.6284257  )
        38           I   tau(  38) = (  0.1111009  0.5555420  0.1284204  )
        39           I   tau(  39) = (  0.1111043  0.5555350  0.6284204  )
        40           I   tau(  40) = (  0.1110991  0.8888738  0.1284152  )
        41           I   tau(  41) = (  0.1111024  0.8888668  0.6284152  )
        42           I   tau(  42) = (  0.4444354  0.2222087  0.1284299  )
        43           I   tau(  43) = (  0.4444387  0.2222017  0.6284299  )
        44           I   tau(  44) = (  0.4444335  0.5555405  0.1284246  )
        45           I   tau(  45) = (  0.4444369  0.5555335  0.6284246  )
        46           I   tau(  46) = (  0.4444316  0.8888723  0.1284193  )
        47           I   tau(  47) = (  0.4444350  0.8888653  0.6284193  )
        48           I   tau(  48) = (  0.7777680  0.2222072  0.1284340  )
        49           I   tau(  49) = (  0.7777713  0.2222002  0.6284340  )
        50           I   tau(  50) = (  0.7777661  0.5555390  0.1284287  )
        51           I   tau(  51) = (  0.7777694  0.5555320  0.6284287  )
        52           I   tau(  52) = (  0.7777642  0.8888708  0.1284235  )
        53           I   tau(  53) = (  0.7777676  0.8888638  0.6284235  )

     number of k points=     4  Gaussian smearing, width (Ry)=  0.0100
                       cart. coord. in units 2pi/alat
        k(    1) = (   0.0000000   0.0000000   0.0000000), wk =   0.5000000
        k(    2) = (   0.0000000  -0.5773503   0.0000000), wk =   0.5000000
        k(    3) = (   0.5000000  -0.2886751   0.0000000), wk =   0.5000000
        k(    4) = (  -0.5000000  -0.2886751   0.0000000), wk =   0.5000000

                       cryst. coord.
        k(    1) = (   0.0000000   0.0000000   0.0000000), wk =   0.5000000
        k(    2) = (   0.0000000  -0.5000000   0.0000000), wk =   0.5000000
        k(    3) = (   0.5000000  -0.5000000   0.0000000), wk =   0.5000000
        k(    4) = (  -0.5000000   0.0000000   0.0000000), wk =   0.5000000

     Dense  grid:  1904969 G-vectors     FFT dimensions: ( 160, 160, 180)

     Smooth grid:  1362953 G-vectors     FFT dimensions: ( 144, 144, 150)

     Dynamical RAM for                 wfc:      20.76 MB

     Dynamical RAM for     wfc (w. buffer):      62.27 MB

     Dynamical RAM for           str. fact:       0.91 MB

     Dynamical RAM for           local pot:       0.00 MB

     Dynamical RAM for          nlocal pot:      38.75 MB

     Dynamical RAM for                qrad:       3.00 MB

     Dynamical RAM for          rho,v,vnew:       3.12 MB

     Dynamical RAM for               rhoin:       1.04 MB

     Dynamical RAM for            rho*nmix:       7.27 MB

     Dynamical RAM for           G-vectors:       1.87 MB

     Dynamical RAM for          h,s,v(r/c):     191.25 MB

     Dynamical RAM for          <psi|beta>:       7.44 MB

     Dynamical RAM for                 psi:      83.03 MB

     Dynamical RAM for                hpsi:      83.03 MB

     Dynamical RAM for                spsi:      83.03 MB

     Dynamical RAM for      wfcinit/wfcrot:      47.49 MB

     Dynamical RAM for           addusdens:      50.64 MB

     Dynamical RAM for          addusforce:      66.68 MB

     Dynamical RAM for         addusstress:      45.76 MB

     Estimated static dynamical RAM per process >     115.25 MB

     Estimated max dynamical RAM per process >     570.28 MB

     Estimated total dynamical RAM >      70.83 GB

     Atomic positions and unit cell read from directory:
     ./PbI2.save/
     Atomic positions from file used, from input discarded
 

     Check: negative core charge=   -0.000001

     The initial density is read from file :
     ./PbI2.save/charge-density


     starting charge     850.0000, renormalised to     851.0000


     %%%%%%%%%%%%%%%%%%%%%%%%%%%%%%%%%%%%%%%%%%%%%%%%%%%%%%%%%%%%%%%%%%%%%%%%
     %                                                                      %
     % You are using vdW-DF, which was implemented by the Thonhauser group. %
     % Please cite the following two papers that made this development      %
     % possible and the two reviews that describe the various versions:     %
     %                                                                      %
     %   T. Thonhauser et al., PRL 115, 136402 (2015).                      %
     %   T. Thonhauser et al., PRB 76, 125112 (2007).                       %
     %   K. Berland et al., Rep. Prog. Phys. 78, 066501 (2015).             %
     %   D.C. Langreth et al., J. Phys.: Condens. Matter 21, 084203 (2009). %
     %                                                                      %
     % If you are calculating stress with vdW-DF, please also cite:         %
     %                                                                      %
     %   R. Sabatini et al., J. Phys.: Condens. Matter 24, 424209 (2012).   %
     %                                                                      %
     %%%%%%%%%%%%%%%%%%%%%%%%%%%%%%%%%%%%%%%%%%%%%%%%%%%%%%%%%%%%%%%%%%%%%%%%

     %%%%%%%%%%%%%%%%%%%%%%%%%%%%%%%%%%%%%%%%%%%%%%%%%%%%%%%%%%%%%%%%%%%%%%%%
     %                                                                      %
     %  vdW-DF NEWS:                                                        %
     %                                                                      %
     %  * vdW-DF3 is now available. DOI: 10.1021/acs.jctc.0c00471           %
     %    use with input_dft = 'vdW-DF3-opt1' or 'vdW-DF3-opt2'             %
     %                                                                      %
     %  * Unscreened and range-separated vdW-DF hybrid functionals          %
     %    DOI: 10.1063/1.4986522 and 10.1088/1361-648X/ac2ad2               %
     %    use with input_dft = 'vdW-DF-cx0' (etc) and 'vdW-DF-ahcx'         %
     %                                                                      %
     %%%%%%%%%%%%%%%%%%%%%%%%%%%%%%%%%%%%%%%%%%%%%%%%%%%%%%%%%%%%%%%%%%%%%%%%


     Carrying out vdW-DF run using the following parameters:
     Nqs    =  20  Npoints =  1024  r_max =  100.000
     q_mesh =  0.00001000  0.04494208  0.09755937  0.15916263
               0.23128650  0.31572767  0.41458969  0.53033537
               0.66584808  0.82450364  1.01025438  1.22772762
               1.48234092  1.78043706  2.12944203  2.53805004
               3.01644009  3.57652955  4.23227104  5.00000000


     -----------------------------------------------
     Non-local corr. energy    =      25.66358179 Ry
     -----------------------------------------------

     Wavefunctions not found or not readable, recomputing them from scratch
     Starting wfcs are  477 randomized atomic wfcs +   34 random wfcs
     Checking if some PAW data can be deallocated... 
       PAW data deallocated on   77 nodes for type:  1
       PAW data deallocated on   51 nodes for type:  2

     total cpu time spent up to now is       11.9 secs

     Self-consistent Calculation

     iteration #  1     ecut=    70.00 Ry     beta= 0.70
     Davidson diagonalization with overlap

---- Real-time Memory Report at c_bands before calling an iterative solver
           364 MiB given to the printing process from OS
             0 MiB allocation reported by mallinfo(arena+hblkhd)
       1966277 MiB available memory on the node where the printing process lives
------------------
     ethr =  1.00E-05,  avg # of iterations = 26.5


     -----------------------------------------------
     Non-local corr. energy    =      25.61379244 Ry
     -----------------------------------------------


     total cpu time spent up to now is      161.9 secs

     total energy              =  -35528.56721955 Ry
     estimated scf accuracy    <       0.03545106 Ry

     iteration #  2     ecut=    70.00 Ry     beta= 0.70
     Davidson diagonalization with overlap

---- Real-time Memory Report at c_bands before calling an iterative solver
           746 MiB given to the printing process from OS
             0 MiB allocation reported by mallinfo(arena+hblkhd)
       1963604 MiB available memory on the node where the printing process lives
------------------
     ethr =  4.17E-06,  avg # of iterations = 11.0


     -----------------------------------------------
     Non-local corr. energy    =      25.62404046 Ry
     -----------------------------------------------


     total cpu time spent up to now is      264.5 secs

     total energy              =  -35528.56791924 Ry
     estimated scf accuracy    <       0.05723923 Ry

     iteration #  3     ecut=    70.00 Ry     beta= 0.70
     Davidson diagonalization with overlap

---- Real-time Memory Report at c_bands before calling an iterative solver
           746 MiB given to the printing process from OS
             0 MiB allocation reported by mallinfo(arena+hblkhd)
       1963466 MiB available memory on the node where the printing process lives
------------------
     ethr =  4.17E-06,  avg # of iterations = 13.3


     -----------------------------------------------
     Non-local corr. energy    =      25.63215847 Ry
     -----------------------------------------------


     total cpu time spent up to now is      349.4 secs

     total energy              =  -35528.57878349 Ry
     estimated scf accuracy    <       0.02276385 Ry

     iteration #  4     ecut=    70.00 Ry     beta= 0.70
     Davidson diagonalization with overlap

---- Real-time Memory Report at c_bands before calling an iterative solver
           746 MiB given to the printing process from OS
             0 MiB allocation reported by mallinfo(arena+hblkhd)
       1964498 MiB available memory on the node where the printing process lives
------------------
     ethr =  2.67E-06,  avg # of iterations = 11.8


     -----------------------------------------------
     Non-local corr. energy    =      25.63650533 Ry
     -----------------------------------------------


     total cpu time spent up to now is      415.7 secs

     total energy              =  -35528.58241766 Ry
     estimated scf accuracy    <       0.00164682 Ry

     iteration #  5     ecut=    70.00 Ry     beta= 0.70
     Davidson diagonalization with overlap

---- Real-time Memory Report at c_bands before calling an iterative solver
           746 MiB given to the printing process from OS
             0 MiB allocation reported by mallinfo(arena+hblkhd)
       1964408 MiB available memory on the node where the printing process lives
------------------
     ethr =  1.94E-07,  avg # of iterations = 11.5


     -----------------------------------------------
     Non-local corr. energy    =      25.63910029 Ry
     -----------------------------------------------


     total cpu time spent up to now is      515.7 secs

     total energy              =  -35528.58291158 Ry
     estimated scf accuracy    <       0.00058439 Ry

     iteration #  6     ecut=    70.00 Ry     beta= 0.70
     Davidson diagonalization with overlap

---- Real-time Memory Report at c_bands before calling an iterative solver
           746 MiB given to the printing process from OS
             0 MiB allocation reported by mallinfo(arena+hblkhd)
       1964278 MiB available memory on the node where the printing process lives
------------------
     c_bands:  1 eigenvalues not converged
     ethr =  6.87E-08,  avg # of iterations = 11.5


     -----------------------------------------------
     Non-local corr. energy    =      25.64120743 Ry
     -----------------------------------------------


     total cpu time spent up to now is      579.0 secs

     total energy              =  -35528.58292157 Ry
     estimated scf accuracy    <       0.00025535 Ry

     iteration #  7     ecut=    70.00 Ry     beta= 0.70
     Davidson diagonalization with overlap

---- Real-time Memory Report at c_bands before calling an iterative solver
           746 MiB given to the printing process from OS
             0 MiB allocation reported by mallinfo(arena+hblkhd)
       1964182 MiB available memory on the node where the printing process lives
------------------
     ethr =  3.00E-08,  avg # of iterations = 15.3


     -----------------------------------------------
     Non-local corr. energy    =      25.64547547 Ry
     -----------------------------------------------


     total cpu time spent up to now is      656.4 secs

     total energy              =  -35528.58290765 Ry
     estimated scf accuracy    <       0.00044651 Ry

     iteration #  8     ecut=    70.00 Ry     beta= 0.70
     Davidson diagonalization with overlap

---- Real-time Memory Report at c_bands before calling an iterative solver
           746 MiB given to the printing process from OS
             0 MiB allocation reported by mallinfo(arena+hblkhd)
       1964031 MiB available memory on the node where the printing process lives
------------------
     ethr =  3.00E-08,  avg # of iterations = 16.8


     -----------------------------------------------
     Non-local corr. energy    =      25.64599414 Ry
     -----------------------------------------------


     total cpu time spent up to now is      736.3 secs

     total energy              =  -35528.58295951 Ry
     estimated scf accuracy    <       0.00001856 Ry

     iteration #  9     ecut=    70.00 Ry     beta= 0.70
     Davidson diagonalization with overlap

---- Real-time Memory Report at c_bands before calling an iterative solver
           746 MiB given to the printing process from OS
             0 MiB allocation reported by mallinfo(arena+hblkhd)
       1963945 MiB available memory on the node where the printing process lives
------------------
     ethr =  2.18E-09,  avg # of iterations =  9.5


     -----------------------------------------------
     Non-local corr. energy    =      25.64563852 Ry
     -----------------------------------------------


     total cpu time spent up to now is      843.9 secs

     total energy              =  -35528.58296734 Ry
     estimated scf accuracy    <       0.00002810 Ry

     iteration # 10     ecut=    70.00 Ry     beta= 0.70
     Davidson diagonalization with overlap

---- Real-time Memory Report at c_bands before calling an iterative solver
           778 MiB given to the printing process from OS
             0 MiB allocation reported by mallinfo(arena+hblkhd)
       1963810 MiB available memory on the node where the printing process lives
------------------
     ethr =  2.18E-09,  avg # of iterations = 12.5


     -----------------------------------------------
     Non-local corr. energy    =      25.64502450 Ry
     -----------------------------------------------


     total cpu time spent up to now is      903.6 secs

     total energy              =  -35528.58296635 Ry
     estimated scf accuracy    <       0.00001290 Ry

     iteration # 11     ecut=    70.00 Ry     beta= 0.70
     Davidson diagonalization with overlap

---- Real-time Memory Report at c_bands before calling an iterative solver
           778 MiB given to the printing process from OS
             0 MiB allocation reported by mallinfo(arena+hblkhd)
       1963790 MiB available memory on the node where the printing process lives
------------------
     ethr =  1.52E-09,  avg # of iterations =  2.8


     -----------------------------------------------
     Non-local corr. energy    =      25.64421168 Ry
     -----------------------------------------------


     total cpu time spent up to now is      929.8 secs

     total energy              =  -35528.58296489 Ry
     estimated scf accuracy    <       0.00000374 Ry

     iteration # 12     ecut=    70.00 Ry     beta= 0.70
     Davidson diagonalization with overlap

---- Real-time Memory Report at c_bands before calling an iterative solver
           778 MiB given to the printing process from OS
             0 MiB allocation reported by mallinfo(arena+hblkhd)
       1963791 MiB available memory on the node where the printing process lives
------------------
     ethr =  4.40E-10,  avg # of iterations =  6.8


     -----------------------------------------------
     Non-local corr. energy    =      25.64443421 Ry
     -----------------------------------------------


     total cpu time spent up to now is      979.3 secs

     total energy              =  -35528.58296573 Ry
     estimated scf accuracy    <       0.00000141 Ry

     iteration # 13     ecut=    70.00 Ry     beta= 0.70
     Davidson diagonalization with overlap

---- Real-time Memory Report at c_bands before calling an iterative solver
           778 MiB given to the printing process from OS
             0 MiB allocation reported by mallinfo(arena+hblkhd)
       1963797 MiB available memory on the node where the printing process lives
------------------
     ethr =  1.65E-10,  avg # of iterations = 12.0


     -----------------------------------------------
     Non-local corr. energy    =      25.64454702 Ry
     -----------------------------------------------


     total cpu time spent up to now is     1041.1 secs

     total energy              =  -35528.58296589 Ry
     estimated scf accuracy    <       0.00000042 Ry

     iteration # 14     ecut=    70.00 Ry     beta= 0.70
     Davidson diagonalization with overlap

---- Real-time Memory Report at c_bands before calling an iterative solver
           778 MiB given to the printing process from OS
             0 MiB allocation reported by mallinfo(arena+hblkhd)
       1963783 MiB available memory on the node where the printing process lives
------------------
     ethr =  4.96E-11,  avg # of iterations = 10.5


     -----------------------------------------------
     Non-local corr. energy    =      25.64454597 Ry
     -----------------------------------------------


     total cpu time spent up to now is     1109.0 secs

     End of self-consistent calculation

          k = 0.0000 0.0000 0.0000 (170421 PWs)   bands (ev):

   -41.1848 -41.1846 -41.1846 -41.1844 -41.1826 -41.1824 -41.1823 -41.1823
   -41.1821 -41.1821 -41.1820 -41.1818 -41.1813 -41.1811 -41.1804 -41.1802
   -41.1802 -41.1800 -41.1799 -41.1798 -41.1797 -41.1796 -41.1792 -41.1790
   -41.1778 -41.1775 -41.1774 -41.1771 -41.1768 -41.1765 -41.1752 -41.1751
   -41.1750 -41.1749 -41.1729 -41.1728 -41.1726 -41.1726 -41.1723 -41.1722
   -41.1719 -41.1718 -41.1712 -41.1710 -41.1708 -41.1708 -41.1707 -41.1706
   -41.1706 -41.1706 -41.1705 -41.1705 -41.1703 -41.1701 -41.1700 -41.1697
   -41.1692 -41.1689 -41.1688 -41.1687 -41.1686 -41.1686 -41.1685 -41.1685
   -41.1684 -41.1683 -41.1682 -41.1679 -41.1679 -41.1678 -41.1674 -41.1673
   -41.1670 -41.1668 -41.1667 -41.1666 -41.1666 -41.1665 -41.1665 -41.1663
   -41.1663 -41.1662 -41.1662 -41.1660 -41.1645 -41.1643 -41.1642 -41.1641
   -41.1638 -41.1636 -40.8967 -40.8964 -40.8964 -40.8962 -40.8955 -40.8953
   -40.8953 -40.8951 -40.8943 -40.8942 -40.8941 -40.8940 -40.8919 -40.8916
   -40.8902 -40.8900 -40.8894 -40.8892 -40.8885 -40.8882 -40.8881 -40.8878
   -40.8869 -40.8868 -40.8865 -40.8863 -40.8859 -40.8856 -40.8855 -40.8852
   -40.8168 -40.8166 -40.8162 -40.8161 -40.8159 -40.8158 -40.8119 -40.8118
   -40.8112 -40.8110 -40.8109 -40.8108 -40.8104 -40.8103 -40.8096 -40.8095
   -40.8093 -40.8091 -40.7969 -40.7967 -40.7964 -40.7963 -40.7952 -40.7951
   -40.7950 -40.7949 -40.7948 -40.7947 -40.7946 -40.7944 -40.6589 -40.6586
   -40.6580 -40.6578 -40.6563 -40.6560 -40.6557 -40.6555 -40.6554 -40.6551
   -40.6549 -40.6546 -40.5834 -40.5831 -40.5810 -40.5806 -40.5803 -40.5802
   -40.5800 -40.5800 -40.5780 -40.5778 -40.5776 -40.5775 -40.5573 -40.5571
   -40.5551 -40.5547 -40.5547 -40.5544 -13.3478 -13.3472 -13.3414 -13.3412
   -13.3407 -13.3405 -13.3370 -13.3367 -13.3342 -13.3339 -13.3300 -13.3287
   -13.3285 -13.3266 -13.3256 -13.3237 -13.3234 -13.3222 -13.3221 -13.3213
   -13.3211 -13.3209 -13.3203 -13.3201 -13.3196 -13.3195 -13.3188 -13.3185
   -13.3173 -13.3172 -13.3152 -13.3151 -13.3146 -13.3146 -13.3134 -13.3129
   -13.3127 -13.3119 -13.3118 -13.3117 -13.3116 -13.3095 -13.3094 -13.3086
   -13.3086 -13.0370 -13.0370 -13.0367 -13.0366 -13.0225 -13.0224 -13.0199
   -13.0198 -13.0198 -13.0197 -12.9587 -12.9523 -12.9512 -12.9459 -12.9449
   -12.9401 -12.9383 -12.9315 -12.9313 -12.9304 -12.9301 -12.9300 -12.9297
   -12.9282 -12.9276 -12.9272 -12.9269 -12.9240 -12.9237 -12.9229 -12.9228
   -12.9224 -12.9218 -12.9160 -12.9099 -12.9078 -12.9070 -12.9067 -12.9056
   -12.9038  -8.4708  -8.1635  -8.1635  -8.1604  -8.1542  -8.1506  -8.1504
    -8.0714  -8.0434  -7.9264  -7.9245  -7.9190  -7.9149  -7.9142  -7.9136
    -7.9090  -7.9089  -7.9080  -7.9070  -7.8400  -7.7971  -7.7964  -7.7850
    -7.7848  -7.6659  -7.6218  -7.5912  -7.5912  -7.5511  -7.5509  -7.4921
    -7.4264  -7.4256  -7.3589  -7.3583  -7.3255  -4.1056  -4.1033  -3.9044
    -3.9016  -3.9013  -3.8988  -3.8973  -3.8958  -3.7277  -3.7075  -3.5965
    -3.5530  -3.5261  -3.5257  -3.4693  -3.4689  -3.2023   0.8540   0.8601
     0.8611   0.8611   0.8624   0.8673   0.8923   0.8923   0.8992   0.8992
     1.1406   1.1478   1.2127   1.2131   1.2235   1.2486   1.2500   1.2529
     1.3544   1.3545   1.5208   1.5214   1.5355   1.5461   1.5514   1.5623
     1.5626   1.5638   1.5648   1.6953   1.6958   1.6964   1.7027   1.7085
     1.7090   1.7600   1.9617   2.0493   2.0503   2.0632   2.0674   2.0676
     2.0786   2.0793   2.0858   2.0899   2.1770   2.1774   2.1841   2.1841
     2.2617   2.2817   2.2822   2.3215   2.3222   2.3304   2.3406   2.3415
     2.3536   2.4776   2.4776   2.4781   2.4887   2.4888   2.4891   2.5058
     2.5075   2.5211   2.5269   2.5270   2.5713   2.5720   2.5761   2.6136
     2.6152   2.6233   2.6504   2.7857   2.7859   2.7914   2.7919   2.8128
     2.8167   2.8232   2.8239   2.8273   2.8287   2.8408   2.8605   2.8988
     2.9156   2.9163   2.9235   2.9238   2.9473   3.0925   3.1753   3.1760
     3.2042   3.2051   3.2177   3.2438   3.2444   3.2650   3.3269   3.3269
     3.3501   3.3749   5.6066   6.0910   6.2438   6.2474   6.2490   6.2591
     6.2603   6.3062   6.4362   6.4365   6.6616   6.6618   6.7164   6.7685
     6.7711   6.8442   6.8442   6.8461   6.8471   6.9286   6.9298   6.9304
     6.9319   6.9327   6.9345   7.0594   7.0792   7.0799   7.1939   7.1956
     7.1981   7.2016   7.2032   7.2196   7.3069   7.3252   7.3260   7.3678
     7.3716   7.4779   7.4794   7.4867   7.5887   7.5898   7.5909   7.5915
     7.5942   7.6413   7.6508   7.6518   7.8882   9.2216   9.2217   9.2241
     9.2354   9.2547   9.2557   9.4800   9.6907   9.6910   9.7737   9.7841
     9.9287   9.9298   9.9832   9.9921  10.1409  10.5547  10.5660  10.6841
    10.6958  10.6959  10.7366  10.7381  10.7403  10.7417  10.8455  10.8485
    10.8536  10.8656  10.9037  10.9049  10.9293  10.9413  10.9428

     occupation numbers 
     1.0000   1.0000   1.0000   1.0000   1.0000   1.0000   1.0000   1.0000
     1.0000   1.0000   1.0000   1.0000   1.0000   1.0000   1.0000   1.0000
     1.0000   1.0000   1.0000   1.0000   1.0000   1.0000   1.0000   1.0000
     1.0000   1.0000   1.0000   1.0000   1.0000   1.0000   1.0000   1.0000
     1.0000   1.0000   1.0000   1.0000   1.0000   1.0000   1.0000   1.0000
     1.0000   1.0000   1.0000   1.0000   1.0000   1.0000   1.0000   1.0000
     1.0000   1.0000   1.0000   1.0000   1.0000   1.0000   1.0000   1.0000
     1.0000   1.0000   1.0000   1.0000   1.0000   1.0000   1.0000   1.0000
     1.0000   1.0000   1.0000   1.0000   1.0000   1.0000   1.0000   1.0000
     1.0000   1.0000   1.0000   1.0000   1.0000   1.0000   1.0000   1.0000
     1.0000   1.0000   1.0000   1.0000   1.0000   1.0000   1.0000   1.0000
     1.0000   1.0000   1.0000   1.0000   1.0000   1.0000   1.0000   1.0000
     1.0000   1.0000   1.0000   1.0000   1.0000   1.0000   1.0000   1.0000
     1.0000   1.0000   1.0000   1.0000   1.0000   1.0000   1.0000   1.0000
     1.0000   1.0000   1.0000   1.0000   1.0000   1.0000   1.0000   1.0000
     1.0000   1.0000   1.0000   1.0000   1.0000   1.0000   1.0000   1.0000
     1.0000   1.0000   1.0000   1.0000   1.0000   1.0000   1.0000   1.0000
     1.0000   1.0000   1.0000   1.0000   1.0000   1.0000   1.0000   1.0000
     1.0000   1.0000   1.0000   1.0000   1.0000   1.0000   1.0000   1.0000
     1.0000   1.0000   1.0000   1.0000   1.0000   1.0000   1.0000   1.0000
     1.0000   1.0000   1.0000   1.0000   1.0000   1.0000   1.0000   1.0000
     1.0000   1.0000   1.0000   1.0000   1.0000   1.0000   1.0000   1.0000
     1.0000   1.0000   1.0000   1.0000   1.0000   1.0000   1.0000   1.0000
     1.0000   1.0000   1.0000   1.0000   1.0000   1.0000   1.0000   1.0000
     1.0000   1.0000   1.0000   1.0000   1.0000   1.0000   1.0000   1.0000
     1.0000   1.0000   1.0000   1.0000   1.0000   1.0000   1.0000   1.0000
     1.0000   1.0000   1.0000   1.0000   1.0000   1.0000   1.0000   1.0000
     1.0000   1.0000   1.0000   1.0000   1.0000   1.0000   1.0000   1.0000
     1.0000   1.0000   1.0000   1.0000   1.0000   1.0000   1.0000   1.0000
     1.0000   1.0000   1.0000   1.0000   1.0000   1.0000   1.0000   1.0000
     1.0000   1.0000   1.0000   1.0000   1.0000   1.0000   1.0000   1.0000
     1.0000   1.0000   1.0000   1.0000   1.0000   1.0000   1.0000   1.0000
     1.0000   1.0000   1.0000   1.0000   1.0000   1.0000   1.0000   1.0000
     1.0000   1.0000   1.0000   1.0000   1.0000   1.0000   1.0000   1.0000
     1.0000   1.0000   1.0000   1.0000   1.0000   1.0000   1.0000   1.0000
     1.0000   1.0000   1.0000   1.0000   1.0000   1.0000   1.0000   1.0000
     1.0000   1.0000   1.0000   1.0000   1.0000   1.0000   1.0000   1.0000
     1.0000   1.0000   1.0000   1.0000   1.0000   1.0000   1.0000   1.0000
     1.0000   1.0000   1.0000   1.0000   1.0000   1.0000   1.0000   1.0000
     1.0000   1.0000   1.0000   1.0000   1.0000   1.0000   1.0000   1.0000
     1.0000   1.0000   1.0000   1.0000   1.0000   1.0000   1.0000   1.0000
     1.0000   1.0000   1.0000   1.0000   1.0000   1.0000   1.0000   1.0000
     1.0000   1.0000   1.0000   1.0000   1.0000   1.0000   1.0000   1.0000
     1.0000   1.0000   1.0000   1.0000   1.0000   1.0000   1.0000   1.0000
     1.0000   1.0000   1.0000   1.0000   1.0000   1.0000   1.0000   1.0000
     1.0000   1.0000   1.0000   1.0000   1.0000   1.0000   1.0000   1.0000
     1.0000   1.0000   1.0000   1.0000   1.0000   1.0000   1.0000   1.0000
     1.0000   1.0000   1.0000   1.0000   1.0000   1.0000   1.0000   1.0000
     1.0000   1.0000   1.0000   1.0000   1.0000   1.0000   1.0000   1.0000
     1.0000   1.0000   1.0000   1.0000   1.0000   1.0000   1.0000   1.0000
     1.0000   1.0000   1.0000   1.0000   1.0000   1.0000   1.0000   1.0000
     1.0000   1.0000   1.0000   1.0000   1.0000   1.0000   0.9996   0.9996
     0.9989   0.9989   0.9983   0.9961   0.9960   0.9926   0.9637   0.9636
     0.9399   0.9026   0.0000   0.0000   0.0000   0.0000   0.0000   0.0000
     0.0000   0.0000   0.0000   0.0000   0.0000   0.0000   0.0000   0.0000
     0.0000   0.0000   0.0000   0.0000   0.0000   0.0000   0.0000   0.0000
     0.0000   0.0000   0.0000   0.0000   0.0000   0.0000   0.0000   0.0000
     0.0000   0.0000   0.0000   0.0000   0.0000   0.0000   0.0000   0.0000
     0.0000   0.0000   0.0000   0.0000   0.0000   0.0000   0.0000   0.0000
     0.0000   0.0000   0.0000   0.0000   0.0000   0.0000   0.0000   0.0000
     0.0000   0.0000   0.0000   0.0000   0.0000   0.0000   0.0000   0.0000
     0.0000   0.0000   0.0000   0.0000   0.0000   0.0000   0.0000   0.0000
     0.0000   0.0000   0.0000   0.0000   0.0000   0.0000   0.0000   0.0000
     0.0000   0.0000   0.0000   0.0000   0.0000   0.0000   0.0000

          k = 0.0000-0.5774 0.0000 (170366 PWs)   bands (ev):

   -41.1848 -41.1846 -41.1846 -41.1844 -41.1826 -41.1824 -41.1823 -41.1823
   -41.1821 -41.1821 -41.1820 -41.1818 -41.1813 -41.1811 -41.1804 -41.1802
   -41.1802 -41.1800 -41.1799 -41.1798 -41.1797 -41.1796 -41.1792 -41.1790
   -41.1778 -41.1775 -41.1774 -41.1771 -41.1768 -41.1765 -41.1752 -41.1751
   -41.1750 -41.1749 -41.1729 -41.1728 -41.1726 -41.1726 -41.1723 -41.1722
   -41.1719 -41.1718 -41.1712 -41.1710 -41.1708 -41.1708 -41.1707 -41.1706
   -41.1706 -41.1706 -41.1705 -41.1705 -41.1703 -41.1701 -41.1700 -41.1697
   -41.1692 -41.1689 -41.1688 -41.1687 -41.1686 -41.1686 -41.1685 -41.1685
   -41.1684 -41.1683 -41.1682 -41.1679 -41.1679 -41.1678 -41.1674 -41.1673
   -41.1670 -41.1668 -41.1667 -41.1666 -41.1666 -41.1665 -41.1665 -41.1663
   -41.1663 -41.1662 -41.1662 -41.1660 -41.1645 -41.1643 -41.1642 -41.1641
   -41.1638 -41.1636 -40.8967 -40.8964 -40.8964 -40.8962 -40.8955 -40.8953
   -40.8953 -40.8951 -40.8943 -40.8942 -40.8941 -40.8940 -40.8919 -40.8916
   -40.8902 -40.8900 -40.8894 -40.8892 -40.8885 -40.8882 -40.8881 -40.8878
   -40.8869 -40.8868 -40.8865 -40.8863 -40.8859 -40.8856 -40.8855 -40.8852
   -40.8168 -40.8166 -40.8162 -40.8161 -40.8159 -40.8158 -40.8119 -40.8118
   -40.8112 -40.8110 -40.8109 -40.8108 -40.8104 -40.8103 -40.8096 -40.8095
   -40.8093 -40.8091 -40.7969 -40.7967 -40.7964 -40.7963 -40.7952 -40.7951
   -40.7950 -40.7949 -40.7948 -40.7947 -40.7946 -40.7944 -40.6589 -40.6586
   -40.6580 -40.6578 -40.6563 -40.6560 -40.6557 -40.6555 -40.6554 -40.6551
   -40.6549 -40.6546 -40.5834 -40.5831 -40.5810 -40.5806 -40.5803 -40.5802
   -40.5800 -40.5800 -40.5780 -40.5778 -40.5776 -40.5775 -40.5573 -40.5571
   -40.5551 -40.5547 -40.5547 -40.5544 -13.3499 -13.3475 -13.3438 -13.3419
   -13.3413 -13.3388 -13.3356 -13.3342 -13.3308 -13.3302 -13.3297 -13.3287
   -13.3274 -13.3266 -13.3253 -13.3249 -13.3240 -13.3229 -13.3225 -13.3220
   -13.3215 -13.3213 -13.3211 -13.3202 -13.3201 -13.3199 -13.3191 -13.3187
   -13.3181 -13.3179 -13.3167 -13.3161 -13.3152 -13.3148 -13.3145 -13.3137
   -13.3129 -13.3119 -13.3115 -13.3106 -13.3103 -13.3090 -13.3086 -13.3081
   -13.3073 -13.0371 -13.0370 -13.0367 -13.0366 -13.0225 -13.0224 -13.0199
   -13.0198 -13.0198 -13.0197 -12.9564 -12.9546 -12.9519 -12.9452 -12.9436
   -12.9398 -12.9370 -12.9355 -12.9327 -12.9308 -12.9300 -12.9299 -12.9293
   -12.9288 -12.9280 -12.9265 -12.9250 -12.9248 -12.9238 -12.9231 -12.9228
   -12.9210 -12.9195 -12.9180 -12.9096 -12.9082 -12.9077 -12.9062 -12.9046
   -12.9046  -8.3809  -8.3737  -8.2193  -8.2189  -8.0226  -8.0203  -8.0168
    -8.0163  -8.0119  -8.0041  -8.0004  -7.9938  -7.9654  -7.9341  -7.9320
    -7.9048  -7.8936  -7.8916  -7.8893  -7.8880  -7.8435  -7.8110  -7.7160
    -7.7132  -7.6481  -7.6249  -7.6069  -7.5904  -7.5664  -7.5532  -7.4642
    -7.4418  -7.4289  -7.3598  -7.3536  -7.3336  -4.0452  -4.0389  -4.0370
    -4.0362  -4.0327  -3.8322  -3.8291  -3.6949  -3.6939  -3.6632  -3.6550
    -3.6531  -3.6408  -3.5183  -3.4175  -3.3171  -3.2793   0.5528   0.7268
     0.7274   0.7378   0.7409   1.0386   1.1325   1.1356   1.1882   1.1901
     1.1915   1.1972   1.2135   1.2138   1.2298   1.2423   1.2648   1.3129
     1.4464   1.4497   1.4786   1.4802   1.4927   1.5323   1.5464   1.5552
     1.5719   1.5756   1.5778   1.5795   1.6281   1.6980   1.7360   1.8139
     1.8451   1.8631   1.8816   1.8993   1.9031   1.9293   1.9843   1.9982
     2.0117   2.0226   2.0520   2.0580   2.1114   2.1831   2.1993   2.2108
     2.2254   2.2269   2.2310   2.2535   2.2636   2.2851   2.3063   2.3292
     2.3534   2.3824   2.3900   2.3946   2.4026   2.4104   2.4201   2.4345
     2.4384   2.4549   2.5622   2.5721   2.6000   2.6178   2.6403   2.6705
     2.6796   2.7013   2.7030   2.7124   2.7182   2.7550   2.7920   2.7928
     2.8422   2.8551   2.8620   2.8737   2.8750   2.8830   2.8905   2.9004
     2.9466   2.9643   2.9853   2.9977   3.0037   3.0603   3.0867   3.1378
     3.1861   3.2192   3.2267   3.2648   3.2924   3.3315   3.3532   3.3626
     3.4056   3.4220   6.0629   6.0668   6.2924   6.3945   6.4678   6.4731
     6.5284   6.5717   6.6198   6.6458   6.6490   6.6528   6.6627   6.6778
     6.6800   6.6857   6.6956   6.8859   6.8973   6.9116   6.9208   6.9251
     6.9287   6.9796   7.0042   7.0077   7.0375   7.0446   7.0477   7.0692
     7.0808   7.0881   7.1399   7.1449   7.2045   7.2193   7.2381   7.2509
     7.3144   7.3176   7.3217   7.3808   7.4056   7.4091   7.4939   7.5115
     7.6134   7.7244   7.7572   7.7939   7.8703   8.9454   9.3960   9.4091
     9.4271   9.4379   9.6674   9.7414   9.7563   9.9349   9.9539  10.0145
    10.0194  10.0248  10.0425  10.0608  10.0714  10.0946  10.1956  10.2111
    10.3124  10.4538  10.4544  10.5310  10.5464  10.6640  10.6797  10.6849
    10.6977  10.7264  10.7587  10.7731  10.7772  10.8037  10.8178

     occupation numbers 
     1.0000   1.0000   1.0000   1.0000   1.0000   1.0000   1.0000   1.0000
     1.0000   1.0000   1.0000   1.0000   1.0000   1.0000   1.0000   1.0000
     1.0000   1.0000   1.0000   1.0000   1.0000   1.0000   1.0000   1.0000
     1.0000   1.0000   1.0000   1.0000   1.0000   1.0000   1.0000   1.0000
     1.0000   1.0000   1.0000   1.0000   1.0000   1.0000   1.0000   1.0000
     1.0000   1.0000   1.0000   1.0000   1.0000   1.0000   1.0000   1.0000
     1.0000   1.0000   1.0000   1.0000   1.0000   1.0000   1.0000   1.0000
     1.0000   1.0000   1.0000   1.0000   1.0000   1.0000   1.0000   1.0000
     1.0000   1.0000   1.0000   1.0000   1.0000   1.0000   1.0000   1.0000
     1.0000   1.0000   1.0000   1.0000   1.0000   1.0000   1.0000   1.0000
     1.0000   1.0000   1.0000   1.0000   1.0000   1.0000   1.0000   1.0000
     1.0000   1.0000   1.0000   1.0000   1.0000   1.0000   1.0000   1.0000
     1.0000   1.0000   1.0000   1.0000   1.0000   1.0000   1.0000   1.0000
     1.0000   1.0000   1.0000   1.0000   1.0000   1.0000   1.0000   1.0000
     1.0000   1.0000   1.0000   1.0000   1.0000   1.0000   1.0000   1.0000
     1.0000   1.0000   1.0000   1.0000   1.0000   1.0000   1.0000   1.0000
     1.0000   1.0000   1.0000   1.0000   1.0000   1.0000   1.0000   1.0000
     1.0000   1.0000   1.0000   1.0000   1.0000   1.0000   1.0000   1.0000
     1.0000   1.0000   1.0000   1.0000   1.0000   1.0000   1.0000   1.0000
     1.0000   1.0000   1.0000   1.0000   1.0000   1.0000   1.0000   1.0000
     1.0000   1.0000   1.0000   1.0000   1.0000   1.0000   1.0000   1.0000
     1.0000   1.0000   1.0000   1.0000   1.0000   1.0000   1.0000   1.0000
     1.0000   1.0000   1.0000   1.0000   1.0000   1.0000   1.0000   1.0000
     1.0000   1.0000   1.0000   1.0000   1.0000   1.0000   1.0000   1.0000
     1.0000   1.0000   1.0000   1.0000   1.0000   1.0000   1.0000   1.0000
     1.0000   1.0000   1.0000   1.0000   1.0000   1.0000   1.0000   1.0000
     1.0000   1.0000   1.0000   1.0000   1.0000   1.0000   1.0000   1.0000
     1.0000   1.0000   1.0000   1.0000   1.0000   1.0000   1.0000   1.0000
     1.0000   1.0000   1.0000   1.0000   1.0000   1.0000   1.0000   1.0000
     1.0000   1.0000   1.0000   1.0000   1.0000   1.0000   1.0000   1.0000
     1.0000   1.0000   1.0000   1.0000   1.0000   1.0000   1.0000   1.0000
     1.0000   1.0000   1.0000   1.0000   1.0000   1.0000   1.0000   1.0000
     1.0000   1.0000   1.0000   1.0000   1.0000   1.0000   1.0000   1.0000
     1.0000   1.0000   1.0000   1.0000   1.0000   1.0000   1.0000   1.0000
     1.0000   1.0000   1.0000   1.0000   1.0000   1.0000   1.0000   1.0000
     1.0000   1.0000   1.0000   1.0000   1.0000   1.0000   1.0000   1.0000
     1.0000   1.0000   1.0000   1.0000   1.0000   1.0000   1.0000   1.0000
     1.0000   1.0000   1.0000   1.0000   1.0000   1.0000   1.0000   1.0000
     1.0000   1.0000   1.0000   1.0000   1.0000   1.0000   1.0000   1.0000
     1.0000   1.0000   1.0000   1.0000   1.0000   1.0000   1.0000   1.0000
     1.0000   1.0000   1.0000   1.0000   1.0000   1.0000   1.0000   1.0000
     1.0000   1.0000   1.0000   1.0000   1.0000   1.0000   1.0000   1.0000
     1.0000   1.0000   1.0000   1.0000   1.0000   1.0000   1.0000   1.0000
     1.0000   1.0000   1.0000   1.0000   1.0000   1.0000   1.0000   1.0000
     1.0000   1.0000   1.0000   1.0000   1.0000   1.0000   1.0000   1.0000
     1.0000   1.0000   1.0000   1.0000   1.0000   1.0000   1.0000   1.0000
     1.0000   1.0000   1.0000   1.0000   1.0000   1.0000   1.0000   1.0000
     1.0000   1.0000   1.0000   1.0000   1.0000   1.0000   1.0000   1.0000
     1.0000   1.0000   1.0000   1.0000   1.0000   1.0000   1.0000   1.0000
     1.0000   1.0000   1.0000   1.0000   1.0000   1.0000   1.0000   1.0000
     1.0000   1.0000   1.0000   1.0000   1.0000   1.0000   1.0000   1.0000
     1.0000   1.0000   1.0000   1.0000   1.0000   1.0000   1.0000   0.9999
     0.9994   0.9982   0.9977   0.9927   0.9844   0.9597   0.9360   0.9228
     0.8357   0.7901   0.0000   0.0000   0.0000   0.0000   0.0000   0.0000
     0.0000   0.0000   0.0000   0.0000   0.0000   0.0000   0.0000   0.0000
     0.0000   0.0000   0.0000   0.0000   0.0000   0.0000   0.0000   0.0000
     0.0000   0.0000   0.0000   0.0000   0.0000   0.0000   0.0000   0.0000
     0.0000   0.0000   0.0000   0.0000   0.0000   0.0000   0.0000   0.0000
     0.0000   0.0000   0.0000   0.0000   0.0000   0.0000   0.0000   0.0000
     0.0000   0.0000   0.0000   0.0000   0.0000   0.0000   0.0000   0.0000
     0.0000   0.0000   0.0000   0.0000   0.0000   0.0000   0.0000   0.0000
     0.0000   0.0000   0.0000   0.0000   0.0000   0.0000   0.0000   0.0000
     0.0000   0.0000   0.0000   0.0000   0.0000   0.0000   0.0000   0.0000
     0.0000   0.0000   0.0000   0.0000   0.0000   0.0000   0.0000

          k = 0.5000-0.2887 0.0000 (170366 PWs)   bands (ev):

   -41.1848 -41.1846 -41.1846 -41.1844 -41.1826 -41.1824 -41.1823 -41.1823
   -41.1821 -41.1821 -41.1820 -41.1818 -41.1813 -41.1811 -41.1804 -41.1802
   -41.1802 -41.1800 -41.1799 -41.1798 -41.1797 -41.1796 -41.1792 -41.1790
   -41.1778 -41.1775 -41.1774 -41.1771 -41.1768 -41.1765 -41.1752 -41.1751
   -41.1750 -41.1749 -41.1729 -41.1728 -41.1726 -41.1726 -41.1723 -41.1722
   -41.1719 -41.1718 -41.1712 -41.1710 -41.1708 -41.1708 -41.1707 -41.1706
   -41.1706 -41.1706 -41.1705 -41.1705 -41.1703 -41.1701 -41.1700 -41.1697
   -41.1692 -41.1689 -41.1688 -41.1687 -41.1686 -41.1686 -41.1685 -41.1685
   -41.1684 -41.1683 -41.1682 -41.1679 -41.1679 -41.1678 -41.1674 -41.1673
   -41.1670 -41.1668 -41.1667 -41.1666 -41.1666 -41.1665 -41.1665 -41.1663
   -41.1663 -41.1662 -41.1662 -41.1660 -41.1645 -41.1643 -41.1642 -41.1641
   -41.1638 -41.1636 -40.8967 -40.8964 -40.8964 -40.8962 -40.8955 -40.8953
   -40.8953 -40.8951 -40.8943 -40.8942 -40.8941 -40.8940 -40.8919 -40.8916
   -40.8902 -40.8900 -40.8894 -40.8892 -40.8885 -40.8882 -40.8881 -40.8878
   -40.8869 -40.8868 -40.8865 -40.8863 -40.8859 -40.8856 -40.8855 -40.8852
   -40.8168 -40.8166 -40.8162 -40.8161 -40.8159 -40.8158 -40.8119 -40.8118
   -40.8112 -40.8110 -40.8109 -40.8108 -40.8104 -40.8103 -40.8096 -40.8095
   -40.8093 -40.8091 -40.7969 -40.7967 -40.7964 -40.7963 -40.7952 -40.7951
   -40.7950 -40.7949 -40.7948 -40.7947 -40.7946 -40.7944 -40.6589 -40.6586
   -40.6580 -40.6578 -40.6563 -40.6560 -40.6557 -40.6555 -40.6554 -40.6551
   -40.6549 -40.6546 -40.5834 -40.5831 -40.5810 -40.5806 -40.5803 -40.5802
   -40.5800 -40.5800 -40.5780 -40.5778 -40.5776 -40.5775 -40.5573 -40.5571
   -40.5551 -40.5547 -40.5547 -40.5544 -13.3495 -13.3480 -13.3438 -13.3422
   -13.3416 -13.3383 -13.3356 -13.3337 -13.3306 -13.3304 -13.3297 -13.3284
   -13.3275 -13.3266 -13.3253 -13.3246 -13.3245 -13.3240 -13.3222 -13.3215
   -13.3214 -13.3210 -13.3210 -13.3204 -13.3199 -13.3199 -13.3192 -13.3192
   -13.3182 -13.3175 -13.3171 -13.3162 -13.3158 -13.3146 -13.3143 -13.3133
   -13.3131 -13.3116 -13.3113 -13.3104 -13.3098 -13.3090 -13.3088 -13.3086
   -13.3074 -13.0372 -13.0369 -13.0367 -13.0366 -13.0225 -13.0224 -13.0199
   -13.0198 -13.0198 -13.0197 -12.9566 -12.9538 -12.9526 -12.9455 -12.9430
   -12.9400 -12.9374 -12.9350 -12.9329 -12.9308 -12.9300 -12.9299 -12.9294
   -12.9284 -12.9284 -12.9263 -12.9254 -12.9245 -12.9239 -12.9228 -12.9228
   -12.9213 -12.9190 -12.9183 -12.9095 -12.9084 -12.9077 -12.9057 -12.9053
   -12.9042  -8.3807  -8.3740  -8.2193  -8.2189  -8.0226  -8.0193  -8.0178
    -8.0166  -8.0122  -8.0037  -8.0004  -7.9942  -7.9651  -7.9337  -7.9318
    -7.9052  -7.8945  -7.8915  -7.8897  -7.8869  -7.8438  -7.8106  -7.7163
    -7.7134  -7.6481  -7.6248  -7.6069  -7.5901  -7.5663  -7.5535  -7.4643
    -7.4412  -7.4296  -7.3602  -7.3530  -7.3337  -4.0452  -4.0384  -4.0368
    -4.0358  -4.0337  -3.8323  -3.8292  -3.6945  -3.6939  -3.6631  -3.6560
    -3.6521  -3.6409  -3.5191  -3.4176  -3.3171  -3.2791   0.5529   0.7268
     0.7271   0.7379   0.7412   1.0391   1.1321   1.1356   1.1873   1.1907
     1.1909   1.1981   1.2132   1.2140   1.2294   1.2427   1.2647   1.3130
     1.4474   1.4504   1.4785   1.4788   1.4923   1.5327   1.5473   1.5551
     1.5720   1.5757   1.5776   1.5804   1.6276   1.6971   1.7336   1.8142
     1.8452   1.8639   1.8814   1.8993   1.9025   1.9294   1.9847   1.9980
     2.0131   2.0213   2.0532   2.0563   2.1118   2.1828   2.2008   2.2112
     2.2249   2.2277   2.2306   2.2531   2.2634   2.2852   2.3069   2.3297
     2.3541   2.3811   2.3886   2.3954   2.4036   2.4102   2.4206   2.4342
     2.4383   2.4559   2.5624   2.5717   2.6003   2.6174   2.6398   2.6702
     2.6804   2.7017   2.7017   2.7129   2.7188   2.7555   2.7907   2.7928
     2.8421   2.8553   2.8621   2.8730   2.8755   2.8831   2.8898   2.9004
     2.9468   2.9647   2.9831   2.9984   3.0038   3.0613   3.0864   3.1377
     3.1865   3.2198   3.2270   3.2645   3.2912   3.3319   3.3533   3.3614
     3.4060   3.4222   6.0643   6.0654   6.2924   6.3959   6.4675   6.4737
     6.5234   6.5758   6.6165   6.6422   6.6510   6.6516   6.6600   6.6793
     6.6799   6.6890   6.6989   6.8831   6.8930   6.9125   6.9226   6.9240
     6.9264   6.9812   7.0045   7.0100   7.0378   7.0453   7.0463   7.0688
     7.0844   7.0883   7.1397   7.1450   7.2023   7.2194   7.2384   7.2526
     7.3165   7.3191   7.3199   7.3790   7.4060   7.4064   7.4944   7.5130
     7.6155   7.7240   7.7599   7.7926   7.8683   8.9459   9.3955   9.4092
     9.4268   9.4381   9.6679   9.7413   9.7564   9.9346   9.9550  10.0133
    10.0189  10.0246  10.0428  10.0597  10.0713  10.0952  10.1945  10.2108
    10.3120  10.4553  10.4561  10.5310  10.5445  10.6618  10.6818  10.6842
    10.6979  10.7269  10.7574  10.7758  10.7783  10.8034  10.8187

     occupation numbers 
     1.0000   1.0000   1.0000   1.0000   1.0000   1.0000   1.0000   1.0000
     1.0000   1.0000   1.0000   1.0000   1.0000   1.0000   1.0000   1.0000
     1.0000   1.0000   1.0000   1.0000   1.0000   1.0000   1.0000   1.0000
     1.0000   1.0000   1.0000   1.0000   1.0000   1.0000   1.0000   1.0000
     1.0000   1.0000   1.0000   1.0000   1.0000   1.0000   1.0000   1.0000
     1.0000   1.0000   1.0000   1.0000   1.0000   1.0000   1.0000   1.0000
     1.0000   1.0000   1.0000   1.0000   1.0000   1.0000   1.0000   1.0000
     1.0000   1.0000   1.0000   1.0000   1.0000   1.0000   1.0000   1.0000
     1.0000   1.0000   1.0000   1.0000   1.0000   1.0000   1.0000   1.0000
     1.0000   1.0000   1.0000   1.0000   1.0000   1.0000   1.0000   1.0000
     1.0000   1.0000   1.0000   1.0000   1.0000   1.0000   1.0000   1.0000
     1.0000   1.0000   1.0000   1.0000   1.0000   1.0000   1.0000   1.0000
     1.0000   1.0000   1.0000   1.0000   1.0000   1.0000   1.0000   1.0000
     1.0000   1.0000   1.0000   1.0000   1.0000   1.0000   1.0000   1.0000
     1.0000   1.0000   1.0000   1.0000   1.0000   1.0000   1.0000   1.0000
     1.0000   1.0000   1.0000   1.0000   1.0000   1.0000   1.0000   1.0000
     1.0000   1.0000   1.0000   1.0000   1.0000   1.0000   1.0000   1.0000
     1.0000   1.0000   1.0000   1.0000   1.0000   1.0000   1.0000   1.0000
     1.0000   1.0000   1.0000   1.0000   1.0000   1.0000   1.0000   1.0000
     1.0000   1.0000   1.0000   1.0000   1.0000   1.0000   1.0000   1.0000
     1.0000   1.0000   1.0000   1.0000   1.0000   1.0000   1.0000   1.0000
     1.0000   1.0000   1.0000   1.0000   1.0000   1.0000   1.0000   1.0000
     1.0000   1.0000   1.0000   1.0000   1.0000   1.0000   1.0000   1.0000
     1.0000   1.0000   1.0000   1.0000   1.0000   1.0000   1.0000   1.0000
     1.0000   1.0000   1.0000   1.0000   1.0000   1.0000   1.0000   1.0000
     1.0000   1.0000   1.0000   1.0000   1.0000   1.0000   1.0000   1.0000
     1.0000   1.0000   1.0000   1.0000   1.0000   1.0000   1.0000   1.0000
     1.0000   1.0000   1.0000   1.0000   1.0000   1.0000   1.0000   1.0000
     1.0000   1.0000   1.0000   1.0000   1.0000   1.0000   1.0000   1.0000
     1.0000   1.0000   1.0000   1.0000   1.0000   1.0000   1.0000   1.0000
     1.0000   1.0000   1.0000   1.0000   1.0000   1.0000   1.0000   1.0000
     1.0000   1.0000   1.0000   1.0000   1.0000   1.0000   1.0000   1.0000
     1.0000   1.0000   1.0000   1.0000   1.0000   1.0000   1.0000   1.0000
     1.0000   1.0000   1.0000   1.0000   1.0000   1.0000   1.0000   1.0000
     1.0000   1.0000   1.0000   1.0000   1.0000   1.0000   1.0000   1.0000
     1.0000   1.0000   1.0000   1.0000   1.0000   1.0000   1.0000   1.0000
     1.0000   1.0000   1.0000   1.0000   1.0000   1.0000   1.0000   1.0000
     1.0000   1.0000   1.0000   1.0000   1.0000   1.0000   1.0000   1.0000
     1.0000   1.0000   1.0000   1.0000   1.0000   1.0000   1.0000   1.0000
     1.0000   1.0000   1.0000   1.0000   1.0000   1.0000   1.0000   1.0000
     1.0000   1.0000   1.0000   1.0000   1.0000   1.0000   1.0000   1.0000
     1.0000   1.0000   1.0000   1.0000   1.0000   1.0000   1.0000   1.0000
     1.0000   1.0000   1.0000   1.0000   1.0000   1.0000   1.0000   1.0000
     1.0000   1.0000   1.0000   1.0000   1.0000   1.0000   1.0000   1.0000
     1.0000   1.0000   1.0000   1.0000   1.0000   1.0000   1.0000   1.0000
     1.0000   1.0000   1.0000   1.0000   1.0000   1.0000   1.0000   1.0000
     1.0000   1.0000   1.0000   1.0000   1.0000   1.0000   1.0000   1.0000
     1.0000   1.0000   1.0000   1.0000   1.0000   1.0000   1.0000   1.0000
     1.0000   1.0000   1.0000   1.0000   1.0000   1.0000   1.0000   1.0000
     1.0000   1.0000   1.0000   1.0000   1.0000   1.0000   1.0000   1.0000
     1.0000   1.0000   1.0000   1.0000   1.0000   1.0000   1.0000   1.0000
     1.0000   1.0000   1.0000   1.0000   1.0000   1.0000   1.0000   0.9999
     0.9994   0.9982   0.9977   0.9927   0.9848   0.9593   0.9358   0.9245
     0.8347   0.7896   0.0000   0.0000   0.0000   0.0000   0.0000   0.0000
     0.0000   0.0000   0.0000   0.0000   0.0000   0.0000   0.0000   0.0000
     0.0000   0.0000   0.0000   0.0000   0.0000   0.0000   0.0000   0.0000
     0.0000   0.0000   0.0000   0.0000   0.0000   0.0000   0.0000   0.0000
     0.0000   0.0000   0.0000   0.0000   0.0000   0.0000   0.0000   0.0000
     0.0000   0.0000   0.0000   0.0000   0.0000   0.0000   0.0000   0.0000
     0.0000   0.0000   0.0000   0.0000   0.0000   0.0000   0.0000   0.0000
     0.0000   0.0000   0.0000   0.0000   0.0000   0.0000   0.0000   0.0000
     0.0000   0.0000   0.0000   0.0000   0.0000   0.0000   0.0000   0.0000
     0.0000   0.0000   0.0000   0.0000   0.0000   0.0000   0.0000   0.0000
     0.0000   0.0000   0.0000   0.0000   0.0000   0.0000   0.0000

          k =-0.5000-0.2887 0.0000 (170366 PWs)   bands (ev):

   -41.1848 -41.1846 -41.1846 -41.1844 -41.1826 -41.1824 -41.1823 -41.1823
   -41.1821 -41.1821 -41.1820 -41.1818 -41.1813 -41.1811 -41.1804 -41.1802
   -41.1802 -41.1800 -41.1799 -41.1798 -41.1797 -41.1796 -41.1792 -41.1790
   -41.1778 -41.1775 -41.1774 -41.1771 -41.1768 -41.1765 -41.1752 -41.1751
   -41.1750 -41.1749 -41.1729 -41.1728 -41.1726 -41.1726 -41.1723 -41.1722
   -41.1719 -41.1718 -41.1712 -41.1710 -41.1708 -41.1708 -41.1707 -41.1706
   -41.1706 -41.1706 -41.1705 -41.1705 -41.1703 -41.1701 -41.1700 -41.1697
   -41.1692 -41.1689 -41.1688 -41.1687 -41.1686 -41.1686 -41.1685 -41.1685
   -41.1684 -41.1683 -41.1682 -41.1679 -41.1679 -41.1678 -41.1674 -41.1673
   -41.1670 -41.1668 -41.1667 -41.1666 -41.1666 -41.1665 -41.1665 -41.1663
   -41.1663 -41.1662 -41.1662 -41.1660 -41.1645 -41.1643 -41.1642 -41.1641
   -41.1638 -41.1636 -40.8967 -40.8964 -40.8964 -40.8962 -40.8955 -40.8953
   -40.8953 -40.8951 -40.8943 -40.8942 -40.8941 -40.8940 -40.8919 -40.8916
   -40.8902 -40.8900 -40.8894 -40.8892 -40.8885 -40.8882 -40.8881 -40.8878
   -40.8869 -40.8868 -40.8865 -40.8863 -40.8859 -40.8856 -40.8855 -40.8852
   -40.8168 -40.8166 -40.8162 -40.8161 -40.8159 -40.8158 -40.8119 -40.8118
   -40.8112 -40.8110 -40.8109 -40.8108 -40.8104 -40.8103 -40.8096 -40.8095
   -40.8093 -40.8091 -40.7969 -40.7967 -40.7964 -40.7963 -40.7952 -40.7951
   -40.7950 -40.7949 -40.7948 -40.7947 -40.7946 -40.7944 -40.6589 -40.6586
   -40.6580 -40.6578 -40.6563 -40.6560 -40.6557 -40.6555 -40.6554 -40.6551
   -40.6549 -40.6546 -40.5834 -40.5831 -40.5810 -40.5806 -40.5803 -40.5802
   -40.5800 -40.5800 -40.5780 -40.5778 -40.5776 -40.5775 -40.5573 -40.5571
   -40.5551 -40.5547 -40.5547 -40.5544 -13.3499 -13.3475 -13.3438 -13.3419
   -13.3413 -13.3387 -13.3356 -13.3342 -13.3308 -13.3302 -13.3297 -13.3287
   -13.3274 -13.3266 -13.3253 -13.3249 -13.3240 -13.3229 -13.3225 -13.3220
   -13.3215 -13.3213 -13.3211 -13.3202 -13.3201 -13.3198 -13.3191 -13.3187
   -13.3182 -13.3179 -13.3167 -13.3161 -13.3152 -13.3148 -13.3145 -13.3137
   -13.3129 -13.3119 -13.3115 -13.3106 -13.3104 -13.3091 -13.3086 -13.3081
   -13.3072 -13.0372 -13.0370 -13.0367 -13.0366 -13.0225 -13.0224 -13.0199
   -13.0198 -13.0198 -13.0197 -12.9564 -12.9546 -12.9519 -12.9452 -12.9436
   -12.9398 -12.9370 -12.9355 -12.9327 -12.9308 -12.9300 -12.9299 -12.9293
   -12.9288 -12.9280 -12.9265 -12.9250 -12.9247 -12.9238 -12.9231 -12.9228
   -12.9210 -12.9195 -12.9180 -12.9096 -12.9082 -12.9077 -12.9061 -12.9046
   -12.9046  -8.3809  -8.3737  -8.2193  -8.2189  -8.0226  -8.0203  -8.0168
    -8.0163  -8.0119  -8.0041  -8.0004  -7.9938  -7.9653  -7.9342  -7.9320
    -7.9048  -7.8936  -7.8916  -7.8893  -7.8880  -7.8435  -7.8110  -7.7160
    -7.7132  -7.6481  -7.6249  -7.6069  -7.5904  -7.5664  -7.5533  -7.4642
    -7.4418  -7.4289  -7.3598  -7.3536  -7.3336  -4.0452  -4.0389  -4.0371
    -4.0362  -4.0327  -3.8322  -3.8291  -3.6949  -3.6940  -3.6632  -3.6549
    -3.6532  -3.6408  -3.5183  -3.4175  -3.3171  -3.2793   0.5528   0.7268
     0.7274   0.7378   0.7409   1.0386   1.1325   1.1356   1.1882   1.1901
     1.1915   1.1972   1.2135   1.2138   1.2298   1.2423   1.2648   1.3129
     1.4464   1.4497   1.4786   1.4802   1.4927   1.5323   1.5464   1.5552
     1.5719   1.5756   1.5778   1.5795   1.6281   1.6980   1.7361   1.8139
     1.8451   1.8631   1.8816   1.8993   1.9031   1.9293   1.9843   1.9982
     2.0117   2.0226   2.0520   2.0580   2.1114   2.1831   2.1993   2.2108
     2.2254   2.2270   2.2310   2.2534   2.2636   2.2851   2.3063   2.3292
     2.3534   2.3824   2.3900   2.3946   2.4026   2.4104   2.4201   2.4345
     2.4384   2.4549   2.5622   2.5721   2.6000   2.6178   2.6403   2.6705
     2.6795   2.7013   2.7030   2.7124   2.7182   2.7550   2.7920   2.7929
     2.8422   2.8551   2.8620   2.8737   2.8750   2.8830   2.8905   2.9004
     2.9466   2.9643   2.9854   2.9976   3.0037   3.0602   3.0867   3.1378
     3.1861   3.2192   3.2267   3.2648   3.2924   3.3315   3.3532   3.3626
     3.4056   3.4220   6.0629   6.0668   6.2924   6.3945   6.4678   6.4731
     6.5284   6.5717   6.6199   6.6458   6.6490   6.6528   6.6627   6.6778
     6.6800   6.6857   6.6956   6.8859   6.8973   6.9116   6.9207   6.9251
     6.9287   6.9796   7.0042   7.0076   7.0375   7.0446   7.0477   7.0692
     7.0807   7.0881   7.1399   7.1449   7.2046   7.2193   7.2381   7.2508
     7.3144   7.3175   7.3218   7.3808   7.4056   7.4091   7.4939   7.5115
     7.6134   7.7244   7.7572   7.7939   7.8703   8.9454   9.3960   9.4091
     9.4272   9.4379   9.6674   9.7414   9.7563   9.9349   9.9539  10.0145
    10.0194  10.0248  10.0425  10.0608  10.0714  10.0946  10.1956  10.2111
    10.3124  10.4537  10.4544  10.5310  10.5464  10.6640  10.6797  10.6849
    10.6977  10.7264  10.7587  10.7731  10.7772  10.8037  10.8177

     occupation numbers 
     1.0000   1.0000   1.0000   1.0000   1.0000   1.0000   1.0000   1.0000
     1.0000   1.0000   1.0000   1.0000   1.0000   1.0000   1.0000   1.0000
     1.0000   1.0000   1.0000   1.0000   1.0000   1.0000   1.0000   1.0000
     1.0000   1.0000   1.0000   1.0000   1.0000   1.0000   1.0000   1.0000
     1.0000   1.0000   1.0000   1.0000   1.0000   1.0000   1.0000   1.0000
     1.0000   1.0000   1.0000   1.0000   1.0000   1.0000   1.0000   1.0000
     1.0000   1.0000   1.0000   1.0000   1.0000   1.0000   1.0000   1.0000
     1.0000   1.0000   1.0000   1.0000   1.0000   1.0000   1.0000   1.0000
     1.0000   1.0000   1.0000   1.0000   1.0000   1.0000   1.0000   1.0000
     1.0000   1.0000   1.0000   1.0000   1.0000   1.0000   1.0000   1.0000
     1.0000   1.0000   1.0000   1.0000   1.0000   1.0000   1.0000   1.0000
     1.0000   1.0000   1.0000   1.0000   1.0000   1.0000   1.0000   1.0000
     1.0000   1.0000   1.0000   1.0000   1.0000   1.0000   1.0000   1.0000
     1.0000   1.0000   1.0000   1.0000   1.0000   1.0000   1.0000   1.0000
     1.0000   1.0000   1.0000   1.0000   1.0000   1.0000   1.0000   1.0000
     1.0000   1.0000   1.0000   1.0000   1.0000   1.0000   1.0000   1.0000
     1.0000   1.0000   1.0000   1.0000   1.0000   1.0000   1.0000   1.0000
     1.0000   1.0000   1.0000   1.0000   1.0000   1.0000   1.0000   1.0000
     1.0000   1.0000   1.0000   1.0000   1.0000   1.0000   1.0000   1.0000
     1.0000   1.0000   1.0000   1.0000   1.0000   1.0000   1.0000   1.0000
     1.0000   1.0000   1.0000   1.0000   1.0000   1.0000   1.0000   1.0000
     1.0000   1.0000   1.0000   1.0000   1.0000   1.0000   1.0000   1.0000
     1.0000   1.0000   1.0000   1.0000   1.0000   1.0000   1.0000   1.0000
     1.0000   1.0000   1.0000   1.0000   1.0000   1.0000   1.0000   1.0000
     1.0000   1.0000   1.0000   1.0000   1.0000   1.0000   1.0000   1.0000
     1.0000   1.0000   1.0000   1.0000   1.0000   1.0000   1.0000   1.0000
     1.0000   1.0000   1.0000   1.0000   1.0000   1.0000   1.0000   1.0000
     1.0000   1.0000   1.0000   1.0000   1.0000   1.0000   1.0000   1.0000
     1.0000   1.0000   1.0000   1.0000   1.0000   1.0000   1.0000   1.0000
     1.0000   1.0000   1.0000   1.0000   1.0000   1.0000   1.0000   1.0000
     1.0000   1.0000   1.0000   1.0000   1.0000   1.0000   1.0000   1.0000
     1.0000   1.0000   1.0000   1.0000   1.0000   1.0000   1.0000   1.0000
     1.0000   1.0000   1.0000   1.0000   1.0000   1.0000   1.0000   1.0000
     1.0000   1.0000   1.0000   1.0000   1.0000   1.0000   1.0000   1.0000
     1.0000   1.0000   1.0000   1.0000   1.0000   1.0000   1.0000   1.0000
     1.0000   1.0000   1.0000   1.0000   1.0000   1.0000   1.0000   1.0000
     1.0000   1.0000   1.0000   1.0000   1.0000   1.0000   1.0000   1.0000
     1.0000   1.0000   1.0000   1.0000   1.0000   1.0000   1.0000   1.0000
     1.0000   1.0000   1.0000   1.0000   1.0000   1.0000   1.0000   1.0000
     1.0000   1.0000   1.0000   1.0000   1.0000   1.0000   1.0000   1.0000
     1.0000   1.0000   1.0000   1.0000   1.0000   1.0000   1.0000   1.0000
     1.0000   1.0000   1.0000   1.0000   1.0000   1.0000   1.0000   1.0000
     1.0000   1.0000   1.0000   1.0000   1.0000   1.0000   1.0000   1.0000
     1.0000   1.0000   1.0000   1.0000   1.0000   1.0000   1.0000   1.0000
     1.0000   1.0000   1.0000   1.0000   1.0000   1.0000   1.0000   1.0000
     1.0000   1.0000   1.0000   1.0000   1.0000   1.0000   1.0000   1.0000
     1.0000   1.0000   1.0000   1.0000   1.0000   1.0000   1.0000   1.0000
     1.0000   1.0000   1.0000   1.0000   1.0000   1.0000   1.0000   1.0000
     1.0000   1.0000   1.0000   1.0000   1.0000   1.0000   1.0000   1.0000
     1.0000   1.0000   1.0000   1.0000   1.0000   1.0000   1.0000   1.0000
     1.0000   1.0000   1.0000   1.0000   1.0000   1.0000   1.0000   1.0000
     1.0000   1.0000   1.0000   1.0000   1.0000   1.0000   1.0000   0.9999
     0.9994   0.9982   0.9977   0.9927   0.9844   0.9597   0.9360   0.9228
     0.8357   0.7901   0.0000   0.0000   0.0000   0.0000   0.0000   0.0000
     0.0000   0.0000   0.0000   0.0000   0.0000   0.0000   0.0000   0.0000
     0.0000   0.0000   0.0000   0.0000   0.0000   0.0000   0.0000   0.0000
     0.0000   0.0000   0.0000   0.0000   0.0000   0.0000   0.0000   0.0000
     0.0000   0.0000   0.0000   0.0000   0.0000   0.0000   0.0000   0.0000
     0.0000   0.0000   0.0000   0.0000   0.0000   0.0000   0.0000   0.0000
     0.0000   0.0000   0.0000   0.0000   0.0000   0.0000   0.0000   0.0000
     0.0000   0.0000   0.0000   0.0000   0.0000   0.0000   0.0000   0.0000
     0.0000   0.0000   0.0000   0.0000   0.0000   0.0000   0.0000   0.0000
     0.0000   0.0000   0.0000   0.0000   0.0000   0.0000   0.0000   0.0000
     0.0000   0.0000   0.0000   0.0000   0.0000   0.0000   0.0000

     the Fermi energy is     3.4996 ev

!    total energy              =  -35528.58296593 Ry
     total all-electron energy =  -1223255.482439 Ry
     estimated scf accuracy    <       0.00000006 Ry
     smearing contrib. (-TS)   =      -0.01205675 Ry
     internal energy E=F+TS    =  -35528.57090918 Ry

     The total energy is F=E-TS. E is the sum of the following terms:
     one-electron contribution =   -6750.36809556 Ry
     hartree contribution      =    3753.91732894 Ry
     xc contribution           =   -2518.60080674 Ry
     ewald contribution        =   -5426.59450765 Ry
     one-center paw contrib.   =  -24586.92482817 Ry
      -> PAW hartree energy AE =      95.98925374 Ry
      -> PAW hartree energy PS =     -96.22674260 Ry
      -> PAW xc energy AE      =    -798.43729877 Ry
      -> PAW xc energy PS      =      33.31672672 Ry
      -> total E_H with PAW    =    3753.67984008 Ry
      -> total E_XC with PAW   =   -3283.72137879 Ry

     convergence has been achieved in  14 iterations


     -----------------------------------------------
     Non-local corr. energy    =      25.64454597 Ry
     -----------------------------------------------


     Forces acting on atoms (cartesian axes, Ry/au):

     atom    1 type  1   force =     0.00006072    0.00010157   -0.00001597
     atom    2 type  1   force =     0.00105409   -0.00175005   -0.00008512
     atom    3 type  1   force =     0.00037221   -0.00050210   -0.00017653
     atom    4 type  1   force =    -0.00088094    0.00164681   -0.00004687
     atom    5 type  1   force =    -0.00024082    0.00064190   -0.00001419
     atom    6 type  1   force =    -0.00204804    0.00003209    0.00012475
     atom    7 type  1   force =    -0.00062239    0.00006920    0.00014858
     atom    8 type  1   force =    -0.00104518   -0.00180689    0.00002414
     atom    9 type  1   force =    -0.00031521   -0.00054712   -0.00001235
     atom   10 type  1   force =    -0.00003608    0.00001505   -0.00020340
     atom   11 type  1   force =    -0.00001474    0.00007922   -0.00048391
     atom   12 type  1   force =     0.00185994    0.00005776    0.00007856
     atom   13 type  1   force =     0.00067683    0.00010993   -0.00001577
     atom   14 type  1   force =     0.00003831   -0.00002290    0.00022503
     atom   15 type  1   force =     0.00007617    0.00002661    0.00045618
     atom   16 type  1   force =     0.00086893    0.00150858    0.00002260
     atom   17 type  1   force =     0.00037126    0.00064174   -0.00001337
     atom   18 type  2   force =     0.00007165    0.00003324    0.00050528
     atom   19 type  2   force =    -0.00015865    0.00027982   -0.00098239
     atom   20 type  2   force =     0.00011868   -0.00001701    0.00038647
     atom   21 type  2   force =     0.00031830   -0.00037866   -0.00089840
     atom   22 type  2   force =     0.00013536    0.00026648   -0.00012596
     atom   23 type  2   force =    -0.00062314   -0.00052022   -0.00069025
     atom   24 type  2   force =     0.00012159    0.00002857    0.00039583
     atom   25 type  2   force =     0.00051370   -0.00018972   -0.00059247
     atom   26 type  2   force =     0.00012632    0.00005337    0.00040059
     atom   27 type  2   force =    -0.00059025   -0.00037744   -0.00076020
     atom   28 type  2   force =     0.00009948    0.00023171    0.00033479
     atom   29 type  2   force =     0.00028830    0.00013744   -0.00059152
     atom   30 type  2   force =    -0.00006185   -0.00003402    0.00049655
     atom   31 type  2   force =    -0.00012694   -0.00020808   -0.00049564
     atom   32 type  2   force =    -0.00002404   -0.00007318   -0.00007327
     atom   33 type  2   force =    -0.00003144    0.00055065   -0.00052330
     atom   34 type  2   force =    -0.00008959    0.00018840   -0.00001498
     atom   35 type  2   force =     0.00044069   -0.00046796   -0.00055678
     atom   36 type  2   force =     0.00032543   -0.00000286    0.00109200
     atom   37 type  2   force =    -0.00001761    0.00006607   -0.00061300
     atom   38 type  2   force =    -0.00041432    0.00034773    0.00069129
     atom   39 type  2   force =    -0.00004411    0.00012490   -0.00049224
     atom   40 type  2   force =    -0.00011327   -0.00020357    0.00058629
     atom   41 type  2   force =     0.00000150   -0.00007669   -0.00058639
     atom   42 type  2   force =    -0.00048715    0.00008473    0.00098461
     atom   43 type  2   force =    -0.00006384    0.00008121   -0.00049128
     atom   44 type  2   force =    -0.00002591   -0.00069368    0.00085432
     atom   45 type  2   force =    -0.00001760    0.00014785   -0.00050032
     atom   46 type  2   force =     0.00049297    0.00025726    0.00060337
     atom   47 type  2   force =    -0.00005032   -0.00005336   -0.00000640
     atom   48 type  2   force =    -0.00015154   -0.00080946    0.00077007
     atom   49 type  2   force =     0.00016351    0.00024453    0.00004694
     atom   50 type  2   force =    -0.00003704    0.00030644    0.00068025
     atom   51 type  2   force =     0.00016130    0.00020699   -0.00042567
     atom   52 type  2   force =    -0.00063137    0.00014663    0.00064260
     atom   53 type  2   force =     0.00020614    0.00002049   -0.00006314
     The non-local contrib.  to forces
     atom    1 type  1   force =    -0.00041461   -0.00069674   -0.00003705
     atom    2 type  1   force =     0.02989993   -0.05228173    0.00218673
     atom    3 type  1   force =    -0.00033352    0.00051339    0.00189872
     atom    4 type  1   force =    -0.03152702    0.05354560    0.00123788
     atom    5 type  1   force =    -0.00051731   -0.00043435    0.00003659
     atom    6 type  1   force =    -0.06019930   -0.00025768   -0.00216528
     atom    7 type  1   force =     0.00063021   -0.00004132   -0.00192117
     atom    8 type  1   force =    -0.02985792   -0.05170669   -0.00002366
     atom    9 type  1   force =     0.00070955    0.00125091   -0.00003919
     atom   10 type  1   force =     0.00137322    0.00028546    0.03768223
     atom   11 type  1   force =     0.00085116    0.00001005   -0.00524825
     atom   12 type  1   force =     0.06216683   -0.00054320   -0.00120355
     atom   13 type  1   force =    -0.00011717   -0.00068157   -0.00003266
     atom   14 type  1   force =    -0.00041327    0.00129225   -0.03762507
     atom   15 type  1   force =    -0.00041621    0.00072350    0.00524823
     atom   16 type  1   force =     0.03187050    0.05520690   -0.00000197
     atom   17 type  1   force =    -0.00024943   -0.00040677   -0.00001289
     atom   18 type  2   force =    -0.00024307   -0.00143547    0.25417244
     atom   19 type  2   force =    -0.00072711   -0.13968710    0.17684444
     atom   20 type  2   force =    -0.00107638    0.00040939    0.25389298
     atom   21 type  2   force =    -0.12120379    0.06884182    0.17621033
     atom   22 type  2   force =     0.00027266    0.00033513    0.24956590
     atom   23 type  2   force =    -0.02611603   -0.01542935    0.20914571
     atom   24 type  2   force =     0.00335125   -0.00196271    0.25913840
     atom   25 type  2   force =    -0.00983917    0.00568720    0.22492941
     atom   26 type  2   force =     0.00110426    0.00066611    0.25397314
     atom   27 type  2   force =     0.12095416    0.06948610    0.17593900
     atom   28 type  2   force =     0.00015255    0.00390559    0.25897113
     atom   29 type  2   force =     0.00022791   -0.01145168    0.22481940
     atom   30 type  2   force =    -0.00318215   -0.00208532    0.25923904
     atom   31 type  2   force =     0.00981229    0.00542097    0.22518730
     atom   32 type  2   force =     0.00000181   -0.00044646    0.24958642
     atom   33 type  2   force =    -0.00028349    0.02955702    0.20937496
     atom   34 type  2   force =    -0.00043450    0.00048713    0.24969090
     atom   35 type  2   force =     0.02586791   -0.01559055    0.20929063
     atom   36 type  2   force =    -0.12060879   -0.07045675   -0.17675906
     atom   37 type  2   force =    -0.00113183   -0.00093325   -0.25425207
     atom   38 type  2   force =     0.00984498   -0.00567851   -0.22484649
     atom   39 type  2   force =    -0.00337879    0.00191847   -0.25921531
     atom   40 type  2   force =    -0.00021324    0.01122991   -0.22510351
     atom   41 type  2   force =    -0.00021642   -0.00379652   -0.25930483
     atom   42 type  2   force =     0.12022257   -0.07054561   -0.17612004
     atom   43 type  2   force =     0.00090019   -0.00073370   -0.25396301
     atom   44 type  2   force =    -0.00031308    0.13947808   -0.17585476
     atom   45 type  2   force =     0.00002026    0.00129397   -0.25404538
     atom   46 type  2   force =     0.02573336    0.01454830   -0.20930362
     atom   47 type  2   force =    -0.00038167   -0.00021525   -0.24965099
     atom   48 type  2   force =    -0.00032048   -0.03034456   -0.20907847
     atom   49 type  2   force =     0.00015913    0.00039660   -0.24963604
     atom   50 type  2   force =    -0.01004503   -0.00553789   -0.22473715
     atom   51 type  2   force =     0.00331346    0.00208190   -0.25903755
     atom   52 type  2   force =    -0.02645877    0.01462039   -0.20921881
     atom   53 type  2   force =     0.00063292   -0.00012174   -0.24975617
     The ionic contribution  to forces
     atom    1 type  1   force =     0.00903746    0.01468912    0.00134852
     atom    2 type  1   force =     0.86669814   -1.45234555   -0.09289970
     atom    3 type  1   force =     0.29884491   -0.50292492   -0.09920345
     atom    4 type  1   force =    -0.79576842    1.42915693   -0.05422532
     atom    5 type  1   force =    -0.27833093    0.50166054    0.00275255
     atom    6 type  1   force =    -1.69190686    0.02393530    0.09305729
     atom    7 type  1   force =    -0.58573044    0.00737660    0.09916395
     atom    8 type  1   force =    -0.84586779   -1.46523434    0.00146079
     atom    9 type  1   force =    -0.29694306   -0.51500529    0.00122729
     atom   10 type  1   force =    -0.02937098   -0.01972386   -0.73038621
     atom   11 type  1   force =    -0.00989152   -0.00509853    0.11267029
     atom   12 type  1   force =     1.63487152    0.02515229    0.05366477
[...]
     atom   41 type  2   force =     0.00016884   -0.00001736    0.00546257
     atom   42 type  2   force =    -0.00264758    0.00129947    0.00388733
     atom   43 type  2   force =    -0.00004498    0.00002073    0.00547533
     atom   44 type  2   force =    -0.00012450   -0.00316319    0.00390105
     atom   45 type  2   force =    -0.00013208    0.00007967    0.00547723
     atom   46 type  2   force =    -0.00069037   -0.00051311    0.00437129
     atom   47 type  2   force =     0.00003781   -0.00013345    0.00530557
     atom   48 type  2   force =    -0.00006938    0.00055075    0.00438548
     atom   49 type  2   force =     0.00005557    0.00001231    0.00532757
     atom   50 type  2   force =     0.00015290    0.00020888    0.00500836
     atom   51 type  2   force =    -0.00002027   -0.00001658    0.00549057
     atom   52 type  2   force =     0.00048899   -0.00049834    0.00436743
     atom   53 type  2   force =    -0.00016221   -0.00006448    0.00530655
     The Hubbard contrib.    to forces
     atom    1 type  1   force =     0.00000000    0.00000000    0.00000000
     atom    2 type  1   force =     0.00000000    0.00000000    0.00000000
     atom    3 type  1   force =     0.00000000    0.00000000    0.00000000
     atom    4 type  1   force =     0.00000000    0.00000000    0.00000000
     atom    5 type  1   force =     0.00000000    0.00000000    0.00000000
     atom    6 type  1   force =     0.00000000    0.00000000    0.00000000
     atom    7 type  1   force =     0.00000000    0.00000000    0.00000000
     atom    8 type  1   force =     0.00000000    0.00000000    0.00000000
     atom    9 type  1   force =     0.00000000    0.00000000    0.00000000
     atom   10 type  1   force =     0.00000000    0.00000000    0.00000000
     atom   11 type  1   force =     0.00000000    0.00000000    0.00000000
     atom   12 type  1   force =     0.00000000    0.00000000    0.00000000
     atom   13 type  1   force =     0.00000000    0.00000000    0.00000000
     atom   14 type  1   force =     0.00000000    0.00000000    0.00000000
     atom   15 type  1   force =     0.00000000    0.00000000    0.00000000
     atom   16 type  1   force =     0.00000000    0.00000000    0.00000000
     atom   17 type  1   force =     0.00000000    0.00000000    0.00000000
     atom   18 type  2   force =     0.00000000    0.00000000    0.00000000
     atom   19 type  2   force =     0.00000000    0.00000000    0.00000000
     atom   20 type  2   force =     0.00000000    0.00000000    0.00000000
     atom   21 type  2   force =     0.00000000    0.00000000    0.00000000
     atom   22 type  2   force =     0.00000000    0.00000000    0.00000000
     atom   23 type  2   force =     0.00000000    0.00000000    0.00000000
     atom   24 type  2   force =     0.00000000    0.00000000    0.00000000
     atom   25 type  2   force =     0.00000000    0.00000000    0.00000000
     atom   26 type  2   force =     0.00000000    0.00000000    0.00000000
     atom   27 type  2   force =     0.00000000    0.00000000    0.00000000
     atom   28 type  2   force =     0.00000000    0.00000000    0.00000000
     atom   29 type  2   force =     0.00000000    0.00000000    0.00000000
     atom   30 type  2   force =     0.00000000    0.00000000    0.00000000
     atom   31 type  2   force =     0.00000000    0.00000000    0.00000000
     atom   32 type  2   force =     0.00000000    0.00000000    0.00000000
     atom   33 type  2   force =     0.00000000    0.00000000    0.00000000
     atom   34 type  2   force =     0.00000000    0.00000000    0.00000000
     atom   35 type  2   force =     0.00000000    0.00000000    0.00000000
     atom   36 type  2   force =     0.00000000    0.00000000    0.00000000
     atom   37 type  2   force =     0.00000000    0.00000000    0.00000000
     atom   38 type  2   force =     0.00000000    0.00000000    0.00000000
     atom   39 type  2   force =     0.00000000    0.00000000    0.00000000
     atom   40 type  2   force =     0.00000000    0.00000000    0.00000000
     atom   41 type  2   force =     0.00000000    0.00000000    0.00000000
     atom   42 type  2   force =     0.00000000    0.00000000    0.00000000
     atom   43 type  2   force =     0.00000000    0.00000000    0.00000000
     atom   44 type  2   force =     0.00000000    0.00000000    0.00000000
     atom   45 type  2   force =     0.00000000    0.00000000    0.00000000
     atom   46 type  2   force =     0.00000000    0.00000000    0.00000000
     atom   47 type  2   force =     0.00000000    0.00000000    0.00000000
     atom   48 type  2   force =     0.00000000    0.00000000    0.00000000
     atom   49 type  2   force =     0.00000000    0.00000000    0.00000000
     atom   50 type  2   force =     0.00000000    0.00000000    0.00000000
     atom   51 type  2   force =     0.00000000    0.00000000    0.00000000
     atom   52 type  2   force =     0.00000000    0.00000000    0.00000000
     atom   53 type  2   force =     0.00000000    0.00000000    0.00000000
     The SCF correction term to forces
     atom    1 type  1   force =     0.00000259    0.00000369   -0.00000947
     atom    2 type  1   force =     0.00001071    0.00000930    0.00002921
     atom    3 type  1   force =     0.00000696   -0.00000972   -0.00001546
     atom    4 type  1   force =    -0.00000062   -0.00000925   -0.00001912
     atom    5 type  1   force =    -0.00000307    0.00000964    0.00000385
     atom    6 type  1   force =     0.00000228    0.00001240   -0.00001377
     atom    7 type  1   force =    -0.00001222    0.00000192   -0.00000017
     atom    8 type  1   force =    -0.00000853   -0.00001267    0.00000849
     atom    9 type  1   force =    -0.00000842   -0.00001575   -0.00000798
     atom   10 type  1   force =    -0.00000377   -0.00000302    0.00000732
     atom   11 type  1   force =    -0.00000388   -0.00000080   -0.00001196
     atom   12 type  1   force =    -0.00000665   -0.00000572    0.00003477
     atom   13 type  1   force =     0.00000978    0.00000293   -0.00001992
     atom   14 type  1   force =    -0.00000025   -0.00000330    0.00000773
     atom   15 type  1   force =     0.00000111   -0.00000359   -0.00000283
     atom   16 type  1   force =     0.00000269    0.00000481    0.00000817
     atom   17 type  1   force =     0.00000681    0.00001075   -0.00000853
     atom   18 type  2   force =    -0.00000945    0.00001507    0.00000681
     atom   19 type  2   force =     0.00001480   -0.00001066   -0.00000903
     atom   20 type  2   force =     0.00000823   -0.00000155   -0.00001410
     atom   21 type  2   force =     0.00000556    0.00000518    0.00001210
     atom   22 type  2   force =     0.00000500   -0.00001105   -0.00001433
     atom   23 type  2   force =    -0.00000748    0.00001356    0.00000384
     atom   24 type  2   force =     0.00000625    0.00000010   -0.00000153
     atom   25 type  2   force =    -0.00000429   -0.00000088   -0.00000382
     atom   26 type  2   force =    -0.00001473    0.00000575    0.00000652
     atom   27 type  2   force =     0.00001397   -0.00000004   -0.00000534
     atom   28 type  2   force =    -0.00000145   -0.00001145   -0.00001956
     atom   29 type  2   force =    -0.00000203    0.00000475    0.00001278
     atom   30 type  2   force =     0.00000379    0.00000762   -0.00002168
     atom   31 type  2   force =    -0.00000924   -0.00000715    0.00001332
     atom   32 type  2   force =     0.00000587    0.00000090   -0.00001643
     atom   33 type  2   force =    -0.00001977    0.00000414    0.00000802
     atom   34 type  2   force =    -0.00000348   -0.00000470   -0.00001273
     atom   35 type  2   force =     0.00000785   -0.00000983    0.00000012
     atom   36 type  2   force =    -0.00001303    0.00000823    0.00002169
     atom   37 type  2   force =     0.00001755   -0.00000106   -0.00001999
     atom   38 type  2   force =     0.00000313   -0.00000284    0.00001394
     atom   39 type  2   force =    -0.00000460    0.00000682   -0.00000962
     atom   40 type  2   force =    -0.00000107   -0.00001050   -0.00000217
     atom   41 type  2   force =     0.00000559    0.00000550    0.00001032
     atom   42 type  2   force =    -0.00000136    0.00000810    0.00000146
     atom   43 type  2   force =    -0.00000424    0.00000573    0.00000085
     atom   44 type  2   force =    -0.00000706    0.00000967    0.00001888
     atom   45 type  2   force =     0.00001283   -0.00000837   -0.00001893
     atom   46 type  2   force =     0.00001251   -0.00001536    0.00000048
     atom   47 type  2   force =    -0.00000344    0.00000600    0.00000757
     atom   48 type  2   force =     0.00001468    0.00000074    0.00000714
     atom   49 type  2   force =    -0.00001308   -0.00000013    0.00000453
     atom   50 type  2   force =     0.00000412    0.00000189   -0.00000193
     atom   51 type  2   force =    -0.00000849   -0.00000714    0.00000787
     atom   52 type  2   force =    -0.00001133    0.00000055    0.00001042
     atom   53 type  2   force =    -0.00000188   -0.00000583    0.00000295

     Total force =     0.003385     Total SCF correction =     0.000125


     Computing stress (Cartesian axis) and pressure



     -----------------------------------------------
     Non-local corr. energy    =      25.64490191 Ry
     -----------------------------------------------

          total   stress  (Ry/bohr**3)                   (kbar)     P=        6.99
   0.00004426  -0.00000001  -0.00000007            6.51       -0.00       -0.01
  -0.00000001   0.00004424   0.00000004           -0.00        6.51        0.01
  -0.00000007   0.00000004   0.00005402           -0.01        0.01        7.95

     kinetic stress (kbar)  14627.63     -0.01     -0.01
                               -0.01  14627.63      0.00
                               -0.01      0.00  14640.50

     local   stress (kbar)  -7472.10     -2.96      1.22
                               -2.96  -7475.42     -0.69
                                1.22     -0.69    805.30

     nonloc. stress (kbar)   -922.84      0.00     -0.01
                                0.00   -922.84      0.00
                               -0.01      0.00   -926.13

     hartree stress (kbar)  11925.89      1.30     -0.51
                                1.30  11927.35      0.29
                               -0.51      0.29   8193.99

     exc-cor stress (kbar)   6859.82      0.00     -0.00
                                0.00   6859.82      0.00
                               -0.00      0.00   6858.83

     corecor stress (kbar) -11161.90     -0.00      0.00
                               -0.00 -11161.90     -0.00
                                0.00     -0.00 -11161.88

     ewald   stress (kbar) -13932.51      1.66     -0.71
                                1.66 -13930.65      0.40
                               -0.71      0.40 -18486.37

     hubbard stress (kbar)      0.00      0.00      0.00
                                0.00      0.00      0.00
                                0.00      0.00      0.00

     DFT-D   stress (kbar)      0.00      0.00      0.00
                                0.00      0.00      0.00
                                0.00      0.00      0.00

     XDM     stress (kbar)      0.00      0.00      0.00
                                0.00      0.00      0.00
                                0.00      0.00      0.00

     dft-nl  stress (kbar)     82.53     -0.00      0.00
                               -0.00     82.53     -0.00
                                0.00     -0.00     83.72

     TS-vdW  stress (kbar)      0.00      0.00      0.00
                                0.00      0.00      0.00
                                0.00      0.00      0.00

     MDB     stress (kbar)      0.00      0.00      0.00
                                0.00      0.00      0.00
                                0.00      0.00      0.00

     3D-RISM stress (kbar)      0.00      0.00      0.00
                                0.00      0.00      0.00
                                0.00      0.00      0.00

     Energy error            =      9.2E-05 Ry
     Gradient error          =      8.4E-04 Ry/Bohr

     bfgs converged in   6 scf cycles and   5 bfgs steps
     (criteria: energy <  1.0E-04 Ry, force <  1.0E-03 Ry/Bohr)

     End of BFGS Geometry Optimization

     Final energy             =  -35528.5832847340 Ry

     File ./PbI2.bfgs deleted, as requested
Begin final coordinates

ATOMIC_POSITIONS (angstrom)
Pb            2.3571984548        4.0823450009        7.3776292466
Pb            0.0597534282        8.0583351451       14.7537226283
Pb            0.0027060038        8.1579581768        7.3750941013
Pb           -2.4126825695       12.3416434803       14.7542830944
Pb           -2.3552058863       12.2445326719        7.3774929444
Pb            6.9492427236        4.0806687189       14.7571096414
Pb            7.0639894911        4.0811280063        7.3801106726
Pb            4.6520060004        8.0569702096       14.7554391689
Pb            4.7094848395        8.1566204707        7.3776237776
Pb            2.3553858292       12.2406849242       14.8074974219
Pb            2.3549054365       12.2414547980        7.3706633602
Pb           11.8949178734        4.0811341198       14.7565284139
Pb           11.7820433780        4.0824096966        7.3776848350
Pb            9.4235139269        8.1599185538       14.7032595899
Pb            9.4243223871        8.1599422124        7.3844968828
Pb            7.1253875967       12.3410037749       14.7554290426
Pb            7.0696614020       12.2445561381        7.3775984542
I             2.3598448734        1.3653704564        5.4928413295
I             2.3531353294        1.3264300413       12.9108123581
I             0.0032968123        5.4374519296        5.4906943017
I            -0.0280962775        5.4490587948       12.9105245274
I            -2.3538929617        9.5242941228        5.4952140675
I            -2.3692352468        9.5108604577       12.8828529718
I             7.0688435900        1.3653524721        5.4991582447
I             7.0594740787        1.3711766907       12.8574451256
I             4.7144632476        5.4372473842        5.4914223040
I             4.7333634042        5.4486782088       12.9121452577
I             2.3580638764        9.5245045039        5.4980119164
I             2.3591412800        9.5095683923       12.8571463568
I            11.7740295022        1.3621205777        5.5005326338
I            11.7847268818        1.3681398272       12.8592036487
I             9.4188163032        5.4357152303        5.4962401404
I             9.4182993954        5.4492590990       12.8852292064
I             7.0651411626        9.5190506574        5.4973861843
I             7.0775763792        9.5069681967       12.8848751196
I            -0.0275213603        2.7008620321        1.8447536948
I             0.0027919728        2.7260973370        9.2622181876
I            -2.3419516687        6.7990898369        1.8980336564
I            -2.3517292975        6.8043214737        9.2559118544
I            -4.7070075500       10.8896391348        1.8962801536
I            -4.7069596354       10.8774126221        9.2545790835
I             4.7334013754        2.6999928337        1.8449636551
I             4.7077919490        2.7211858255        9.2644096910
I             2.3523599188        6.8234255361        1.8434316298
I             2.3518451630        6.8013306957        9.2636783737
I             0.0103602850       10.8809794255        1.8702006149
I            -0.0016534097       10.8746404604        9.2588588821
I             9.4215860521        2.7033551631        1.8725562225
I             9.4255784278        2.7234078340        9.2598652422
I             7.0565807165        6.7975905166        1.8983300783
I             7.0699987909        6.8042077532        9.2571120510
I             4.6948284164       10.8826994197        1.8705923338
I             4.7115312242       10.8779916421        9.2577177149
End final coordinates



     Writing all to output data dir ./PbI2.save/
 
     init_run     :      9.75s CPU     10.31s WALL (       1 calls)
     electrons    :   5421.76s CPU   5519.80s WALL (       6 calls)
     update_pot   :      7.75s CPU      7.84s WALL (       5 calls)
     forces       :     31.80s CPU     32.56s WALL (       6 calls)
     stress       :    435.66s CPU    439.45s WALL (       6 calls)

     Called by init_run:
     wfcinit      :      6.98s CPU      7.25s WALL (       1 calls)
     wfcinit:atom :      0.06s CPU      0.07s WALL (       2 calls)
     wfcinit:wfcr :      6.53s CPU      6.65s WALL (       2 calls)
     potinit      :      0.99s CPU      1.17s WALL (       1 calls)
     hinit0       :      0.69s CPU      0.74s WALL (       1 calls)

     Called by electrons:
     c_bands      :   5215.51s CPU   5309.05s WALL (      63 calls)
     sum_band     :    151.07s CPU    153.32s WALL (      63 calls)
     v_of_rho     :     36.75s CPU     37.34s WALL (      64 calls)
     v_h          :      0.38s CPU      0.38s WALL (      64 calls)
     v_xc         :     42.95s CPU     43.79s WALL (      76 calls)
     newd         :     10.39s CPU     10.53s WALL (      64 calls)
     PAW_pot      :     11.04s CPU     11.21s WALL (      69 calls)
     mix_rho      :      1.34s CPU      1.45s WALL (      63 calls)
     vdW_kernel   :      0.24s CPU      0.25s WALL (       1 calls)

     Called by c_bands:
     init_us_2    :      9.53s CPU      9.74s WALL (     288 calls)
     init_us_2:cp :      9.52s CPU      9.73s WALL (     288 calls)
     cegterg      :   5015.60s CPU   5074.40s WALL (     128 calls)

     Called by sum_band:
     sum_band:wei :      0.10s CPU      0.11s WALL (      63 calls)
     sum_band:loo :    134.86s CPU    136.35s WALL (      63 calls)
     sum_band:buf :      3.50s CPU      3.59s WALL (     126 calls)
     sum_band:ini :      5.20s CPU      5.28s WALL (     126 calls)
     sum_band:cal :     55.17s CPU     55.60s WALL (     136 calls)
     sum_band:bec :      0.83s CPU      0.85s WALL (     136 calls)
     addusdens    :     13.71s CPU     14.05s WALL (      63 calls)
     addusd:skk   :      0.32s CPU      0.33s WALL (     126 calls)
     addusd:dgemm :      8.48s CPU      8.75s WALL (     126 calls)
     addusd:qvan2 :      4.46s CPU      4.51s WALL (     126 calls)

     Called by *egterg:
     cdiaghg      :   3291.94s CPU   3309.28s WALL (    1716 calls)
     cegterg:over :    348.43s CPU    357.05s WALL (    1610 calls)
     cegterg:upda :    221.89s CPU    227.33s WALL (    1610 calls)
     cegterg:last :     81.21s CPU     81.84s WALL (     130 calls)
     h_psi        :    785.26s CPU    799.02s WALL (    1740 calls)
     s_psi        :    163.95s CPU    165.19s WALL (    1740 calls)
     g_psi        :      1.28s CPU      1.29s WALL (    1610 calls)

     Called by h_psi:
     h_psi:calbec :    177.74s CPU    179.30s WALL (    1740 calls)
     vloc_psi     :    435.57s CPU    440.76s WALL (    1740 calls)
     add_vuspsi   :    164.76s CPU    166.16s WALL (    1740 calls)

     General routines
     calbec       :    263.63s CPU    265.85s WALL (    1936 calls)
     fft          :     22.18s CPU     22.51s WALL (    5044 calls)
     ffts         :      0.38s CPU      0.39s WALL (     127 calls)
     fftw         :    470.68s CPU    476.13s WALL (  450258 calls)
     interpolate  :      0.51s CPU      0.52s WALL (      64 calls)
 
     Parallel routines

     PAW routines
     PAW_pot      :     11.04s CPU     11.21s WALL (      69 calls)
 
     PWSCF        :      1h38m CPU      1h40m WALL

 
   This run was terminated on:  14:11: 3  11Feb2024            

=------------------------------------------------------------------------------=
   JOB DONE.
=------------------------------------------------------------------------------=
