
     Program PWSCF v.7.1 starts on 18Feb2024 at 14:59:27 

     This program is part of the open-source Quantum ESPRESSO suite
     for quantum simulation of materials; please cite
         "P. Giannozzi et al., J. Phys.:Condens. Matter 21 395502 (2009);
         "P. Giannozzi et al., J. Phys.:Condens. Matter 29 465901 (2017);
         "P. Giannozzi et al., J. Chem. Phys. 152 154105 (2020);
          URL http://www.quantum-espresso.org", 
     in publications or presentations arising from this work. More details at
     http://www.quantum-espresso.org/quote

     Parallel version (MPI & OpenMP), running on     128 processor cores
     Number of MPI processes:               128
     Threads/MPI process:                     1

     MPI processes distributed on     1 nodes
     1936261 MiB available memory on the printing compute node when the environment starts
 
     Reading input from espresso.pwi
Warning: card &CELL ignored
Warning: card    CELL_DYNAMICS    = 'BFGS' ignored
Warning: card / ignored

     Current dimensions of program PWSCF are:
     Max number of different atomic species (ntypx) = 10
     Max number of k-points (npk) =  40000
     Max angular momentum in pseudopotentials (lmaxx) =  4
     file Pb.pbe-dn-kjpaw_psl.1.0.0.UPF: wavefunction(s)  6S 6P 5D renormalized
     file I.pbe-dn-kjpaw_psl.1.0.0.UPF: wavefunction(s)  5S 5P renormalized

     **************************************************************************
     Initializing libbeef V0.1.2 with the BEEF-vdW functional.
     Citation: Wellendorff et al., PRB 85, 235149 (2012).
     **************************************************************************


     IMPORTANT: XC functional enforced from input :
     Exchange-correlation= BEEF-VDW
                           (   1   4  43  14   2   0   0)
     Any further DFT definition will be discarded
     Please, verify this is what you really want

 
     K-points division:     npool     =       2
     R & G space division:  proc/nbgrp/npool/nimage =      64
     Subspace diagonalization in iterative solution of the eigenvalue problem:
     a serial algorithm will be used

 
     Parallelization info
     --------------------
     sticks:   dense  smooth     PW     G-vecs:    dense   smooth      PW
     Min         268     215     55                29758    21295    2791
     Max         269     216     56                29767    21298    2796
     Sum       17215   13777   3559              1904969  1362953  178821
 
     Using Slab Decomposition
 


     bravais-lattice index     =            4
     lattice parameter (alat)  =      26.7090  a.u.
     unit-cell volume          =   17226.5091 (a.u.)^3
     number of atoms/cell      =           53
     number of atomic types    =            2
     number of electrons       =       851.00
     number of Kohn-Sham states=          511
     kinetic-energy cutoff     =      70.0000  Ry
     charge density cutoff     =     350.0000  Ry
     scf convergence threshold =      1.0E-07
     mixing beta               =       0.7000
     number of iterations used =            8  plain     mixing
     Exchange-correlation= BEEF-VDW
                           (   1   4  43  14   2   0   0)

     celldm(1)=  26.709025  celldm(2)=   0.000000  celldm(3)=   1.043981
     celldm(4)=   0.000000  celldm(5)=   0.000000  celldm(6)=   0.000000

     crystal axes: (cart. coord. in units of alat)
               a(1) = (   1.000000   0.000000   0.000000 )  
               a(2) = (  -0.500000   0.866025   0.000000 )  
               a(3) = (   0.000000   0.000000   1.043981 )  

     reciprocal axes: (cart. coord. in units 2 pi/alat)
               b(1) = (  1.000000  0.577350 -0.000000 )  
               b(2) = (  0.000000  1.154701  0.000000 )  
               b(3) = (  0.000000 -0.000000  0.957872 )  


     PseudoPot. # 1 for Pb read from file:
     /trace/group/acmegroup/atimmins/packages/espresso/pseudo/psl_1.0.0/pslibrary.1.0.0/pbe/PSEUDOPOTENTIALS/Pb.pbe-dn-kjpaw_psl.1.0.0.UPF
     MD5 check sum: 39ab5b8a6bbd56b7735ad9f188aac93a
     Pseudo is Projector augmented-wave + core cor, Zval = 14.0
     Generated using 'atomic' code by A. Dal Corso  v.7.1
     Shape of augmentation charge: PSQ
     Using radial grid of 1281 points,  6 beta functions with: 
                l(1) =   0
                l(2) =   0
                l(3) =   1
                l(4) =   1
                l(5) =   2
                l(6) =   2
     Q(r) pseudized with 0 coefficients 


     PseudoPot. # 2 for I  read from file:
     /trace/group/acmegroup/atimmins/packages/espresso/pseudo/psl_1.0.0/pslibrary.1.0.0/pbe/PSEUDOPOTENTIALS/I.pbe-dn-kjpaw_psl.1.0.0.UPF
     MD5 check sum: bfa8781bc1224d19af3f3980e3fab11e
     Pseudo is Projector augmented-wave + core cor, Zval = 17.0
     Generated using 'atomic' code by A. Dal Corso  v.7.1
     Shape of augmentation charge: PSQ
     Using radial grid of 1247 points,  6 beta functions with: 
                l(1) =   0
                l(2) =   0
                l(3) =   1
                l(4) =   1
                l(5) =   2
                l(6) =   2
     Q(r) pseudized with 0 coefficients 


     atomic species   valence    mass     pseudopotential
        Pb            14.00   207.20000     Pb( 1.00)
        I             17.00   126.90447     I ( 1.00)

     No symmetry found


                                    s                        frac. trans.

      isym =  1     identity                                     

 cryst.   s( 1) = (     1          0          0      )
                  (     0          1          0      )
                  (     0          0          1      )

 cart.    s( 1) = (  1.0000000  0.0000000  0.0000000 )
                  (  0.0000000  1.0000000  0.0000000 )
                  (  0.0000000  0.0000000  1.0000000 )


     point group C_1 (1)    
     there are  1 classes
     the character table:

       E    
A      1.00

     the symmetry operations in each class and the name of the first element:

     E        1
          identity                                               

   Cartesian axes

     site n.     atom                  positions (alat units)
         1           Pb  tau(   1) = (   0.1666712   0.2886557   0.5219862  )
         2           Pb  tau(   2) = (   0.0000102   0.5773235   1.0439712  )
         3           Pb  tau(   3) = (   0.0000034   0.5773295   0.5219807  )
         4           Pb  tau(   4) = (  -0.1666576   0.8659973   1.0439657  )
         5           Pb  tau(   5) = (  -0.1666644   0.8660033   0.5219752  )
         6           Pb  tau(   6) = (   0.5000113   0.2886484   1.0439810  )
         7           Pb  tau(   7) = (   0.5000045   0.2886544   0.5219905  )
         8           Pb  tau(   8) = (   0.3333436   0.5773222   1.0439755  )
         9           Pb  tau(   9) = (   0.3333367   0.5773282   0.5219850  )
        10           Pb  tau(  10) = (   0.1666758   0.8659960   1.0439700  )
        11           Pb  tau(  11) = (   0.1666690   0.8660020   0.5219795  )
        12           Pb  tau(  12) = (   0.8333447   0.2886471   1.0439853  )
        13           Pb  tau(  13) = (   0.8333379   0.2886531   0.5219949  )
        14           Pb  tau(  14) = (   0.6666769   0.5773209   1.0439798  )
        15           Pb  tau(  15) = (   0.6666701   0.5773269   0.5219894  )
        16           Pb  tau(  16) = (   0.5000091   0.8659947   1.0439743  )
        17           Pb  tau(  17) = (   0.5000023   0.8660007   0.5219839  )
        18           I   tau(  18) = (   0.1666738   0.0962066   0.3879099  )
        19           I   tau(  19) = (   0.1666806   0.0962006   0.9099004  )
        20           I   tau(  20) = (   0.0000060   0.3848804   0.3879044  )
        21           I   tau(  21) = (   0.0000129   0.3848744   0.9098949  )
        22           I   tau(  22) = (  -0.1666617   0.6735542   0.3878990  )
        23           I   tau(  23) = (  -0.1666549   0.6735482   0.9098894  )
        24           I   tau(  24) = (   0.5000071   0.0962053   0.3879143  )
        25           I   tau(  25) = (   0.5000140   0.0961993   0.9099047  )
        26           I   tau(  26) = (   0.3333394   0.3848792   0.3879088  )
        27           I   tau(  27) = (   0.3333462   0.3848731   0.9098993  )
        28           I   tau(  28) = (   0.1666716   0.6735530   0.3879033  )
        29           I   tau(  29) = (   0.1666784   0.6735469   0.9098938  )
        30           I   tau(  30) = (   0.8333405   0.0962041   0.3879186  )
        31           I   tau(  31) = (   0.8333473   0.0961980   0.9099091  )
        32           I   tau(  32) = (   0.6666727   0.3848779   0.3879131  )
        33           I   tau(  33) = (   0.6666795   0.3848718   0.9099036  )
        34           I   tau(  34) = (   0.5000049   0.6735517   0.3879076  )
        35           I   tau(  35) = (   0.5000117   0.6735457   0.9098981  )
        36           I   tau(  36) = (  -0.0000023   0.1924396   0.1340740  )
        37           I   tau(  37) = (   0.0000045   0.1924336   0.6560644  )
        38           I   tau(  38) = (  -0.1666701   0.4811134   0.1340685  )
        39           I   tau(  39) = (  -0.1666632   0.4811074   0.6560589  )
        40           I   tau(  40) = (  -0.3333378   0.7697873   0.1340630  )
        41           I   tau(  41) = (  -0.3333310   0.7697812   0.6560534  )
        42           I   tau(  42) = (   0.3333311   0.1924384   0.1340783  )
        43           I   tau(  43) = (   0.3333379   0.1924323   0.6560688  )
        44           I   tau(  44) = (   0.1666633   0.4811122   0.1340728  )
        45           I   tau(  45) = (   0.1666701   0.4811061   0.6560633  )
        46           I   tau(  46) = (  -0.0000045   0.7697860   0.1340673  )
        47           I   tau(  47) = (   0.0000023   0.7697799   0.6560578  )
        48           I   tau(  48) = (   0.6666644   0.1924371   0.1340827  )
        49           I   tau(  49) = (   0.6666712   0.1924310   0.6560731  )
        50           I   tau(  50) = (   0.4999966   0.4811109   0.1340772  )
        51           I   tau(  51) = (   0.5000034   0.4811049   0.6560676  )
        52           I   tau(  52) = (   0.3333288   0.7697847   0.1340717  )
        53           I   tau(  53) = (   0.3333356   0.7697787   0.6560621  )

   Crystallographic axes

     site n.     atom                  positions (cryst. coord.)
         1           Pb  tau(   1) = (  0.3333266  0.3333109  0.4999959  )
         2           Pb  tau(   2) = (  0.3333281  0.6666357  0.9999906  )
         3           Pb  tau(   3) = (  0.3333248  0.6666427  0.4999906  )
         4           Pb  tau(   4) = (  0.3333262  0.9999675  0.9999854  )
         5           Pb  tau(   5) = (  0.3333229  0.9999745  0.4999854  )
         6           Pb  tau(   6) = (  0.6666626  0.3333025  1.0000001  )
         7           Pb  tau(   7) = (  0.6666592  0.3333094  0.5000001  )
         8           Pb  tau(   8) = (  0.6666607  0.6666343  0.9999948  )
         9           Pb  tau(   9) = (  0.6666573  0.6666412  0.4999948  )
        10           Pb  tau(  10) = (  0.6666588  0.9999661  0.9999895  )
        11           Pb  tau(  11) = (  0.6666555  0.9999730  0.4999895  )
        12           Pb  tau(  12) = (  0.9999951  0.3333010  1.0000042  )
        13           Pb  tau(  13) = (  0.9999918  0.3333079  0.5000042  )
        14           Pb  tau(  14) = (  0.9999933  0.6666328  0.9999990  )
        15           Pb  tau(  15) = (  0.9999899  0.6666397  0.4999990  )
        16           Pb  tau(  16) = (  0.9999914  0.9999646  0.9999937  )
        17           Pb  tau(  17) = (  0.9999881  0.9999715  0.4999937  )
        18           I   tau(  18) = (  0.2222187  0.1110899  0.3715680  )
        19           I   tau(  19) = (  0.2222221  0.1110829  0.8715680  )
        20           I   tau(  20) = (  0.2222169  0.4444217  0.3715628  )
        21           I   tau(  21) = (  0.2222202  0.4444147  0.8715628  )
        22           I   tau(  22) = (  0.2222150  0.7777534  0.3715575  )
        23           I   tau(  23) = (  0.2222183  0.7777465  0.8715575  )
        24           I   tau(  24) = (  0.5555513  0.1110884  0.3715722  )
        25           I   tau(  25) = (  0.5555547  0.1110814  0.8715722  )
        26           I   tau(  26) = (  0.5555495  0.4444202  0.3715669  )
        27           I   tau(  27) = (  0.5555528  0.4444132  0.8715669  )
        28           I   tau(  28) = (  0.5555476  0.7777520  0.3715617  )
        29           I   tau(  29) = (  0.5555509  0.7777450  0.8715617  )
        30           I   tau(  30) = (  0.8888839  0.1110869  0.3715764  )
        31           I   tau(  31) = (  0.8888873  0.1110799  0.8715764  )
        32           I   tau(  32) = (  0.8888820  0.4444187  0.3715711  )
        33           I   tau(  33) = (  0.8888854  0.4444117  0.8715711  )
        34           I   tau(  34) = (  0.8888802  0.7777505  0.3715658  )
        35           I   tau(  35) = (  0.8888835  0.7777435  0.8715658  )
        36           I   tau(  36) = (  0.1111028  0.2222102  0.1284257  )
        37           I   tau(  37) = (  0.1111061  0.2222032  0.6284257  )
        38           I   tau(  38) = (  0.1111009  0.5555420  0.1284204  )
        39           I   tau(  39) = (  0.1111043  0.5555350  0.6284204  )
        40           I   tau(  40) = (  0.1110991  0.8888738  0.1284152  )
        41           I   tau(  41) = (  0.1111024  0.8888668  0.6284152  )
        42           I   tau(  42) = (  0.4444354  0.2222087  0.1284299  )
        43           I   tau(  43) = (  0.4444387  0.2222017  0.6284299  )
        44           I   tau(  44) = (  0.4444335  0.5555405  0.1284246  )
        45           I   tau(  45) = (  0.4444369  0.5555335  0.6284246  )
        46           I   tau(  46) = (  0.4444316  0.8888723  0.1284193  )
        47           I   tau(  47) = (  0.4444350  0.8888653  0.6284193  )
        48           I   tau(  48) = (  0.7777680  0.2222072  0.1284340  )
        49           I   tau(  49) = (  0.7777713  0.2222002  0.6284340  )
        50           I   tau(  50) = (  0.7777661  0.5555390  0.1284287  )
        51           I   tau(  51) = (  0.7777694  0.5555320  0.6284287  )
        52           I   tau(  52) = (  0.7777642  0.8888708  0.1284235  )
        53           I   tau(  53) = (  0.7777676  0.8888638  0.6284235  )

     number of k points=     4  Gaussian smearing, width (Ry)=  0.0100
                       cart. coord. in units 2pi/alat
        k(    1) = (   0.0000000   0.0000000   0.0000000), wk =   0.5000000
        k(    2) = (   0.0000000  -0.5773503   0.0000000), wk =   0.5000000
        k(    3) = (   0.5000000  -0.2886751   0.0000000), wk =   0.5000000
        k(    4) = (  -0.5000000  -0.2886751   0.0000000), wk =   0.5000000

                       cryst. coord.
        k(    1) = (   0.0000000   0.0000000   0.0000000), wk =   0.5000000
        k(    2) = (   0.0000000  -0.5000000   0.0000000), wk =   0.5000000
        k(    3) = (   0.5000000  -0.5000000   0.0000000), wk =   0.5000000
        k(    4) = (  -0.5000000   0.0000000   0.0000000), wk =   0.5000000

     Dense  grid:  1904969 G-vectors     FFT dimensions: ( 160, 160, 180)

     Smooth grid:  1362953 G-vectors     FFT dimensions: ( 144, 144, 150)

     Dynamical RAM for                 wfc:      20.76 MB

     Dynamical RAM for     wfc (w. buffer):      62.27 MB

     Dynamical RAM for           str. fact:       0.91 MB

     Dynamical RAM for           local pot:       0.00 MB

     Dynamical RAM for          nlocal pot:      38.75 MB

     Dynamical RAM for                qrad:       3.00 MB

     Dynamical RAM for          rho,v,vnew:       3.12 MB

     Dynamical RAM for               rhoin:       1.04 MB

     Dynamical RAM for            rho*nmix:       7.27 MB

     Dynamical RAM for           G-vectors:       1.87 MB

     Dynamical RAM for          h,s,v(r/c):     191.25 MB

     Dynamical RAM for          <psi|beta>:       7.44 MB

     Dynamical RAM for                 psi:      83.03 MB

     Dynamical RAM for                hpsi:      83.03 MB

     Dynamical RAM for                spsi:      83.03 MB

     Dynamical RAM for      wfcinit/wfcrot:      47.49 MB

     Dynamical RAM for           addusdens:      50.64 MB

     Dynamical RAM for          addusforce:      66.68 MB

     Dynamical RAM for         addusstress:      45.76 MB

     Estimated static dynamical RAM per process >     115.25 MB

     Estimated max dynamical RAM per process >     570.28 MB

     Estimated total dynamical RAM >      70.83 GB

     Atomic positions and unit cell read from directory:
     ./PbI2.save/
     Atomic positions from file used, from input discarded
 

     Check: negative core charge=   -0.000001

     The initial density is read from file :
     ./PbI2.save/charge-density



     %%%%%%%%%%%%%%%%%%%%%%%%%%%%%%%%%%%%%%%%%%%%%%%%%%%%%%%%%%%%%%%%%%%%%%%%
     %                                                                      %
     % You are using vdW-DF, which was implemented by the Thonhauser group. %
     % Please cite the following two papers that made this development      %
     % possible and the two reviews that describe the various versions:     %
     %                                                                      %
     %   T. Thonhauser et al., PRL 115, 136402 (2015).                      %
     %   T. Thonhauser et al., PRB 76, 125112 (2007).                       %
     %   K. Berland et al., Rep. Prog. Phys. 78, 066501 (2015).             %
     %   D.C. Langreth et al., J. Phys.: Condens. Matter 21, 084203 (2009). %
     %                                                                      %
     % If you are calculating stress with vdW-DF, please also cite:         %
     %                                                                      %
     %   R. Sabatini et al., J. Phys.: Condens. Matter 24, 424209 (2012).   %
     %                                                                      %
     %%%%%%%%%%%%%%%%%%%%%%%%%%%%%%%%%%%%%%%%%%%%%%%%%%%%%%%%%%%%%%%%%%%%%%%%

     %%%%%%%%%%%%%%%%%%%%%%%%%%%%%%%%%%%%%%%%%%%%%%%%%%%%%%%%%%%%%%%%%%%%%%%%
     %                                                                      %
     %  vdW-DF NEWS:                                                        %
     %                                                                      %
     %  * vdW-DF3 is now available. DOI: 10.1021/acs.jctc.0c00471           %
     %    use with input_dft = 'vdW-DF3-opt1' or 'vdW-DF3-opt2'             %
     %                                                                      %
     %  * Unscreened and range-separated vdW-DF hybrid functionals          %
     %    DOI: 10.1063/1.4986522 and 10.1088/1361-648X/ac2ad2               %
     %    use with input_dft = 'vdW-DF-cx0' (etc) and 'vdW-DF-ahcx'         %
     %                                                                      %
     %%%%%%%%%%%%%%%%%%%%%%%%%%%%%%%%%%%%%%%%%%%%%%%%%%%%%%%%%%%%%%%%%%%%%%%%


     Carrying out vdW-DF run using the following parameters:
     Nqs    =  20  Npoints =  1024  r_max =  100.000
     q_mesh =  0.00001000  0.04494208  0.09755937  0.15916263
               0.23128650  0.31572767  0.41458969  0.53033537
               0.66584808  0.82450364  1.01025438  1.22772762
               1.48234092  1.78043706  2.12944203  2.53805004
               3.01644009  3.57652955  4.23227104  5.00000000


     -----------------------------------------------
     Non-local corr. energy    =      25.64490351 Ry
     -----------------------------------------------

     Wavefunctions not found or not readable, recomputing them from scratch
     Starting wfcs are  477 randomized atomic wfcs +   34 random wfcs
     Checking if some PAW data can be deallocated... 
       PAW data deallocated on   77 nodes for type:  1
       PAW data deallocated on   51 nodes for type:  2

     total cpu time spent up to now is       11.7 secs

     Self-consistent Calculation

     iteration #  1     ecut=    70.00 Ry     beta= 0.70
     Davidson diagonalization with overlap

---- Real-time Memory Report at c_bands before calling an iterative solver
           350 MiB given to the printing process from OS
             0 MiB allocation reported by mallinfo(arena+hblkhd)
       1916913 MiB available memory on the node where the printing process lives
------------------
     ethr =  1.00E-05,  avg # of iterations = 24.3

     Threshold (ethr) on eigenvalues was too large:
     Diagonalizing with lowered threshold

     Davidson diagonalization with overlap

---- Real-time Memory Report at c_bands before calling an iterative solver
           705 MiB given to the printing process from OS
             0 MiB allocation reported by mallinfo(arena+hblkhd)
       1914803 MiB available memory on the node where the printing process lives
------------------
     c_bands:  2 eigenvalues not converged
     c_bands:  3 eigenvalues not converged
     ethr =  1.12E-08,  avg # of iterations = 25.0


     -----------------------------------------------
     Non-local corr. energy    =      25.64494233 Ry
     -----------------------------------------------


     total cpu time spent up to now is      321.2 secs

     total energy              =  -35528.58328413 Ry
     estimated scf accuracy    <       0.00000064 Ry

     iteration #  2     ecut=    70.00 Ry     beta= 0.70
     Davidson diagonalization with overlap

---- Real-time Memory Report at c_bands before calling an iterative solver
           724 MiB given to the printing process from OS
             0 MiB allocation reported by mallinfo(arena+hblkhd)
       1914174 MiB available memory on the node where the printing process lives
------------------
     ethr =  7.52E-11,  avg # of iterations = 12.5


     -----------------------------------------------
     Non-local corr. energy    =      25.64493485 Ry
     -----------------------------------------------


     total cpu time spent up to now is      472.0 secs

     total energy              =  -35528.58328359 Ry
     estimated scf accuracy    <       0.00001023 Ry

     iteration #  3     ecut=    70.00 Ry     beta= 0.70
     Davidson diagonalization with overlap

---- Real-time Memory Report at c_bands before calling an iterative solver
           772 MiB given to the printing process from OS
             0 MiB allocation reported by mallinfo(arena+hblkhd)
       1914161 MiB available memory on the node where the printing process lives
------------------
     ethr =  7.52E-11,  avg # of iterations = 14.3


     -----------------------------------------------
     Non-local corr. energy    =      25.64492632 Ry
     -----------------------------------------------


     total cpu time spent up to now is      582.0 secs

     total energy              =  -35528.58328474 Ry
     estimated scf accuracy    <       0.00000013 Ry

     iteration #  4     ecut=    70.00 Ry     beta= 0.70
     Davidson diagonalization with overlap

---- Real-time Memory Report at c_bands before calling an iterative solver
           772 MiB given to the printing process from OS
             0 MiB allocation reported by mallinfo(arena+hblkhd)
       1915075 MiB available memory on the node where the printing process lives
------------------
     ethr =  1.49E-11,  avg # of iterations = 15.0


     -----------------------------------------------
     Non-local corr. energy    =      25.64489085 Ry
     -----------------------------------------------


     total cpu time spent up to now is      660.8 secs

     End of self-consistent calculation

          k = 0.0000 0.0000 0.0000 (170421 PWs)   bands (ev):

   -41.1784 -41.1783 -41.1782 -41.1781 -41.1763 -41.1762 -41.1761 -41.1761
   -41.1761 -41.1761 -41.1760 -41.1760 -41.1756 -41.1756 -41.1755 -41.1755
   -41.1755 -41.1754 -41.1754 -41.1754 -41.1753 -41.1752 -41.1745 -41.1744
   -41.1741 -41.1741 -41.1740 -41.1740 -41.1739 -41.1738 -41.1737 -41.1736
   -41.1736 -41.1736 -41.1735 -41.1734 -41.1733 -41.1732 -41.1731 -41.1730
   -41.1729 -41.1729 -41.1727 -41.1726 -41.1725 -41.1723 -41.1720 -41.1719
   -41.1719 -41.1719 -41.1718 -41.1718 -41.1718 -41.1717 -41.1717 -41.1717
   -41.1716 -41.1715 -41.1715 -41.1713 -41.1712 -41.1712 -41.1712 -41.1712
   -41.1711 -41.1711 -41.1710 -41.1710 -41.1710 -41.1708 -41.1704 -41.1704
   -41.1702 -41.1702 -41.1698 -41.1697 -41.1696 -41.1694 -41.1690 -41.1689
   -41.1688 -41.1688 -41.1684 -41.1682 -41.1680 -41.1679 -41.1679 -41.1676
   -41.1673 -41.1672 -40.8965 -40.8964 -40.8963 -40.8962 -40.8953 -40.8952
   -40.8951 -40.8950 -40.8942 -40.8941 -40.8941 -40.8940 -40.8917 -40.8916
   -40.8901 -40.8900 -40.8892 -40.8891 -40.8875 -40.8874 -40.8872 -40.8871
   -40.8859 -40.8858 -40.8856 -40.8855 -40.8848 -40.8846 -40.8845 -40.8843
   -40.8050 -40.8049 -40.8043 -40.8042 -40.8038 -40.8037 -40.7998 -40.7998
   -40.7989 -40.7989 -40.7986 -40.7986 -40.7984 -40.7984 -40.7976 -40.7976
   -40.7970 -40.7970 -40.7842 -40.7842 -40.7839 -40.7838 -40.7825 -40.7824
   -40.7822 -40.7821 -40.7818 -40.7817 -40.7814 -40.7814 -40.6699 -40.6699
   -40.6690 -40.6690 -40.6683 -40.6683 -40.6676 -40.6676 -40.6674 -40.6674
   -40.6667 -40.6667 -40.5933 -40.5933 -40.5917 -40.5917 -40.5909 -40.5908
   -40.5906 -40.5905 -40.5892 -40.5892 -40.5889 -40.5889 -40.5672 -40.5672
   -40.5658 -40.5657 -40.5652 -40.5652 -13.3452 -13.3444 -13.3407 -13.3402
   -13.3379 -13.3376 -13.3346 -13.3343 -13.3323 -13.3309 -13.3271 -13.3262
   -13.3258 -13.3253 -13.3232 -13.3216 -13.3214 -13.3206 -13.3201 -13.3192
   -13.3190 -13.3189 -13.3182 -13.3180 -13.3163 -13.3158 -13.3156 -13.3155
   -13.3152 -13.3144 -13.3142 -13.3138 -13.3135 -13.3126 -13.3126 -13.3115
   -13.3113 -13.3101 -13.3099 -13.3070 -13.3068 -13.3047 -13.3046 -13.3038
   -13.3038 -13.0300 -13.0300 -13.0296 -13.0296 -13.0152 -13.0151 -13.0129
   -13.0128 -13.0127 -13.0126 -12.9657 -12.9591 -12.9586 -12.9526 -12.9522
   -12.9474 -12.9454 -12.9389 -12.9387 -12.9379 -12.9373 -12.9372 -12.9372
   -12.9355 -12.9347 -12.9345 -12.9345 -12.9315 -12.9309 -12.9305 -12.9299
   -12.9296 -12.9294 -12.9234 -12.9171 -12.9152 -12.9147 -12.9137 -12.9134
   -12.9115  -8.4722  -8.1596  -8.1591  -8.1579  -8.1579  -8.1571  -8.1568
    -8.0636  -8.0434  -7.9183  -7.9175  -7.9173  -7.9162  -7.9161  -7.9155
    -7.9122  -7.9120  -7.9120  -7.9113  -7.8352  -7.7875  -7.7871  -7.7847
    -7.7847  -7.6562  -7.6152  -7.5814  -7.5811  -7.5375  -7.5372  -7.5014
    -7.4360  -7.4357  -7.3706  -7.3705  -7.3376  -4.1054  -4.1031  -3.9027
    -3.9007  -3.8999  -3.8979  -3.8976  -3.8929  -3.7275  -3.7009  -3.5889
    -3.5499  -3.5305  -3.5303  -3.4720  -3.4719  -3.2079   0.8579   0.8587
     0.8591   0.8604   0.8605   0.8618   0.8914   0.8916   0.8972   0.8973
     1.1407   1.1473   1.2201   1.2207   1.2209   1.2588   1.2595   1.2637
     1.3583   1.3584   1.5201   1.5206   1.5405   1.5450   1.5560   1.5627
     1.5637   1.5675   1.5680   1.6963   1.6969   1.6970   1.6973   1.7027
     1.7035   1.7575   1.9619   2.0573   2.0577   2.0658   2.0731   2.0733
     2.0778   2.0784   2.0932   2.0986   2.1764   2.1766   2.1855   2.1856
     2.2544   2.2835   2.2843   2.3210   2.3215   2.3333   2.3407   2.3416
     2.3523   2.4795   2.4796   2.4803   2.4860   2.4860   2.4866   2.5082
     2.5088   2.5129   2.5259   2.5260   2.5746   2.5761   2.5782   2.6134
     2.6148   2.6280   2.6445   2.7848   2.7848   2.7953   2.7957   2.8149
     2.8167   2.8225   2.8231   2.8308   2.8322   2.8479   2.8665   2.9003
     2.9179   2.9182   2.9245   2.9252   2.9450   3.1010   3.1712   3.1717
     3.1998   3.2003   3.2235   3.2374   3.2375   3.2519   3.3182   3.3185
     3.3465   3.3702   5.6061   6.0941   6.2464   6.2507   6.2525   6.2594
     6.2606   6.3072   6.4378   6.4380   6.6625   6.6626   6.7196   6.7716
     6.7727   6.8456   6.8458   6.8473   6.8478   6.9312   6.9314   6.9329
     6.9360   6.9376   6.9382   7.0478   7.0762   7.0770   7.1988   7.2000
     7.2044   7.2071   7.2083   7.2229   7.3000   7.3250   7.3256   7.3701
     7.3742   7.4754   7.4785   7.4792   7.5753   7.5758   7.5795   7.5796
     7.5871   7.6395   7.6395   7.6441   7.8781   9.2236   9.2250   9.2267
     9.2365   9.2534   9.2544   9.4792   9.6950   9.6953   9.7744   9.7879
     9.9277   9.9287   9.9802   9.9930  10.1424  10.5560  10.5695  10.6840
    10.6945  10.6951  10.7378  10.7393  10.7426  10.7441  10.8450  10.8476
    10.8552  10.8664  10.9065  10.9074  10.9280  10.9418  10.9438

     occupation numbers 
     1.0000   1.0000   1.0000   1.0000   1.0000   1.0000   1.0000   1.0000
     1.0000   1.0000   1.0000   1.0000   1.0000   1.0000   1.0000   1.0000
     1.0000   1.0000   1.0000   1.0000   1.0000   1.0000   1.0000   1.0000
     1.0000   1.0000   1.0000   1.0000   1.0000   1.0000   1.0000   1.0000
     1.0000   1.0000   1.0000   1.0000   1.0000   1.0000   1.0000   1.0000
     1.0000   1.0000   1.0000   1.0000   1.0000   1.0000   1.0000   1.0000
     1.0000   1.0000   1.0000   1.0000   1.0000   1.0000   1.0000   1.0000
     1.0000   1.0000   1.0000   1.0000   1.0000   1.0000   1.0000   1.0000
     1.0000   1.0000   1.0000   1.0000   1.0000   1.0000   1.0000   1.0000
     1.0000   1.0000   1.0000   1.0000   1.0000   1.0000   1.0000   1.0000
     1.0000   1.0000   1.0000   1.0000   1.0000   1.0000   1.0000   1.0000
     1.0000   1.0000   1.0000   1.0000   1.0000   1.0000   1.0000   1.0000
     1.0000   1.0000   1.0000   1.0000   1.0000   1.0000   1.0000   1.0000
     1.0000   1.0000   1.0000   1.0000   1.0000   1.0000   1.0000   1.0000
     1.0000   1.0000   1.0000   1.0000   1.0000   1.0000   1.0000   1.0000
     1.0000   1.0000   1.0000   1.0000   1.0000   1.0000   1.0000   1.0000
     1.0000   1.0000   1.0000   1.0000   1.0000   1.0000   1.0000   1.0000
     1.0000   1.0000   1.0000   1.0000   1.0000   1.0000   1.0000   1.0000
     1.0000   1.0000   1.0000   1.0000   1.0000   1.0000   1.0000   1.0000
     1.0000   1.0000   1.0000   1.0000   1.0000   1.0000   1.0000   1.0000
     1.0000   1.0000   1.0000   1.0000   1.0000   1.0000   1.0000   1.0000
     1.0000   1.0000   1.0000   1.0000   1.0000   1.0000   1.0000   1.0000
     1.0000   1.0000   1.0000   1.0000   1.0000   1.0000   1.0000   1.0000
     1.0000   1.0000   1.0000   1.0000   1.0000   1.0000   1.0000   1.0000
     1.0000   1.0000   1.0000   1.0000   1.0000   1.0000   1.0000   1.0000
     1.0000   1.0000   1.0000   1.0000   1.0000   1.0000   1.0000   1.0000
     1.0000   1.0000   1.0000   1.0000   1.0000   1.0000   1.0000   1.0000
     1.0000   1.0000   1.0000   1.0000   1.0000   1.0000   1.0000   1.0000
     1.0000   1.0000   1.0000   1.0000   1.0000   1.0000   1.0000   1.0000
     1.0000   1.0000   1.0000   1.0000   1.0000   1.0000   1.0000   1.0000
     1.0000   1.0000   1.0000   1.0000   1.0000   1.0000   1.0000   1.0000
     1.0000   1.0000   1.0000   1.0000   1.0000   1.0000   1.0000   1.0000
     1.0000   1.0000   1.0000   1.0000   1.0000   1.0000   1.0000   1.0000
     1.0000   1.0000   1.0000   1.0000   1.0000   1.0000   1.0000   1.0000
     1.0000   1.0000   1.0000   1.0000   1.0000   1.0000   1.0000   1.0000
     1.0000   1.0000   1.0000   1.0000   1.0000   1.0000   1.0000   1.0000
     1.0000   1.0000   1.0000   1.0000   1.0000   1.0000   1.0000   1.0000
     1.0000   1.0000   1.0000   1.0000   1.0000   1.0000   1.0000   1.0000
     1.0000   1.0000   1.0000   1.0000   1.0000   1.0000   1.0000   1.0000
     1.0000   1.0000   1.0000   1.0000   1.0000   1.0000   1.0000   1.0000
     1.0000   1.0000   1.0000   1.0000   1.0000   1.0000   1.0000   1.0000
     1.0000   1.0000   1.0000   1.0000   1.0000   1.0000   1.0000   1.0000
     1.0000   1.0000   1.0000   1.0000   1.0000   1.0000   1.0000   1.0000
     1.0000   1.0000   1.0000   1.0000   1.0000   1.0000   1.0000   1.0000
     1.0000   1.0000   1.0000   1.0000   1.0000   1.0000   1.0000   1.0000
     1.0000   1.0000   1.0000   1.0000   1.0000   1.0000   1.0000   1.0000
     1.0000   1.0000   1.0000   1.0000   1.0000   1.0000   1.0000   1.0000
     1.0000   1.0000   1.0000   1.0000   1.0000   1.0000   1.0000   1.0000
     1.0000   1.0000   1.0000   1.0000   1.0000   1.0000   1.0000   1.0000
     1.0000   1.0000   1.0000   1.0000   1.0000   1.0000   1.0000   1.0000
     1.0000   1.0000   1.0000   1.0000   1.0000   1.0000   1.0000   1.0000
     1.0000   1.0000   1.0000   1.0000   1.0000   1.0000   0.9996   0.9996
     0.9989   0.9989   0.9975   0.9962   0.9962   0.9941   0.9662   0.9660
     0.9374   0.9010   0.0000   0.0000   0.0000   0.0000   0.0000   0.0000
     0.0000   0.0000   0.0000   0.0000   0.0000   0.0000   0.0000   0.0000
     0.0000   0.0000   0.0000   0.0000   0.0000   0.0000   0.0000   0.0000
     0.0000   0.0000   0.0000   0.0000   0.0000   0.0000   0.0000   0.0000
     0.0000   0.0000   0.0000   0.0000   0.0000   0.0000   0.0000   0.0000
     0.0000   0.0000   0.0000   0.0000   0.0000   0.0000   0.0000   0.0000
     0.0000   0.0000   0.0000   0.0000   0.0000   0.0000   0.0000   0.0000
     0.0000   0.0000   0.0000   0.0000   0.0000   0.0000   0.0000   0.0000
     0.0000   0.0000   0.0000   0.0000   0.0000   0.0000   0.0000   0.0000
     0.0000   0.0000   0.0000   0.0000   0.0000   0.0000   0.0000   0.0000
     0.0000   0.0000   0.0000   0.0000   0.0000   0.0000   0.0000

          k = 0.0000-0.5774 0.0000 (170366 PWs)   bands (ev):

   -41.1784 -41.1783 -41.1782 -41.1781 -41.1763 -41.1762 -41.1761 -41.1761
   -41.1761 -41.1761 -41.1760 -41.1760 -41.1756 -41.1756 -41.1755 -41.1755
   -41.1755 -41.1754 -41.1754 -41.1754 -41.1753 -41.1752 -41.1745 -41.1744
   -41.1741 -41.1741 -41.1740 -41.1740 -41.1739 -41.1738 -41.1737 -41.1736
   -41.1736 -41.1736 -41.1735 -41.1734 -41.1733 -41.1732 -41.1731 -41.1730
   -41.1729 -41.1729 -41.1727 -41.1726 -41.1725 -41.1723 -41.1720 -41.1719
   -41.1719 -41.1719 -41.1718 -41.1718 -41.1718 -41.1717 -41.1717 -41.1717
   -41.1716 -41.1715 -41.1715 -41.1713 -41.1712 -41.1712 -41.1712 -41.1712
   -41.1711 -41.1711 -41.1710 -41.1710 -41.1710 -41.1708 -41.1704 -41.1704
   -41.1702 -41.1702 -41.1698 -41.1697 -41.1696 -41.1694 -41.1690 -41.1689
   -41.1688 -41.1688 -41.1684 -41.1682 -41.1680 -41.1679 -41.1679 -41.1676
   -41.1673 -41.1672 -40.8965 -40.8964 -40.8963 -40.8962 -40.8953 -40.8952
   -40.8951 -40.8950 -40.8942 -40.8941 -40.8941 -40.8940 -40.8917 -40.8916
   -40.8901 -40.8900 -40.8892 -40.8891 -40.8875 -40.8874 -40.8872 -40.8871
   -40.8859 -40.8858 -40.8856 -40.8855 -40.8848 -40.8846 -40.8845 -40.8843
   -40.8050 -40.8049 -40.8043 -40.8042 -40.8038 -40.8037 -40.7998 -40.7998
   -40.7989 -40.7989 -40.7986 -40.7986 -40.7984 -40.7984 -40.7976 -40.7976
   -40.7970 -40.7970 -40.7842 -40.7842 -40.7839 -40.7838 -40.7825 -40.7824
   -40.7822 -40.7821 -40.7818 -40.7817 -40.7814 -40.7814 -40.6699 -40.6699
   -40.6690 -40.6690 -40.6683 -40.6683 -40.6676 -40.6676 -40.6674 -40.6674
   -40.6667 -40.6667 -40.5933 -40.5933 -40.5917 -40.5917 -40.5909 -40.5908
   -40.5906 -40.5905 -40.5892 -40.5892 -40.5889 -40.5889 -40.5672 -40.5672
   -40.5658 -40.5657 -40.5652 -40.5652 -13.3478 -13.3446 -13.3421 -13.3400
   -13.3384 -13.3365 -13.3341 -13.3316 -13.3291 -13.3276 -13.3272 -13.3261
   -13.3250 -13.3245 -13.3240 -13.3227 -13.3222 -13.3207 -13.3202 -13.3197
   -13.3189 -13.3184 -13.3182 -13.3178 -13.3177 -13.3174 -13.3168 -13.3163
   -13.3161 -13.3152 -13.3146 -13.3144 -13.3133 -13.3128 -13.3126 -13.3116
   -13.3113 -13.3109 -13.3095 -13.3067 -13.3064 -13.3042 -13.3040 -13.3036
   -13.3030 -13.0302 -13.0300 -13.0296 -13.0296 -13.0152 -13.0151 -13.0128
   -13.0128 -13.0127 -13.0126 -12.9634 -12.9614 -12.9591 -12.9523 -12.9507
   -12.9469 -12.9446 -12.9426 -12.9401 -12.9380 -12.9373 -12.9371 -12.9368
   -12.9362 -12.9356 -12.9337 -12.9326 -12.9321 -12.9310 -12.9306 -12.9300
   -12.9284 -12.9269 -12.9253 -12.9166 -12.9158 -12.9153 -12.9133 -12.9124
   -12.9122  -8.3790  -8.3779  -8.2204  -8.2201  -8.0204  -8.0196  -8.0190
    -8.0181  -8.0052  -8.0045  -7.9980  -7.9954  -7.9583  -7.9328  -7.9325
    -7.9053  -7.8925  -7.8922  -7.8907  -7.8904  -7.8379  -7.8101  -7.7136
    -7.7103  -7.6394  -7.6161  -7.5947  -7.5771  -7.5539  -7.5399  -7.4725
    -7.4530  -7.4395  -7.3716  -7.3653  -7.3458  -4.0447  -4.0381  -4.0358
    -4.0351  -4.0336  -3.8306  -3.8276  -3.6907  -3.6880  -3.6648  -3.6531
    -3.6498  -3.6418  -3.5180  -3.4222  -3.3221  -3.2837   0.5518   0.7265
     0.7301   0.7355   0.7359   1.0458   1.1406   1.1423   1.1869   1.1889
     1.1924   1.1934   1.2110   1.2115   1.2328   1.2468   1.2645   1.3135
     1.4503   1.4516   1.4793   1.4816   1.4912   1.5327   1.5446   1.5529
     1.5757   1.5767   1.5810   1.5842   1.6367   1.6992   1.7407   1.8192
     1.8484   1.8682   1.8838   1.9022   1.9044   1.9295   1.9854   1.9969
     2.0133   2.0232   2.0519   2.0546   2.1168   2.1832   2.2000   2.2094
     2.2249   2.2260   2.2294   2.2561   2.2634   2.2866   2.3097   2.3278
     2.3543   2.3843   2.3935   2.3955   2.4011   2.4103   2.4231   2.4350
     2.4377   2.4596   2.5605   2.5725   2.5986   2.6221   2.6427   2.6681
     2.6838   2.6990   2.7038   2.7133   2.7177   2.7567   2.7882   2.7932
     2.8468   2.8604   2.8622   2.8759   2.8772   2.8889   2.8905   2.9016
     2.9466   2.9655   2.9859   2.9985   3.0050   3.0578   3.0878   3.1327
     3.1908   3.2133   3.2213   3.2511   3.2875   3.3287   3.3458   3.3590
     3.3999   3.4159   6.0643   6.0665   6.2945   6.3977   6.4691   6.4732
     6.5309   6.5747   6.6204   6.6485   6.6522   6.6533   6.6656   6.6822
     6.6847   6.6883   6.7000   6.8871   6.8950   6.9155   6.9238   6.9286
     6.9332   6.9753   7.0079   7.0114   7.0397   7.0496   7.0511   7.0642
     7.0788   7.0854   7.1360   7.1473   7.2046   7.2170   7.2323   7.2505
     7.3145   7.3185   7.3243   7.3747   7.3947   7.3977   7.4828   7.5009
     7.6078   7.7183   7.7465   7.7857   7.8627   8.9468   9.4002   9.4113
     9.4264   9.4361   9.6698   9.7415   9.7561   9.9341   9.9543  10.0166
    10.0256  10.0260  10.0461  10.0607  10.0722  10.0963  10.1920  10.2116
    10.3126  10.4559  10.4567  10.5343  10.5487  10.6667  10.6826  10.6872
    10.6962  10.7231  10.7583  10.7749  10.7771  10.8026  10.8182

     occupation numbers 
     1.0000   1.0000   1.0000   1.0000   1.0000   1.0000   1.0000   1.0000
     1.0000   1.0000   1.0000   1.0000   1.0000   1.0000   1.0000   1.0000
     1.0000   1.0000   1.0000   1.0000   1.0000   1.0000   1.0000   1.0000
     1.0000   1.0000   1.0000   1.0000   1.0000   1.0000   1.0000   1.0000
     1.0000   1.0000   1.0000   1.0000   1.0000   1.0000   1.0000   1.0000
     1.0000   1.0000   1.0000   1.0000   1.0000   1.0000   1.0000   1.0000
     1.0000   1.0000   1.0000   1.0000   1.0000   1.0000   1.0000   1.0000
     1.0000   1.0000   1.0000   1.0000   1.0000   1.0000   1.0000   1.0000
     1.0000   1.0000   1.0000   1.0000   1.0000   1.0000   1.0000   1.0000
     1.0000   1.0000   1.0000   1.0000   1.0000   1.0000   1.0000   1.0000
     1.0000   1.0000   1.0000   1.0000   1.0000   1.0000   1.0000   1.0000
     1.0000   1.0000   1.0000   1.0000   1.0000   1.0000   1.0000   1.0000
     1.0000   1.0000   1.0000   1.0000   1.0000   1.0000   1.0000   1.0000
     1.0000   1.0000   1.0000   1.0000   1.0000   1.0000   1.0000   1.0000
     1.0000   1.0000   1.0000   1.0000   1.0000   1.0000   1.0000   1.0000
     1.0000   1.0000   1.0000   1.0000   1.0000   1.0000   1.0000   1.0000
     1.0000   1.0000   1.0000   1.0000   1.0000   1.0000   1.0000   1.0000
     1.0000   1.0000   1.0000   1.0000   1.0000   1.0000   1.0000   1.0000
     1.0000   1.0000   1.0000   1.0000   1.0000   1.0000   1.0000   1.0000
     1.0000   1.0000   1.0000   1.0000   1.0000   1.0000   1.0000   1.0000
     1.0000   1.0000   1.0000   1.0000   1.0000   1.0000   1.0000   1.0000
     1.0000   1.0000   1.0000   1.0000   1.0000   1.0000   1.0000   1.0000
     1.0000   1.0000   1.0000   1.0000   1.0000   1.0000   1.0000   1.0000
     1.0000   1.0000   1.0000   1.0000   1.0000   1.0000   1.0000   1.0000
     1.0000   1.0000   1.0000   1.0000   1.0000   1.0000   1.0000   1.0000
     1.0000   1.0000   1.0000   1.0000   1.0000   1.0000   1.0000   1.0000
     1.0000   1.0000   1.0000   1.0000   1.0000   1.0000   1.0000   1.0000
     1.0000   1.0000   1.0000   1.0000   1.0000   1.0000   1.0000   1.0000
     1.0000   1.0000   1.0000   1.0000   1.0000   1.0000   1.0000   1.0000
     1.0000   1.0000   1.0000   1.0000   1.0000   1.0000   1.0000   1.0000
     1.0000   1.0000   1.0000   1.0000   1.0000   1.0000   1.0000   1.0000
     1.0000   1.0000   1.0000   1.0000   1.0000   1.0000   1.0000   1.0000
     1.0000   1.0000   1.0000   1.0000   1.0000   1.0000   1.0000   1.0000
     1.0000   1.0000   1.0000   1.0000   1.0000   1.0000   1.0000   1.0000
     1.0000   1.0000   1.0000   1.0000   1.0000   1.0000   1.0000   1.0000
     1.0000   1.0000   1.0000   1.0000   1.0000   1.0000   1.0000   1.0000
     1.0000   1.0000   1.0000   1.0000   1.0000   1.0000   1.0000   1.0000
     1.0000   1.0000   1.0000   1.0000   1.0000   1.0000   1.0000   1.0000
     1.0000   1.0000   1.0000   1.0000   1.0000   1.0000   1.0000   1.0000
     1.0000   1.0000   1.0000   1.0000   1.0000   1.0000   1.0000   1.0000
     1.0000   1.0000   1.0000   1.0000   1.0000   1.0000   1.0000   1.0000
     1.0000   1.0000   1.0000   1.0000   1.0000   1.0000   1.0000   1.0000
     1.0000   1.0000   1.0000   1.0000   1.0000   1.0000   1.0000   1.0000
     1.0000   1.0000   1.0000   1.0000   1.0000   1.0000   1.0000   1.0000
     1.0000   1.0000   1.0000   1.0000   1.0000   1.0000   1.0000   1.0000
     1.0000   1.0000   1.0000   1.0000   1.0000   1.0000   1.0000   1.0000
     1.0000   1.0000   1.0000   1.0000   1.0000   1.0000   1.0000   1.0000
     1.0000   1.0000   1.0000   1.0000   1.0000   1.0000   1.0000   1.0000
     1.0000   1.0000   1.0000   1.0000   1.0000   1.0000   1.0000   1.0000
     1.0000   1.0000   1.0000   1.0000   1.0000   1.0000   1.0000   1.0000
     1.0000   1.0000   1.0000   1.0000   1.0000   1.0000   1.0000   1.0000
     1.0000   1.0000   1.0000   1.0000   1.0000   1.0000   1.0000   0.9999
     0.9992   0.9982   0.9977   0.9942   0.9841   0.9571   0.9383   0.9198
     0.8360   0.7917   0.0000   0.0000   0.0000   0.0000   0.0000   0.0000
     0.0000   0.0000   0.0000   0.0000   0.0000   0.0000   0.0000   0.0000
     0.0000   0.0000   0.0000   0.0000   0.0000   0.0000   0.0000   0.0000
     0.0000   0.0000   0.0000   0.0000   0.0000   0.0000   0.0000   0.0000
     0.0000   0.0000   0.0000   0.0000   0.0000   0.0000   0.0000   0.0000
     0.0000   0.0000   0.0000   0.0000   0.0000   0.0000   0.0000   0.0000
     0.0000   0.0000   0.0000   0.0000   0.0000   0.0000   0.0000   0.0000
     0.0000   0.0000   0.0000   0.0000   0.0000   0.0000   0.0000   0.0000
     0.0000   0.0000   0.0000   0.0000   0.0000   0.0000   0.0000   0.0000
     0.0000   0.0000   0.0000   0.0000   0.0000   0.0000   0.0000   0.0000
     0.0000   0.0000   0.0000   0.0000   0.0000   0.0000   0.0000

          k = 0.5000-0.2887 0.0000 (170366 PWs)   bands (ev):

   -41.1784 -41.1783 -41.1782 -41.1781 -41.1763 -41.1762 -41.1761 -41.1761
   -41.1761 -41.1761 -41.1760 -41.1760 -41.1756 -41.1756 -41.1755 -41.1755
   -41.1755 -41.1754 -41.1754 -41.1754 -41.1753 -41.1752 -41.1745 -41.1744
   -41.1741 -41.1741 -41.1740 -41.1740 -41.1739 -41.1738 -41.1737 -41.1736
   -41.1736 -41.1736 -41.1735 -41.1734 -41.1733 -41.1732 -41.1731 -41.1730
   -41.1729 -41.1729 -41.1727 -41.1726 -41.1725 -41.1723 -41.1720 -41.1719
   -41.1719 -41.1719 -41.1718 -41.1718 -41.1718 -41.1717 -41.1717 -41.1717
   -41.1716 -41.1715 -41.1715 -41.1713 -41.1712 -41.1712 -41.1712 -41.1712
   -41.1711 -41.1711 -41.1710 -41.1710 -41.1710 -41.1708 -41.1704 -41.1704
   -41.1702 -41.1702 -41.1698 -41.1697 -41.1696 -41.1694 -41.1690 -41.1689
   -41.1688 -41.1688 -41.1684 -41.1682 -41.1680 -41.1679 -41.1679 -41.1676
   -41.1673 -41.1672 -40.8965 -40.8964 -40.8963 -40.8962 -40.8953 -40.8952
   -40.8951 -40.8950 -40.8942 -40.8941 -40.8941 -40.8940 -40.8917 -40.8916
   -40.8901 -40.8900 -40.8892 -40.8891 -40.8875 -40.8874 -40.8872 -40.8871
   -40.8859 -40.8858 -40.8856 -40.8855 -40.8848 -40.8846 -40.8845 -40.8843
   -40.8050 -40.8049 -40.8043 -40.8042 -40.8038 -40.8037 -40.7998 -40.7998
   -40.7989 -40.7989 -40.7986 -40.7986 -40.7984 -40.7984 -40.7976 -40.7976
   -40.7970 -40.7970 -40.7842 -40.7842 -40.7839 -40.7838 -40.7825 -40.7824
   -40.7822 -40.7821 -40.7818 -40.7817 -40.7814 -40.7814 -40.6699 -40.6699
   -40.6690 -40.6690 -40.6683 -40.6683 -40.6676 -40.6676 -40.6674 -40.6674
   -40.6667 -40.6667 -40.5933 -40.5933 -40.5917 -40.5917 -40.5909 -40.5908
   -40.5906 -40.5905 -40.5892 -40.5892 -40.5889 -40.5889 -40.5672 -40.5672
   -40.5658 -40.5657 -40.5652 -40.5652 -13.3469 -13.3453 -13.3422 -13.3411
   -13.3392 -13.3358 -13.3328 -13.3312 -13.3281 -13.3277 -13.3270 -13.3260
   -13.3250 -13.3248 -13.3240 -13.3239 -13.3229 -13.3202 -13.3200 -13.3191
   -13.3189 -13.3183 -13.3182 -13.3180 -13.3179 -13.3174 -13.3171 -13.3167
   -13.3161 -13.3155 -13.3151 -13.3144 -13.3141 -13.3128 -13.3119 -13.3118
   -13.3106 -13.3103 -13.3089 -13.3066 -13.3065 -13.3041 -13.3041 -13.3040
   -13.3031 -13.0302 -13.0300 -13.0297 -13.0295 -13.0152 -13.0151 -13.0129
   -13.0128 -13.0127 -13.0126 -12.9634 -12.9611 -12.9593 -12.9524 -12.9505
   -12.9469 -12.9447 -12.9424 -12.9402 -12.9380 -12.9372 -12.9371 -12.9370
   -12.9361 -12.9355 -12.9337 -12.9325 -12.9322 -12.9311 -12.9304 -12.9300
   -12.9286 -12.9266 -12.9255 -12.9164 -12.9161 -12.9152 -12.9131 -12.9127
   -12.9120  -8.3787  -8.3782  -8.2203  -8.2201  -8.0200  -8.0196  -8.0188
    -8.0187  -8.0057  -8.0043  -7.9978  -7.9955  -7.9583  -7.9327  -7.9325
    -7.9053  -7.8927  -7.8915  -7.8914  -7.8902  -7.8382  -7.8096  -7.7138
    -7.7104  -7.6394  -7.6161  -7.5949  -7.5767  -7.5538  -7.5401  -7.4725
    -7.4528  -7.4397  -7.3717  -7.3651  -7.3459  -4.0444  -4.0380  -4.0360
    -4.0360  -4.0328  -3.8306  -3.8276  -3.6906  -3.6878  -3.6646  -3.6540
    -3.6489  -3.6419  -3.5187  -3.4221  -3.3218  -3.2838   0.5519   0.7264
     0.7298   0.7358   0.7360   1.0460   1.1407   1.1421   1.1873   1.1879
     1.1919   1.1944   1.2109   1.2116   1.2326   1.2472   1.2644   1.3139
     1.4514   1.4518   1.4787   1.4802   1.4911   1.5328   1.5454   1.5529
     1.5762   1.5768   1.5809   1.5842   1.6364   1.6988   1.7393   1.8193
     1.8487   1.8686   1.8838   1.9019   1.9043   1.9296   1.9853   1.9968
     2.0148   2.0217   2.0528   2.0534   2.1175   2.1831   2.2009   2.2096
     2.2247   2.2262   2.2288   2.2558   2.2628   2.2866   2.3104   2.3283
     2.3550   2.3834   2.3921   2.3960   2.4020   2.4102   2.4236   2.4347
     2.4375   2.4603   2.5607   2.5722   2.5988   2.6217   2.6423   2.6677
     2.6845   2.6981   2.7038   2.7137   2.7180   2.7572   2.7883   2.7918
     2.8469   2.8607   2.8627   2.8754   2.8776   2.8888   2.8900   2.9016
     2.9469   2.9660   2.9837   2.9990   3.0049   3.0587   3.0875   3.1327
     3.1912   3.2136   3.2213   3.2509   3.2870   3.3290   3.3459   3.3584
     3.4000   3.4159   6.0637   6.0671   6.2945   6.3988   6.4688   6.4743
     6.5258   6.5789   6.6173   6.6453   6.6501   6.6552   6.6631   6.6829
     6.6848   6.6912   6.7036   6.8855   6.8927   6.9166   6.9256   6.9280
     6.9304   6.9778   7.0081   7.0129   7.0406   7.0499   7.0510   7.0640
     7.0814   7.0846   7.1358   7.1472   7.2033   7.2167   7.2318   7.2511
     7.3160   7.3190   7.3225   7.3733   7.3954   7.3965   7.4834   7.5017
     7.6091   7.7176   7.7483   7.7847   7.8617   8.9472   9.4000   9.4118
     9.4258   9.4362   9.6700   9.7414   9.7561   9.9340   9.9553  10.0157
    10.0259  10.0259  10.0465  10.0595  10.0722  10.0964  10.1912  10.2109
    10.3122  10.4576  10.4583  10.5340  10.5469  10.6647  10.6842  10.6870
    10.6964  10.7232  10.7572  10.7771  10.7779  10.8023  10.8189

     occupation numbers 
     1.0000   1.0000   1.0000   1.0000   1.0000   1.0000   1.0000   1.0000
     1.0000   1.0000   1.0000   1.0000   1.0000   1.0000   1.0000   1.0000
     1.0000   1.0000   1.0000   1.0000   1.0000   1.0000   1.0000   1.0000
     1.0000   1.0000   1.0000   1.0000   1.0000   1.0000   1.0000   1.0000
     1.0000   1.0000   1.0000   1.0000   1.0000   1.0000   1.0000   1.0000
     1.0000   1.0000   1.0000   1.0000   1.0000   1.0000   1.0000   1.0000
     1.0000   1.0000   1.0000   1.0000   1.0000   1.0000   1.0000   1.0000
     1.0000   1.0000   1.0000   1.0000   1.0000   1.0000   1.0000   1.0000
     1.0000   1.0000   1.0000   1.0000   1.0000   1.0000   1.0000   1.0000
     1.0000   1.0000   1.0000   1.0000   1.0000   1.0000   1.0000   1.0000
     1.0000   1.0000   1.0000   1.0000   1.0000   1.0000   1.0000   1.0000
     1.0000   1.0000   1.0000   1.0000   1.0000   1.0000   1.0000   1.0000
     1.0000   1.0000   1.0000   1.0000   1.0000   1.0000   1.0000   1.0000
     1.0000   1.0000   1.0000   1.0000   1.0000   1.0000   1.0000   1.0000
     1.0000   1.0000   1.0000   1.0000   1.0000   1.0000   1.0000   1.0000
     1.0000   1.0000   1.0000   1.0000   1.0000   1.0000   1.0000   1.0000
     1.0000   1.0000   1.0000   1.0000   1.0000   1.0000   1.0000   1.0000
     1.0000   1.0000   1.0000   1.0000   1.0000   1.0000   1.0000   1.0000
     1.0000   1.0000   1.0000   1.0000   1.0000   1.0000   1.0000   1.0000
     1.0000   1.0000   1.0000   1.0000   1.0000   1.0000   1.0000   1.0000
     1.0000   1.0000   1.0000   1.0000   1.0000   1.0000   1.0000   1.0000
     1.0000   1.0000   1.0000   1.0000   1.0000   1.0000   1.0000   1.0000
     1.0000   1.0000   1.0000   1.0000   1.0000   1.0000   1.0000   1.0000
     1.0000   1.0000   1.0000   1.0000   1.0000   1.0000   1.0000   1.0000
     1.0000   1.0000   1.0000   1.0000   1.0000   1.0000   1.0000   1.0000
     1.0000   1.0000   1.0000   1.0000   1.0000   1.0000   1.0000   1.0000
     1.0000   1.0000   1.0000   1.0000   1.0000   1.0000   1.0000   1.0000
     1.0000   1.0000   1.0000   1.0000   1.0000   1.0000   1.0000   1.0000
     1.0000   1.0000   1.0000   1.0000   1.0000   1.0000   1.0000   1.0000
     1.0000   1.0000   1.0000   1.0000   1.0000   1.0000   1.0000   1.0000
     1.0000   1.0000   1.0000   1.0000   1.0000   1.0000   1.0000   1.0000
     1.0000   1.0000   1.0000   1.0000   1.0000   1.0000   1.0000   1.0000
     1.0000   1.0000   1.0000   1.0000   1.0000   1.0000   1.0000   1.0000
     1.0000   1.0000   1.0000   1.0000   1.0000   1.0000   1.0000   1.0000
     1.0000   1.0000   1.0000   1.0000   1.0000   1.0000   1.0000   1.0000
     1.0000   1.0000   1.0000   1.0000   1.0000   1.0000   1.0000   1.0000
     1.0000   1.0000   1.0000   1.0000   1.0000   1.0000   1.0000   1.0000
     1.0000   1.0000   1.0000   1.0000   1.0000   1.0000   1.0000   1.0000
     1.0000   1.0000   1.0000   1.0000   1.0000   1.0000   1.0000   1.0000
     1.0000   1.0000   1.0000   1.0000   1.0000   1.0000   1.0000   1.0000
     1.0000   1.0000   1.0000   1.0000   1.0000   1.0000   1.0000   1.0000
     1.0000   1.0000   1.0000   1.0000   1.0000   1.0000   1.0000   1.0000
     1.0000   1.0000   1.0000   1.0000   1.0000   1.0000   1.0000   1.0000
     1.0000   1.0000   1.0000   1.0000   1.0000   1.0000   1.0000   1.0000
     1.0000   1.0000   1.0000   1.0000   1.0000   1.0000   1.0000   1.0000
     1.0000   1.0000   1.0000   1.0000   1.0000   1.0000   1.0000   1.0000
     1.0000   1.0000   1.0000   1.0000   1.0000   1.0000   1.0000   1.0000
     1.0000   1.0000   1.0000   1.0000   1.0000   1.0000   1.0000   1.0000
     1.0000   1.0000   1.0000   1.0000   1.0000   1.0000   1.0000   1.0000
     1.0000   1.0000   1.0000   1.0000   1.0000   1.0000   1.0000   1.0000
     1.0000   1.0000   1.0000   1.0000   1.0000   1.0000   1.0000   1.0000
     1.0000   1.0000   1.0000   1.0000   1.0000   1.0000   1.0000   0.9999
     0.9992   0.9982   0.9977   0.9942   0.9843   0.9568   0.9381   0.9207
     0.8357   0.7915   0.0000   0.0000   0.0000   0.0000   0.0000   0.0000
     0.0000   0.0000   0.0000   0.0000   0.0000   0.0000   0.0000   0.0000
     0.0000   0.0000   0.0000   0.0000   0.0000   0.0000   0.0000   0.0000
     0.0000   0.0000   0.0000   0.0000   0.0000   0.0000   0.0000   0.0000
     0.0000   0.0000   0.0000   0.0000   0.0000   0.0000   0.0000   0.0000
     0.0000   0.0000   0.0000   0.0000   0.0000   0.0000   0.0000   0.0000
     0.0000   0.0000   0.0000   0.0000   0.0000   0.0000   0.0000   0.0000
     0.0000   0.0000   0.0000   0.0000   0.0000   0.0000   0.0000   0.0000
     0.0000   0.0000   0.0000   0.0000   0.0000   0.0000   0.0000   0.0000
     0.0000   0.0000   0.0000   0.0000   0.0000   0.0000   0.0000   0.0000
     0.0000   0.0000   0.0000   0.0000   0.0000   0.0000   0.0000

          k =-0.5000-0.2887 0.0000 (170366 PWs)   bands (ev):

   -41.1784 -41.1783 -41.1782 -41.1781 -41.1763 -41.1762 -41.1761 -41.1761
   -41.1761 -41.1761 -41.1760 -41.1760 -41.1756 -41.1756 -41.1755 -41.1755
   -41.1755 -41.1754 -41.1754 -41.1754 -41.1753 -41.1752 -41.1745 -41.1744
   -41.1741 -41.1741 -41.1740 -41.1740 -41.1739 -41.1738 -41.1737 -41.1736
   -41.1736 -41.1736 -41.1735 -41.1734 -41.1733 -41.1732 -41.1731 -41.1730
   -41.1729 -41.1729 -41.1727 -41.1726 -41.1725 -41.1723 -41.1720 -41.1719
   -41.1719 -41.1719 -41.1718 -41.1718 -41.1718 -41.1717 -41.1717 -41.1717
   -41.1716 -41.1715 -41.1715 -41.1713 -41.1712 -41.1712 -41.1712 -41.1712
   -41.1711 -41.1711 -41.1710 -41.1710 -41.1710 -41.1708 -41.1704 -41.1704
   -41.1702 -41.1702 -41.1698 -41.1697 -41.1696 -41.1694 -41.1690 -41.1689
   -41.1688 -41.1688 -41.1684 -41.1682 -41.1680 -41.1679 -41.1679 -41.1676
   -41.1673 -41.1672 -40.8965 -40.8964 -40.8963 -40.8962 -40.8953 -40.8952
   -40.8951 -40.8950 -40.8942 -40.8941 -40.8941 -40.8940 -40.8917 -40.8916
   -40.8901 -40.8900 -40.8892 -40.8891 -40.8875 -40.8874 -40.8872 -40.8871
   -40.8859 -40.8858 -40.8856 -40.8855 -40.8848 -40.8846 -40.8845 -40.8843
   -40.8050 -40.8049 -40.8043 -40.8042 -40.8038 -40.8037 -40.7998 -40.7998
   -40.7989 -40.7989 -40.7986 -40.7986 -40.7984 -40.7984 -40.7976 -40.7976
   -40.7970 -40.7970 -40.7842 -40.7842 -40.7839 -40.7838 -40.7825 -40.7824
   -40.7822 -40.7821 -40.7818 -40.7817 -40.7814 -40.7814 -40.6699 -40.6699
   -40.6690 -40.6690 -40.6683 -40.6683 -40.6676 -40.6676 -40.6674 -40.6674
   -40.6667 -40.6667 -40.5933 -40.5933 -40.5917 -40.5917 -40.5909 -40.5908
   -40.5906 -40.5905 -40.5892 -40.5892 -40.5889 -40.5889 -40.5672 -40.5672
   -40.5658 -40.5657 -40.5652 -40.5652 -13.3478 -13.3446 -13.3421 -13.3400
   -13.3384 -13.3365 -13.3341 -13.3316 -13.3291 -13.3276 -13.3272 -13.3261
   -13.3250 -13.3245 -13.3241 -13.3227 -13.3221 -13.3207 -13.3202 -13.3197
   -13.3189 -13.3184 -13.3181 -13.3178 -13.3177 -13.3174 -13.3168 -13.3163
   -13.3161 -13.3152 -13.3146 -13.3144 -13.3133 -13.3127 -13.3126 -13.3116
   -13.3113 -13.3109 -13.3095 -13.3067 -13.3064 -13.3043 -13.3040 -13.3036
   -13.3030 -13.0302 -13.0300 -13.0296 -13.0295 -13.0152 -13.0151 -13.0129
   -13.0128 -13.0127 -13.0126 -12.9634 -12.9614 -12.9591 -12.9523 -12.9507
   -12.9469 -12.9446 -12.9426 -12.9401 -12.9380 -12.9373 -12.9371 -12.9368
   -12.9362 -12.9356 -12.9336 -12.9326 -12.9321 -12.9310 -12.9306 -12.9300
   -12.9284 -12.9269 -12.9253 -12.9166 -12.9158 -12.9153 -12.9133 -12.9124
   -12.9122  -8.3790  -8.3779  -8.2204  -8.2201  -8.0203  -8.0196  -8.0190
    -8.0181  -8.0052  -8.0045  -7.9981  -7.9954  -7.9583  -7.9328  -7.9325
    -7.9053  -7.8925  -7.8922  -7.8907  -7.8904  -7.8379  -7.8102  -7.7136
    -7.7103  -7.6394  -7.6161  -7.5947  -7.5771  -7.5539  -7.5399  -7.4725
    -7.4530  -7.4395  -7.3716  -7.3653  -7.3458  -4.0447  -4.0381  -4.0358
    -4.0350  -4.0337  -3.8306  -3.8276  -3.6907  -3.6880  -3.6648  -3.6531
    -3.6498  -3.6418  -3.5180  -3.4222  -3.3221  -3.2837   0.5518   0.7265
     0.7301   0.7355   0.7359   1.0458   1.1406   1.1423   1.1869   1.1889
     1.1924   1.1934   1.2110   1.2115   1.2328   1.2468   1.2645   1.3135
     1.4503   1.4516   1.4793   1.4816   1.4912   1.5327   1.5446   1.5529
     1.5757   1.5767   1.5810   1.5842   1.6366   1.6992   1.7407   1.8192
     1.8484   1.8682   1.8838   1.9022   1.9045   1.9295   1.9854   1.9969
     2.0133   2.0232   2.0519   2.0546   2.1168   2.1832   2.2000   2.2094
     2.2248   2.2260   2.2294   2.2561   2.2634   2.2866   2.3097   2.3278
     2.3543   2.3843   2.3935   2.3955   2.4010   2.4103   2.4231   2.4350
     2.4378   2.4596   2.5605   2.5725   2.5986   2.6221   2.6427   2.6681
     2.6838   2.6990   2.7038   2.7133   2.7177   2.7567   2.7882   2.7932
     2.8468   2.8604   2.8622   2.8759   2.8772   2.8889   2.8905   2.9016
     2.9466   2.9655   2.9859   2.9985   3.0050   3.0578   3.0878   3.1327
     3.1908   3.2133   3.2213   3.2511   3.2875   3.3287   3.3458   3.3590
     3.3999   3.4159   6.0643   6.0665   6.2945   6.3977   6.4691   6.4732
     6.5309   6.5747   6.6205   6.6485   6.6522   6.6533   6.6656   6.6822
     6.6847   6.6882   6.7000   6.8872   6.8950   6.9155   6.9238   6.9286
     6.9332   6.9753   7.0079   7.0113   7.0397   7.0496   7.0511   7.0642
     7.0788   7.0854   7.1360   7.1473   7.2046   7.2170   7.2323   7.2505
     7.3145   7.3185   7.3243   7.3747   7.3947   7.3978   7.4828   7.5008
     7.6078   7.7183   7.7464   7.7857   7.8627   8.9468   9.4002   9.4113
     9.4264   9.4361   9.6698   9.7415   9.7561   9.9342   9.9543  10.0167
    10.0257  10.0260  10.0461  10.0607  10.0722  10.0963  10.1921  10.2116
    10.3126  10.4558  10.4568  10.5343  10.5487  10.6667  10.6825  10.6872
    10.6962  10.7230  10.7583  10.7749  10.7771  10.8026  10.8182

     occupation numbers 
     1.0000   1.0000   1.0000   1.0000   1.0000   1.0000   1.0000   1.0000
     1.0000   1.0000   1.0000   1.0000   1.0000   1.0000   1.0000   1.0000
     1.0000   1.0000   1.0000   1.0000   1.0000   1.0000   1.0000   1.0000
     1.0000   1.0000   1.0000   1.0000   1.0000   1.0000   1.0000   1.0000
     1.0000   1.0000   1.0000   1.0000   1.0000   1.0000   1.0000   1.0000
     1.0000   1.0000   1.0000   1.0000   1.0000   1.0000   1.0000   1.0000
     1.0000   1.0000   1.0000   1.0000   1.0000   1.0000   1.0000   1.0000
     1.0000   1.0000   1.0000   1.0000   1.0000   1.0000   1.0000   1.0000
     1.0000   1.0000   1.0000   1.0000   1.0000   1.0000   1.0000   1.0000
     1.0000   1.0000   1.0000   1.0000   1.0000   1.0000   1.0000   1.0000
     1.0000   1.0000   1.0000   1.0000   1.0000   1.0000   1.0000   1.0000
     1.0000   1.0000   1.0000   1.0000   1.0000   1.0000   1.0000   1.0000
     1.0000   1.0000   1.0000   1.0000   1.0000   1.0000   1.0000   1.0000
     1.0000   1.0000   1.0000   1.0000   1.0000   1.0000   1.0000   1.0000
     1.0000   1.0000   1.0000   1.0000   1.0000   1.0000   1.0000   1.0000
     1.0000   1.0000   1.0000   1.0000   1.0000   1.0000   1.0000   1.0000
     1.0000   1.0000   1.0000   1.0000   1.0000   1.0000   1.0000   1.0000
     1.0000   1.0000   1.0000   1.0000   1.0000   1.0000   1.0000   1.0000
     1.0000   1.0000   1.0000   1.0000   1.0000   1.0000   1.0000   1.0000
     1.0000   1.0000   1.0000   1.0000   1.0000   1.0000   1.0000   1.0000
     1.0000   1.0000   1.0000   1.0000   1.0000   1.0000   1.0000   1.0000
     1.0000   1.0000   1.0000   1.0000   1.0000   1.0000   1.0000   1.0000
     1.0000   1.0000   1.0000   1.0000   1.0000   1.0000   1.0000   1.0000
     1.0000   1.0000   1.0000   1.0000   1.0000   1.0000   1.0000   1.0000
     1.0000   1.0000   1.0000   1.0000   1.0000   1.0000   1.0000   1.0000
     1.0000   1.0000   1.0000   1.0000   1.0000   1.0000   1.0000   1.0000
     1.0000   1.0000   1.0000   1.0000   1.0000   1.0000   1.0000   1.0000
     1.0000   1.0000   1.0000   1.0000   1.0000   1.0000   1.0000   1.0000
     1.0000   1.0000   1.0000   1.0000   1.0000   1.0000   1.0000   1.0000
     1.0000   1.0000   1.0000   1.0000   1.0000   1.0000   1.0000   1.0000
     1.0000   1.0000   1.0000   1.0000   1.0000   1.0000   1.0000   1.0000
     1.0000   1.0000   1.0000   1.0000   1.0000   1.0000   1.0000   1.0000
     1.0000   1.0000   1.0000   1.0000   1.0000   1.0000   1.0000   1.0000
     1.0000   1.0000   1.0000   1.0000   1.0000   1.0000   1.0000   1.0000
     1.0000   1.0000   1.0000   1.0000   1.0000   1.0000   1.0000   1.0000
     1.0000   1.0000   1.0000   1.0000   1.0000   1.0000   1.0000   1.0000
     1.0000   1.0000   1.0000   1.0000   1.0000   1.0000   1.0000   1.0000
     1.0000   1.0000   1.0000   1.0000   1.0000   1.0000   1.0000   1.0000
     1.0000   1.0000   1.0000   1.0000   1.0000   1.0000   1.0000   1.0000
     1.0000   1.0000   1.0000   1.0000   1.0000   1.0000   1.0000   1.0000
     1.0000   1.0000   1.0000   1.0000   1.0000   1.0000   1.0000   1.0000
     1.0000   1.0000   1.0000   1.0000   1.0000   1.0000   1.0000   1.0000
     1.0000   1.0000   1.0000   1.0000   1.0000   1.0000   1.0000   1.0000
     1.0000   1.0000   1.0000   1.0000   1.0000   1.0000   1.0000   1.0000
     1.0000   1.0000   1.0000   1.0000   1.0000   1.0000   1.0000   1.0000
     1.0000   1.0000   1.0000   1.0000   1.0000   1.0000   1.0000   1.0000
     1.0000   1.0000   1.0000   1.0000   1.0000   1.0000   1.0000   1.0000
     1.0000   1.0000   1.0000   1.0000   1.0000   1.0000   1.0000   1.0000
     1.0000   1.0000   1.0000   1.0000   1.0000   1.0000   1.0000   1.0000
     1.0000   1.0000   1.0000   1.0000   1.0000   1.0000   1.0000   1.0000
     1.0000   1.0000   1.0000   1.0000   1.0000   1.0000   1.0000   1.0000
     1.0000   1.0000   1.0000   1.0000   1.0000   1.0000   1.0000   0.9999
     0.9992   0.9982   0.9977   0.9942   0.9841   0.9571   0.9383   0.9197
     0.8360   0.7917   0.0000   0.0000   0.0000   0.0000   0.0000   0.0000
     0.0000   0.0000   0.0000   0.0000   0.0000   0.0000   0.0000   0.0000
     0.0000   0.0000   0.0000   0.0000   0.0000   0.0000   0.0000   0.0000
     0.0000   0.0000   0.0000   0.0000   0.0000   0.0000   0.0000   0.0000
     0.0000   0.0000   0.0000   0.0000   0.0000   0.0000   0.0000   0.0000
     0.0000   0.0000   0.0000   0.0000   0.0000   0.0000   0.0000   0.0000
     0.0000   0.0000   0.0000   0.0000   0.0000   0.0000   0.0000   0.0000
     0.0000   0.0000   0.0000   0.0000   0.0000   0.0000   0.0000   0.0000
     0.0000   0.0000   0.0000   0.0000   0.0000   0.0000   0.0000   0.0000
     0.0000   0.0000   0.0000   0.0000   0.0000   0.0000   0.0000   0.0000
     0.0000   0.0000   0.0000   0.0000   0.0000   0.0000   0.0000

     the Fermi energy is     3.4940 ev

!    total energy              =  -35528.58328471 Ry
     total all-electron energy =  -1223255.482758 Ry
     estimated scf accuracy    <       0.00000001 Ry
     smearing contrib. (-TS)   =      -0.01205837 Ry
     internal energy E=F+TS    =  -35528.57122635 Ry

     The total energy is F=E-TS. E is the sum of the following terms:
     one-electron contribution =   -6748.20035718 Ry
     hartree contribution      =    3752.83928489 Ry
     xc contribution           =   -2518.59634274 Ry
     ewald contribution        =   -5427.68888790 Ry
     one-center paw contrib.   =  -24586.92492342 Ry
      -> PAW hartree energy AE =      95.99799311 Ry
      -> PAW hartree energy PS =     -96.23559344 Ry
      -> PAW xc energy AE      =    -798.43797737 Ry
      -> PAW xc energy PS      =      33.31738931 Ry
      -> total E_H with PAW    =    3752.60168456 Ry
      -> total E_XC with PAW   =   -3283.71693080 Ry

     convergence has been achieved in   4 iterations


     -----------------------------------------------
     Non-local corr. energy    =      25.64489085 Ry
     -----------------------------------------------


     Forces acting on atoms (cartesian axes, Ry/au):

     atom    1 type  1   force =     0.00005984    0.00010144   -0.00000516
     atom    2 type  1   force =     0.00043434   -0.00073493   -0.00008829
     atom    3 type  1   force =     0.00002697    0.00010410   -0.00015325
     atom    4 type  1   force =    -0.00034712    0.00061805   -0.00010537
     atom    5 type  1   force =     0.00009304    0.00004039    0.00001652
     atom    6 type  1   force =    -0.00085713    0.00001313    0.00009367
     atom    7 type  1   force =     0.00007708    0.00007652    0.00014330
     atom    8 type  1   force =    -0.00045792   -0.00079556    0.00000311
     atom    9 type  1   force =     0.00004481    0.00007412   -0.00000233
     atom   10 type  1   force =    -0.00002103   -0.00000288    0.00026423
     atom   11 type  1   force =     0.00000599    0.00007987    0.00008171
     atom   12 type  1   force =     0.00070682    0.00001159    0.00011704
     atom   13 type  1   force =    -0.00001128    0.00010305   -0.00002905
     atom   14 type  1   force =     0.00000435   -0.00001697   -0.00025827
     atom   15 type  1   force =     0.00006582    0.00004652   -0.00009427
     atom   16 type  1   force =     0.00031493    0.00054310    0.00000400
     atom   17 type  1   force =     0.00002328    0.00003642   -0.00000557
     atom   18 type  2   force =     0.00008142    0.00018270    0.00014631
     atom   19 type  2   force =    -0.00009269    0.00033231   -0.00083799
     atom   20 type  2   force =     0.00022255   -0.00002921    0.00001828
     atom   21 type  2   force =     0.00033030   -0.00036855   -0.00076252
     atom   22 type  2   force =     0.00018549    0.00026506    0.00007221
     atom   23 type  2   force =    -0.00035328   -0.00037693   -0.00008500
     atom   24 type  2   force =     0.00003008    0.00009807    0.00022509
     atom   25 type  2   force =    -0.00002551    0.00011092   -0.00041242
     atom   26 type  2   force =     0.00000214    0.00000113    0.00011122
     atom   27 type  2   force =    -0.00058306   -0.00043663   -0.00070901
     atom   28 type  2   force =     0.00006651    0.00011413    0.00013244
     atom   29 type  2   force =     0.00018289   -0.00031413   -0.00041349
     atom   30 type  2   force =    -0.00000136    0.00005070    0.00022784
     atom   31 type  2   force =     0.00019890    0.00007995   -0.00029073
     atom   32 type  2   force =    -0.00002540   -0.00009236    0.00012999
     atom   33 type  2   force =    -0.00003621    0.00020630    0.00007440
     atom   34 type  2   force =    -0.00010465    0.00015759    0.00017005
     atom   35 type  2   force =     0.00010958   -0.00027525    0.00000124
     atom   36 type  2   force =     0.00032507    0.00008548    0.00078469
     atom   37 type  2   force =     0.00012163    0.00016208   -0.00009743
     atom   38 type  2   force =     0.00010543    0.00003797    0.00036231
     atom   39 type  2   force =     0.00007456    0.00007267   -0.00018154
     atom   40 type  2   force =    -0.00003051    0.00019731    0.00025180
     atom   41 type  2   force =     0.00004368    0.00002777   -0.00018074
     atom   42 type  2   force =    -0.00048799    0.00010498    0.00072227
     atom   43 type  2   force =    -0.00013863    0.00017208    0.00003245
     atom   44 type  2   force =    -0.00009345   -0.00071624    0.00066049
     atom   45 type  2   force =    -0.00000216   -0.00000370   -0.00006695
     atom   46 type  2   force =     0.00019773    0.00006929   -0.00011069
     atom   47 type  2   force =    -0.00006541   -0.00007122   -0.00009339
     atom   48 type  2   force =    -0.00015242   -0.00049485    0.00004572
     atom   49 type  2   force =     0.00014200    0.00029345   -0.00003638
     atom   50 type  2   force =    -0.00035079    0.00000342    0.00038008
     atom   51 type  2   force =     0.00006916    0.00011285   -0.00008562
     atom   52 type  2   force =    -0.00029885   -0.00004689   -0.00003862
     atom   53 type  2   force =     0.00019046   -0.00001024   -0.00012836
     The non-local contrib.  to forces
     atom    1 type  1   force =    -0.00045239   -0.00075934   -0.00002442
     atom    2 type  1   force =     0.03111068   -0.05430814    0.00216503
     atom    3 type  1   force =     0.00004798    0.00000583    0.00187262
     atom    4 type  1   force =    -0.03258659    0.05555865    0.00157311
     atom    5 type  1   force =    -0.00087141    0.00002711   -0.00012606
     atom    6 type  1   force =    -0.06255949   -0.00021324   -0.00218668
     atom    7 type  1   force =     0.00000130    0.00003230   -0.00185352
     atom    8 type  1   force =    -0.03093599   -0.05357192   -0.00004280
     atom    9 type  1   force =     0.00041096    0.00073867   -0.00001674
     atom   10 type  1   force =     0.00119926    0.00064688    0.03936102
     atom   11 type  1   force =     0.00088117   -0.00002312   -0.00637396
     atom   12 type  1   force =     0.06443634   -0.00044385   -0.00158729
     atom   13 type  1   force =     0.00045657   -0.00076357    0.00017623
     atom   14 type  1   force =    -0.00002177    0.00133173   -0.03934636
     atom   15 type  1   force =    -0.00046166    0.00072983    0.00642085
     atom   16 type  1   force =     0.03295057    0.05707220   -0.00002874
     atom   17 type  1   force =     0.00000917    0.00004699    0.00001357
     atom   18 type  2   force =    -0.00017387   -0.00107069    0.25425355
     atom   19 type  2   force =    -0.00066748   -0.13884807    0.17881603
     atom   20 type  2   force =    -0.00076164    0.00038382    0.25396353
     atom   21 type  2   force =    -0.12067104    0.06858570    0.17831235
     atom   22 type  2   force =     0.00042458    0.00035228    0.24934465
     atom   23 type  2   force =    -0.02696597   -0.01598626    0.20839683
     atom   24 type  2   force =     0.00304198   -0.00192431    0.25933161
     atom   25 type  2   force =    -0.01134648    0.00636124    0.22481187
     atom   26 type  2   force =     0.00071945    0.00050153    0.25410654
     atom   27 type  2   force =     0.12055995    0.06918293    0.17786156
     atom   28 type  2   force =     0.00000716    0.00353042    0.25914734
     atom   29 type  2   force =     0.00002942   -0.01329467    0.22466578
     atom   30 type  2   force =    -0.00294013   -0.00192541    0.25935440
     atom   31 type  2   force =     0.01116189    0.00622969    0.22505843
     atom   32 type  2   force =     0.00007577   -0.00043514    0.24932751
     atom   33 type  2   force =    -0.00016865    0.03047711    0.20862323
     atom   34 type  2   force =    -0.00045798    0.00051251    0.24941267
     atom   35 type  2   force =     0.02660294   -0.01595696    0.20846556
     atom   36 type  2   force =    -0.11990393   -0.06997808   -0.17888856
     atom   37 type  2   force =    -0.00083583   -0.00068556   -0.25419546
     atom   38 type  2   force =     0.01117372   -0.00664144   -0.22487947
     atom   39 type  2   force =    -0.00318239    0.00166688   -0.25927693
     atom   40 type  2   force =    -0.00019180    0.01277903   -0.22510050
     atom   41 type  2   force =    -0.00020012   -0.00349992   -0.25928986
     atom   42 type  2   force =     0.11972972   -0.07020553   -0.17834401
     atom   43 type  2   force =     0.00071098   -0.00047089   -0.25389496
     atom   44 type  2   force =    -0.00038048    0.13897385   -0.17792799
     atom   45 type  2   force =     0.00007399    0.00086528   -0.25405112
     atom   46 type  2   force =     0.02646931    0.01509251   -0.20866598
     atom   47 type  2   force =    -0.00040998   -0.00015469   -0.24927144
     atom   48 type  2   force =    -0.00037126   -0.03134030   -0.20845547
     atom   49 type  2   force =     0.00010026    0.00054464   -0.24929581
     atom   50 type  2   force =    -0.01152426   -0.00661956   -0.22470311
     atom   51 type  2   force =     0.00305640    0.00176376   -0.25908373
     atom   52 type  2   force =    -0.02713350    0.01506345   -0.20851976
     atom   53 type  2   force =     0.00067167   -0.00013512   -0.24936091
     The ionic contribution  to forces
     atom    1 type  1   force =     0.01113116    0.01847136    0.00422150
     atom    2 type  1   force =     0.78482185   -1.31516251   -0.09816047
     atom    3 type  1   force =     0.25487157   -0.43476551   -0.10518591
     atom    4 type  1   force =    -0.71993444    1.29455213   -0.07598661
     atom    5 type  1   force =    -0.23325674    0.43394545    0.01414890
     atom    6 type  1   force =    -1.53187592    0.02220356    0.09317732
     atom    7 type  1   force =    -0.50466394    0.00375834    0.10996208
     atom    8 type  1   force =    -0.76940809   -1.33318838   -0.00114773
     atom    9 type  1   force =    -0.25858478   -0.44884042    0.00373029
     atom   10 type  1   force =    -0.02891868   -0.02643429   -0.77858127
     atom   11 type  1   force =    -0.01469185   -0.00325720    0.16045192
     atom   12 type  1   force =     1.48069612    0.02383530    0.07073258
     atom   13 type  1   force =     0.49251615    0.01560709   -0.01099507
     atom   14 type  1   force =    -0.00877400   -0.03742036    0.77203736
     atom   15 type  1   force =     0.00454543   -0.01370693   -0.15754472
     atom   16 type  1   force =     0.71376776    1.23615282   -0.00168514
     atom   17 type  1   force =     0.24760147    0.42787408    0.00213625
     atom   18 type  2   force =    -0.08675137    1.20018456  -16.39631757
     atom   19 type  2   force =    -0.00184792    9.47969611   -9.80678707
     atom   20 type  2   force =     1.07279617   -0.62731514  -16.41586348
     atom   21 type  2   force =     8.26258628   -4.70531300   -9.75496255
     atom   22 type  2   force =     0.05312973    0.02806892  -15.28276069
     atom   23 type  2   force =     1.22831584    0.72655605  -12.79740532
     atom   24 type  2   force =    -0.66478830    0.32405634  -15.34975360
     atom   25 type  2   force =    -0.94959875    0.45266169  -13.19051073
     atom   26 type  2   force =    -1.13327172   -0.58042309  -16.40157820
     atom   27 type  2   force =    -8.26397834   -4.71716318   -9.76537164
     atom   28 type  2   force =     0.01155797   -0.78501203  -15.35686261
     atom   29 type  2   force =    -0.01606113   -1.04891755  -13.17178452
     atom   30 type  2   force =     0.74631089    0.34008922  -15.35242971
     atom   31 type  2   force =     0.97943518    0.46731312  -13.19934256
     atom   32 type  2   force =     0.05846774   -0.03783192  -15.31025865
     atom   33 type  2   force =     0.02826553   -1.34032253  -12.78792165
     atom   34 type  2   force =    -0.06594941    0.12187472  -15.29483688
     atom   35 type  2   force =    -1.21787710    0.76964790  -12.80850099
     atom   36 type  2   force =     8.20913355    4.73790289    9.79932549
     atom   37 type  2   force =     1.08338192    0.52604324   16.40315233
     atom   38 type  2   force =     0.86837693   -0.59744486   13.18389212
     atom   39 type  2   force =     0.61479675   -0.41525240   15.35630570
     atom   40 type  2   force =    -0.08663069    1.08218940   13.19285622
     atom   41 type  2   force =    -0.07988948    0.81748050   15.35889590
     atom   42 type  2   force =    -8.20575521    4.80333797    9.74784496
     atom   43 type  2   force =    -1.08087714    0.61817195   16.42262455
     atom   44 type  2   force =     0.04713363   -9.51425669    9.75753304
     atom   45 type  2   force =     0.06499549   -1.27273163   16.40865144
     atom   46 type  2   force =    -1.17288519   -0.64608916   12.78165738
     atom   47 type  2   force =    -0.05970777    0.03122289   15.31670810
     atom   48 type  2   force =     0.01626420    1.42631574   12.79138489
     atom   49 type  2   force =    -0.00154924    0.05935773   15.28914077
     atom   50 type  2   force =    -0.90204531   -0.53763188   13.16513807
     atom   51 type  2   force =    -0.68866297   -0.38318815   15.36347869
     atom   52 type  2   force =     1.27565099   -0.67030068   12.80245952
     atom   53 type  2   force =     0.13768516    0.00339838   15.30088795
     The local contribution  to forces
     atom    1 type  1   force =    -0.01066009   -0.01768871   -0.00427229
     atom    2 type  1   force =    -0.81506101    1.36774446    0.09598966
     atom    3 type  1   force =    -0.25494988    0.43480014    0.10313336
     atom    4 type  1   force =     0.75164139   -1.34861878    0.07442180
     atom    5 type  1   force =     0.23419504   -0.43399982   -0.01407481
     atom    6 type  1   force =     1.59249816   -0.02211607   -0.09083131
     atom    7 type  1   force =     0.50471329   -0.00379990   -0.10806468
     atom    8 type  1   force =     0.79928962    1.38494007    0.00126480
     atom    9 type  1   force =     0.25817599    0.44810123   -0.00377838
     atom   10 type  1   force =     0.02759164    0.02576868    0.74030310
     atom   11 type  1   force =     0.01375624    0.00331034   -0.15416472
     atom   12 type  1   force =    -1.54341167   -0.02342994   -0.06898971
     atom   13 type  1   force =    -0.49303288   -0.01480277    0.01073074
     atom   14 type  1   force =     0.00883113    0.03596862   -0.73364046
     atom   15 type  1   force =    -0.00403577    0.01294506    0.15107752
     atom   16 type  1   force =    -0.74587345   -1.29174793    0.00179204
     atom   17 type  1   force =    -0.24761940   -0.42793777   -0.00222002
     atom   18 type  2   force =     0.08682173   -1.19905905   16.14769559
     atom   19 type  2   force =     0.00251096   -9.34344081    9.63112634
     atom   20 type  2   force =    -1.07190416    0.62685935   16.16742327
     atom   21 type  2   force =    -8.14416657    4.63798620    9.57986819
     atom   22 type  2   force =    -0.05336916   -0.02828750   15.03882143
     atom   23 type  2   force =    -1.20222160   -0.71125030   12.59344130
     atom   24 type  2   force =     0.66181871   -0.32227596   15.09611334
     atom   25 type  2   force =     0.96052837   -0.45892013   12.97047476
     atom   26 type  2   force =     1.13237205    0.57988730   16.15309984
     atom   27 type  2   force =     8.14553853    4.64913205    9.59080060
     atom   28 type  2   force =    -0.01157889    0.78155421   15.10336142
     atom   29 type  2   force =     0.01597519    1.06162311   12.95181399
     atom   30 type  2   force =    -0.74333475   -0.33827662   15.09877806
     atom   31 type  2   force =    -0.99013877   -0.47337487   12.97910877
     atom   32 type  2   force =    -0.05846488    0.03811951   15.06636722
     atom   33 type  2   force =    -0.02803831    1.31082372   12.58388451
     atom   34 type  2   force =     0.06625602   -0.12214142   15.05092084
     atom   35 type  2   force =     1.19208467   -0.75424766   12.60449148
     atom   36 type  2   force =    -8.09146807   -4.66922569   -9.62352494
     atom   37 type  2   force =    -1.08245461   -0.52542006  -16.15465452
     atom   38 type  2   force =    -0.87925047    0.60376897  -12.96372002
     atom   39 type  2   force =    -0.61177815    0.41357282  -15.10278266
     atom   40 type  2   force =     0.08674136   -1.09447623  -12.97251795
     atom   41 type  2   force =     0.07997315   -0.81400686  -15.10537450
     atom   42 type  2   force =     8.08824096   -4.73445208   -9.57265624
     atom   43 type  2   force =     1.08004674   -0.61761987  -16.17431844
     atom   44 type  2   force =    -0.04681323    9.37769036   -9.58282793
     atom   45 type  2   force =    -0.06500628    1.27169866  -16.16028812
     atom   46 type  2   force =     1.14724294    0.63154664  -12.57751569
     atom   47 type  2   force =     0.05995628   -0.03106888  -15.07293353
     atom   48 type  2   force =    -0.01604923   -1.39607948  -12.58729851
     atom   49 type  2   force =     0.00147068   -0.05967929  -15.04531440
     atom   50 type  2   force =     0.91307635    0.54389853  -12.94507134
     atom   51 type  2   force =     0.68567455    0.38144686  -15.11010356
     atom   52 type  2   force =    -1.24941089    0.65566491  -12.59832813
     atom   53 type  2   force =    -0.13807257   -0.00326925  -15.05708655
     The core correction contribution to forces
     atom    1 type  1   force =     0.00000604    0.00001011    0.00000095
     atom    2 type  1   force =    -0.00052965    0.00093610   -0.00003307
[...]
              0.279448033839175E+03
              0.468250460841689E+02
             -0.431178136858894E+02
              0.513351976171134E+01
             -0.282600333333809E+02
              0.229426296422394E+03
             -0.131160308169508E+02
              0.493284791818922E+02
              0.165472422955353E+03
              0.363277372483610E+02
             -0.130608905223731E+03
             -0.190288184420570E+03
              0.201851538845881E+01
             -0.214046042563684E+03
              0.725916846193986E+02
             -0.433475483287423E+02
             -0.100448844829814E+03
              0.903830815709346E+02
              0.347032616708268E+02
              0.815543014870658E+02
              0.721679751749218E+01
              0.129831256134034E+03
             -0.212244964676919E+03
             -0.194290711076239E+02
             -0.185082666881773E+03
              0.334019378701830E+02
              0.100223602821456E+03
             -0.184570328898197E+02
             -0.696903442398536E+02
              0.149119092408277E+03
             -0.691801505254301E+02
              0.485639532151611E+02
             -0.434055492114433E+02
              0.106472315638332E+03
              0.128553431499241E+03
             -0.554338404757991E+02
              0.110691390729631E+03
              0.424581735348484E+02
             -0.114106004607196E+03
             -0.682211551077481E+02
              0.183957784613743E+03
              0.871630424317735E+02
             -0.839726413593149E+01
             -0.246958603461239E+02
              0.270415533177187E+03
              0.162134413885137E+03
              0.594380748102199E+02
             -0.173207830025267E+03
              0.271375034387625E+03
             -0.122722740708022E+03
             -0.152172692657750E+03
             -0.235654589674850E+03
              0.113597079116448E+03
             -0.215634286788645E+03
              0.935461791590587E+02
              0.153551000521376E+03
              0.113807438145506E+03
              0.241467093557870E+02
              0.678004804803739E+02
             -0.169979066933789E+03
             -0.604581229341738E+02
             -0.547534249473767E+02
              0.821161641355192E+02
              0.183237022335121E+03
              0.180690846374177E+03
              0.138284725797887E+03
             -0.341319374057284E+02
              0.491012841065035E+02
              0.688219837542454E+01
             -0.542961018517159E+02
              0.810181143105809E+02
              0.775335787711774E+02
             -0.110683196293219E+03
             -0.112103371477817E+03
             -0.513669971061641E+02
              0.119066634606163E+03
              0.606302817178039E+02
             -0.811338141505790E+02
             -0.141224977122326E+03
             -0.194004921758004E+03
              0.404420386371459E+01
              0.552210458940588E+02
             -0.750565957157929E+02
              0.275609283340506E+03
              0.257278421890919E+01
             -0.320129139626841E+03
              0.802871479025480E+02
              0.132138850785583E+03
             -0.480246660989891E+02
              0.509437590289730E+01
             -0.723979878676582E+02
              0.122913080923602E+03
              0.607126526287062E+02
             -0.161781422450911E+03
              0.192102196437067E+03
              0.130149037703082E+02
             -0.767269997395956E+02
             -0.945937383600868E+02
              0.385147245716075E+03
              0.172135173628999E+03
             -0.431906280540968E+02
              0.950191463187798E+02
             -0.187723682890365E+03
             -0.407034770192454E+02
             -0.166839787788777E+03
              0.644776187575335E+02
              0.119729163738010E+03
              0.131675026839555E+03
             -0.577098751382382E+02
              0.998451424102632E+01
              0.164091376395890E+03
              0.525051748369519E+02
              0.977781986677445E+02
              0.397704817566009E+02
             -0.220323079662170E+02
              0.420378847953657E+00
             -0.305288438253834E+02
              0.340035096408974E+02
              0.113958980815323E+02
             -0.149062187341850E+03
              0.228348347400612E+03
              0.878439920697782E+02
             -0.161833114982548E+03
             -0.118869205924613E+03
             -0.167852501755304E+03
             -0.728024055564308E+02
             -0.527665493836671E+02
             -0.132823765572683E+03
             -0.131091121842862E+03
              0.157826021907039E+03
              0.125630446428930E+03
             -0.173388991517245E+02
              0.188623751023292E+03
              0.272476075639615E+02
             -0.303063992446007E+03
              0.162707878163696E+03
              0.277681418361527E+02
              0.127799482200532E+03
              0.172722927422354E+02
              0.143483250953307E+02
              0.259985160351049E+02
              0.690347857920378E+02
             -0.126477486270762E+03
             -0.596733611489217E+02
             -0.119518476315417E+03
             -0.989890610778614E+02
              0.412103500153371E+02
             -0.109774273489630E+03
              0.529198323858424E+02
              0.726798119519532E+02
             -0.672725662726884E+02
             -0.429485826312792E+02
              0.280187288205525E+01
              0.188400695166869E+03
              0.285187663688776E+02
              0.180850574145288E+03
              0.647741213428428E+02
             -0.239126373957308E+03
             -0.793019334950758E+02
              0.815289529867575E+02
              0.188110756343908E+03
              0.310776360280099E+02
              0.773108709256965E+02
              0.173131734988976E+03
             -0.100273409647109E+03
             -0.153849544928301E+03
              0.213369002010883E+03
              0.123742583881290E+02
             -0.225551827112516E+03
              0.823789280860055E+02
              0.142776027204576E+03
             -0.365069875522697E+02
             -0.148662542438038E+03
              0.309803996152147E+02
              0.638923389536558E+01
             -0.722573643332950E+02
              0.276596217884712E+02
             -0.241163090980576E+02
              0.335558723815594E+03
              0.976835461096782E+02
             -0.142120703810369E+03
              0.420081073597489E+02
              0.204305768103401E+03
             -0.138073976241922E+03
             -0.359258008016935E+02
             -0.130598671272025E+03
              0.104607785609043E+03
              0.331325188175747E+02
              0.691654172090084E+02
              0.125412526172553E+02
              0.237345889463568E+03
             -0.134935010710275E+03
             -0.106606269085680E+03
             -0.102907925611424E+03
              0.903986870686385E+02
              0.235857325357880E+03
             -0.394334195154165E+02
              0.965322307016912E+02
             -0.137063971730866E+03
              0.262754791823302E+02
             -0.439010871317628E+02
              0.955746415674548E+01
             -0.531172713121824E+02
             -0.433416796134120E+02
             -0.425446551100753E+02
              0.351089701191752E+02
              0.685734895082214E+02
             -0.149427552305148E+03
              0.110657277407062E+03
             -0.178138482462323E+03
              0.134469071127852E+03
             -0.142088177619415E+03
              0.230268084249195E+03
              0.126505767650313E+03
              0.145583434295829E+03
              0.361368431379410E+02
              0.425052787443042E+02
             -0.318072480276369E+03
              0.517000585542502E+02
              0.116993195233288E+02
              0.303686641605345E+02
             -0.519309958120110E+02
              0.245895560882542E+03
             -0.571383500771447E+02
             -0.101667644421373E+03
             -0.238041622736542E+03
             -0.826037403998553E+02
             -0.114189418095632E+03
             -0.992543877967377E+02
             -0.224199275386504E+02
             -0.543768240330908E+02
             -0.690477580461924E+02
             -0.105898879623228E+03
              0.810721268450006E+02
              0.255480432673276E+03
              0.215866619099824E+03
             -0.383313206140683E+02
             -0.259555515592096E+03
             -0.110621312905693E+03
              0.530768249745124E+02
              0.530796362742303E+02
              0.848296804486870E+02
              0.596237584223229E+02
              0.105649146440419E+02
              0.253574088733980E+03
             -0.616597977571021E+02
              0.124584502391948E+03
              0.640177329088895E+02
             -0.863283048420383E+02
             -0.413642966579359E+02
              0.114888120723847E+03
             -0.613299224718294E+02
             -0.376906701317829E+02
             -0.279485973611198E+02
              0.147953786900912E+03
             -0.194550044299532E+03
             -0.155858321096109E+02
             -0.150144238840206E+03
             -0.319060537830720E+03
             -0.797537750243919E+00
             -0.470406114196938E+02
              0.123993298612811E+03
              0.137911905281557E+03
              0.188587219163156E+03
             -0.122657128170299E+03
              0.190623968894675E+03
              0.476415813506089E+02
             -0.707321387417439E+02
              0.254591138959622E+02
             -0.602607760266256E+02
             -0.356446971773380E+02
              0.110079373949304E+03
             -0.911728983059085E+02
              0.244586086992392E+03
             -0.652463574220701E+02
             -0.135140863082753E+03
              0.255778413166757E+03
             -0.138433588412470E+03
             -0.111695374858782E+02
              0.134896402283797E+02
              0.738692446156526E+02
             -0.108101429719156E+03
             -0.823664385305888E+02
              0.131376634447013E+03
             -0.197595608168608E+03
              0.163005021777456E+03
              0.240975722095526E+02
              0.116777738669477E+03
              0.169268841468987E+03
              0.433147608114033E+02
             -0.235149456006164E+03
             -0.101770915505476E+03
             -0.169719308205495E+03
             -0.101013678058493E+03
             -0.269125706418376E+02
              0.363986443992502E+02
             -0.792193321678544E+02
             -0.137587568945401E+01
             -0.236224436252781E+03
              0.132308345330413E+02
             -0.152306166365079E+03
              0.147638470746338E+03
             -0.866029835803905E+02
             -0.208260640126388E+02
              0.111431678344110E+03
              0.220124522651898E+02
              0.103584554004338E+03
             -0.197396231142222E+03
              0.328356837672545E+02
              0.135142640976555E+02
              0.849562803907989E+02
              0.136224790408331E+03
             -0.251626200215320E+02
             -0.155130180191334E+03
             -0.895871182503290E+02
             -0.633159832933593E+02
             -0.186908439315439E+02
              0.144647661655871E+03
              0.938885359921705E+02
             -0.951368069887876E+02
             -0.892392401980433E+02
              0.655219537996850E+02
              0.713589112768306E+02
             -0.192748421371622E+03
              0.449730336764011E+02
              0.138317062384132E+03
             -0.613171296771955E+01
              0.174102877153235E+03
              0.804641577360995E+02
              0.137083194152927E+03
              0.208305277224812E+03
              0.314383768513794E+02
             -0.283962474003628E+03
              0.391854736294946E+02
              0.306948107138090E+03
              0.223119299954739E+03
             -0.153852710809982E+03
              0.138640909165579E+02
              0.199678827257438E+03
              0.173104810487744E+03
              0.760841547769717E+02
             -0.460312788065764E+02
              0.763963833354299E+02
              0.158206078267853E+03
             -0.731029526181983E+02
             -0.470561126237006E+02
              0.107141211537008E+03
             -0.648126684182409E+01
              0.961130859532606E+02
             -0.298065522469701E+02
              0.200562571748829E+03
             -0.765678914447626E+02
              0.460194898375947E+02
             -0.850544091965019E+02
              0.992962715378294E+02
             -0.134804761034630E+02
              0.147928279199340E+03
              0.105873573845666E+02
              0.661706781925644E+02
             -0.940200393611111E+02
             -0.658100469540031E+02
             -0.335475731926986E+02
             -0.305442111664138E+02
              0.160999805866167E+03
              0.792140266516399E+02
              0.195454225554377E+03
              0.180358467771359E+03
              0.505799252966119E+02
              0.913506340965205E+01
              0.192242027893060E+03
              0.108050300150483E+03
              0.999544257072102E-01
              0.187204809440977E+03
             -0.153668491164588E+03
              0.538746876054996E+02
             -0.100082579446716E+03
             -0.272019077366151E+02
              0.258893650676263E+03
             -0.362665933914695E+02
             -0.107614921754227E+02
             -0.281977879673869E+02
              0.212657347448525E+03
             -0.456735086770541E+02
             -0.391161641290807E+01
              0.429116499659665E+03
             -0.127033064606216E+03
             -0.158490117822398E+03
             -0.158659733671500E+03
             -0.101353731446338E+03
              0.923627518657727E+02
             -0.415029802563147E+02
              0.235232394713030E+02
             -0.107737431180562E+02
              0.543368118333623E+02
              0.873584823399815E+02
              0.101780479799966E+03
              0.146472751320674E+03
              0.938488741943685E+02
              0.956657472485103E+02
             -0.177022390413847E+03
             -0.182811478237305E+03
             -0.412240111140735E+02
             -0.163434322487890E+03
              0.259465584791011E+03
              0.218594625296282E+03
              0.103075247844405E+03
              0.284183872941308E+03
             -0.142052398222799E+03
             -0.611450469220526E+02
             -0.881241077252477E+02
              0.245805621071055E+03
 
 BEEF-vdW xc energy contributions
            1 :    -2222.185851359195     
            2 :     2036.259328019047     
            3 :    -1719.268127125972     
            4 :     1355.659354635790     
            5 :    -1024.848274512461     
            6 :     775.7458044364166     
            7 :    -618.9209281617891     
            8 :     533.8724740769867     
            9 :    -484.5387423511074     
           10 :     436.5386793571856     
           11 :    -370.3441363840770     
           12 :     285.7316376902368     
           13 :    -196.5808478929389     
           14 :     120.1456159594377     
           15 :    -67.34008775814209     
           16 :     38.58695733750619     
           17 :    -25.67603260064925     
           18 :     17.17232840112501     
           19 :    -4.233078693937841     
           20 :    -15.69364857349592     
           21 :     38.70754408254061     
           22 :    -57.67083726161081     
           23 :     66.89917553841997     
           24 :    -65.60603674335698     
           25 :     58.24110347423539     
           26 :    -51.83283274184032     
           27 :     52.09569584460087     
           28 :    -60.46459067736851     
           29 :     73.48694948911452     
           30 :    -84.75448147028010     
           31 :    -190.9380534412189     
           32 :    -137.3083867779228     

     Writing all to output data dir ./PbI2.save/
 
     init_run     :      9.42s CPU      9.91s WALL (       1 calls)
     electrons    :    638.97s CPU    649.36s WALL (       1 calls)
     forces       :      5.24s CPU      5.38s WALL (       1 calls)
     stress       :     71.55s CPU     72.16s WALL (       1 calls)

     Called by init_run:
     wfcinit      :      6.76s CPU      7.01s WALL (       1 calls)
     wfcinit:atom :      0.06s CPU      0.07s WALL (       2 calls)
     wfcinit:wfcr :      6.46s CPU      6.58s WALL (       2 calls)
     potinit      :      1.01s CPU      1.18s WALL (       1 calls)
     hinit0       :      0.52s CPU      0.55s WALL (       1 calls)

     Called by electrons:
     c_bands      :    623.12s CPU    632.85s WALL (       5 calls)
     sum_band     :     11.79s CPU     12.16s WALL (       5 calls)
     v_of_rho     :      3.08s CPU      3.21s WALL (       5 calls)
     v_h          :      0.03s CPU      0.03s WALL (       5 calls)
     v_xc         :     22.33s CPU     22.74s WALL (      41 calls)
     newd         :      0.92s CPU      0.94s WALL (       5 calls)
     PAW_pot      :      0.79s CPU      0.80s WALL (       5 calls)
     mix_rho      :      0.06s CPU      0.06s WALL (       5 calls)
     vdW_kernel   :      0.24s CPU      0.25s WALL (       1 calls)

     Called by c_bands:
     init_us_2    :      0.86s CPU      0.91s WALL (      26 calls)
     init_us_2:cp :      0.86s CPU      0.91s WALL (      26 calls)
     cegterg      :    620.53s CPU    627.54s WALL (      13 calls)

     Called by sum_band:
     sum_band:wei :      0.01s CPU      0.01s WALL (       5 calls)
     sum_band:loo :     10.71s CPU     10.83s WALL (       5 calls)
     sum_band:buf :      0.28s CPU      0.28s WALL (      10 calls)
     sum_band:ini :      0.41s CPU      0.41s WALL (      10 calls)
     sum_band:cal :      4.05s CPU      4.08s WALL (      10 calls)
     sum_band:bec :      0.06s CPU      0.06s WALL (      10 calls)
     addusdens    :      0.95s CPU      1.15s WALL (       5 calls)
     addusd:skk   :      0.03s CPU      0.03s WALL (      10 calls)
     addusd:dgemm :      0.57s CPU      0.76s WALL (      10 calls)
     addusd:qvan2 :      0.32s CPU      0.33s WALL (      10 calls)

     Called by *egterg:
     cdiaghg      :    394.81s CPU    397.01s WALL (     206 calls)
     cegterg:over :     47.72s CPU     48.62s WALL (     198 calls)
     cegterg:upda :     30.67s CPU     31.38s WALL (     198 calls)
     cegterg:last :     16.45s CPU     16.58s WALL (      17 calls)
     h_psi        :    101.34s CPU    103.12s WALL (     213 calls)
     s_psi        :     20.96s CPU     21.14s WALL (     213 calls)
     g_psi        :      0.16s CPU      0.16s WALL (     198 calls)

     Called by h_psi:
     h_psi:calbec :     22.82s CPU     23.03s WALL (     213 calls)
     vloc_psi     :     56.54s CPU     57.24s WALL (     213 calls)
     add_vuspsi   :     21.03s CPU     21.24s WALL (     213 calls)

     General routines
     calbec       :     31.38s CPU     31.66s WALL (     233 calls)
     fft          :      9.68s CPU      9.82s WALL (    2421 calls)
     ffts         :      0.03s CPU      0.03s WALL (      10 calls)
     fftw         :     58.19s CPU     58.93s WALL (   55300 calls)
     interpolate  :      0.04s CPU      0.04s WALL (       5 calls)
 
     Parallel routines

     PAW routines
     PAW_pot      :      0.79s CPU      0.80s WALL (       5 calls)
 
     PWSCF        :  12m26.00s CPU  12m43.24s WALL

 
   This run was terminated on:  15:12:10  18Feb2024            

=------------------------------------------------------------------------------=
   JOB DONE.
=------------------------------------------------------------------------------=
