
     Program PWSCF v.7.1 starts on 12Mar2024 at 12:11:21 

     This program is part of the open-source Quantum ESPRESSO suite
     for quantum simulation of materials; please cite
         "P. Giannozzi et al., J. Phys.:Condens. Matter 21 395502 (2009);
         "P. Giannozzi et al., J. Phys.:Condens. Matter 29 465901 (2017);
         "P. Giannozzi et al., J. Chem. Phys. 152 154105 (2020);
          URL http://www.quantum-espresso.org", 
     in publications or presentations arising from this work. More details at
     http://www.quantum-espresso.org/quote

     Parallel version (MPI & OpenMP), running on     256 processor cores
     Number of MPI processes:               256
     Threads/MPI process:                     1

     MPI processes distributed on     2 nodes
     478920 MiB available memory on the printing compute node when the environment starts
 
     Reading input from espresso.pwi
Warning: card &CELL ignored
Warning: card    CELL_DYNAMICS    = 'BFGS' ignored
Warning: card / ignored

     Current dimensions of program PWSCF are:
     Max number of different atomic species (ntypx) = 10
     Max number of k-points (npk) =  40000
     Max angular momentum in pseudopotentials (lmaxx) =  4
     file Ga.pbe-dn-kjpaw_psl.1.0.0.UPF: wavefunction(s)  4S renormalized
     file N.pbe-n-kjpaw_psl.1.0.0.UPF: wavefunction(s)  2S renormalized

     **************************************************************************
     Initializing libbeef V0.1.2 with the BEEF-vdW functional.
     Citation: Wellendorff et al., PRB 85, 235149 (2012).
     **************************************************************************


     IMPORTANT: XC functional enforced from input :
     Exchange-correlation= BEEF-VDW
                           (   1   4  43  14   2   0   0)
     Any further DFT definition will be discarded
     Please, verify this is what you really want

 
     K-points division:     npool     =       4
     R & G space division:  proc/nbgrp/npool/nimage =      64
     Subspace diagonalization in iterative solution of the eigenvalue problem:
     a serial algorithm will be used

 
     Parallelization info
     --------------------
     sticks:   dense  smooth     PW     G-vecs:    dense   smooth      PW
     Min         354     283     73                42160    30167    3987
     Max         356     285     74                42163    30170    3996
     Sum       22693   18145   4705              2698283  1930731  255309
 
     Using Slab Decomposition
 


     bravais-lattice index     =            4
     lattice parameter (alat)  =      30.6565  a.u.
     unit-cell volume          =   24400.9461 (a.u.)^3
     number of atoms/cell      =          299
     number of atomic types    =            2
     number of electrons       =      2695.00
     number of Kohn-Sham states=         1618
     kinetic-energy cutoff     =      70.0000  Ry
     charge density cutoff     =     350.0000  Ry
     scf convergence threshold =      1.0E-07
     mixing beta               =       0.7000
     number of iterations used =            8  plain     mixing
     Exchange-correlation= BEEF-VDW
                           (   1   4  43  14   2   0   0)

     celldm(1)=  30.656540  celldm(2)=   0.000000  celldm(3)=   0.977927
     celldm(4)=   0.000000  celldm(5)=   0.000000  celldm(6)=   0.000000

     crystal axes: (cart. coord. in units of alat)
               a(1) = (   1.000000   0.000000   0.000000 )  
               a(2) = (  -0.500000   0.866025   0.000000 )  
               a(3) = (   0.000000   0.000000   0.977927 )  

     reciprocal axes: (cart. coord. in units 2 pi/alat)
               b(1) = (  1.000000  0.577350 -0.000000 )  
               b(2) = (  0.000000  1.154701  0.000000 )  
               b(3) = (  0.000000 -0.000000  1.022571 )  


     PseudoPot. # 1 for Ga read from file:
     /trace/group/acmegroup/atimmins/packages/espresso/pseudo/psl_1.0.0/pslibrary.1.0.0/pbe/PSEUDOPOTENTIALS/Ga.pbe-dn-kjpaw_psl.1.0.0.UPF
     MD5 check sum: cd2a01e492f15b435d17032472d8505c
     Pseudo is Projector augmented-wave + core cor, Zval = 13.0
     Generated using 'atomic' code by A. Dal Corso  v.7.1
     Shape of augmentation charge: PSQ
     Using radial grid of 1205 points,  6 beta functions with: 
                l(1) =   0
                l(2) =   0
                l(3) =   1
                l(4) =   1
                l(5) =   2
                l(6) =   2
     Q(r) pseudized with 0 coefficients 


     PseudoPot. # 2 for N  read from file:
     /trace/group/acmegroup/atimmins/packages/espresso/pseudo/psl_1.0.0/pslibrary.1.0.0/pbe/PSEUDOPOTENTIALS/N.pbe-n-kjpaw_psl.1.0.0.UPF
     MD5 check sum: f77f775694dac7e2c3fe1c82443d1a16
     Pseudo is Projector augmented-wave + core cor, Zval =  5.0
     Generated using 'atomic' code by A. Dal Corso  v.7.1
     Shape of augmentation charge: PSQ
     Using radial grid of 1085 points,  4 beta functions with: 
                l(1) =   0
                l(2) =   0
                l(3) =   1
                l(4) =   1
     Q(r) pseudized with 0 coefficients 


     atomic species   valence    mass     pseudopotential
        Ga            13.00    69.72300     Ga( 1.00)
        N              5.00    14.00700     N ( 1.00)

      2 Sym. Ops. (no inversion) found


                                    s                        frac. trans.

      isym =  1     identity                                     

 cryst.   s( 1) = (     1          0          0      )
                  (     0          1          0      )
                  (     0          0          1      )

 cart.    s( 1) = (  1.0000000  0.0000000  0.0000000 )
                  (  0.0000000  1.0000000  0.0000000 )
                  (  0.0000000  0.0000000  1.0000000 )


      isym =  2     inv. 180 deg rotation - cryst. axis [0,1,0]  

 cryst.   s( 2) = (     1          1          0      )
                  (     0         -1          0      )
                  (     0          0          1      )

 cart.    s( 2) = (  0.5000000  0.8660254  0.0000000 )
                  (  0.8660254 -0.5000000  0.0000000 )
                  (  0.0000000  0.0000000  1.0000000 )


     point group C_s (m)    
     there are  2 classes
     the character table:

       E     s    
A'     1.00  1.00
A''    1.00 -1.00

     the symmetry operations in each class and the name of the first element:

     E        1
          identity                                               
     s        2
          inv. 180 deg rotation - cryst. axis [0,1,0]            

   Cartesian axes

     site n.     atom                  positions (alat units)
         1           Ga  tau(   1) = (   0.1000001   0.0577350   0.1627148  )
         2           Ga  tau(   2) = (   0.1000001   0.0577350   0.4886906  )
         3           Ga  tau(   3) = (   0.1000001   0.0577350   0.8146665  )
         4           Ga  tau(   4) = (   0.0000001   0.2309401   0.1627148  )
         5           Ga  tau(   5) = (   0.0000001   0.2309401   0.4886906  )
         6           Ga  tau(   6) = (   0.0000001   0.2309401   0.8146665  )
         7           Ga  tau(   7) = (  -0.0999999   0.4041451   0.1627148  )
         8           Ga  tau(   8) = (  -0.0999999   0.4041451   0.4886906  )
         9           Ga  tau(   9) = (  -0.0999999   0.4041451   0.8146665  )
        10           Ga  tau(  10) = (  -0.1999999   0.5773502   0.1627148  )
        11           Ga  tau(  11) = (  -0.1999999   0.5773502   0.4886906  )
        12           Ga  tau(  12) = (  -0.1999999   0.5773502   0.8146665  )
        13           Ga  tau(  13) = (  -0.2999999   0.7505553   0.1627148  )
        14           Ga  tau(  14) = (  -0.2999999   0.7505553   0.4886906  )
        15           Ga  tau(  15) = (  -0.2999999   0.7505553   0.8146665  )
        16           Ga  tau(  16) = (   0.3000001   0.0577350   0.1627148  )
        17           Ga  tau(  17) = (   0.3000001   0.0577350   0.4886906  )
        18           Ga  tau(  18) = (   0.3000001   0.0577350   0.8146665  )
        19           Ga  tau(  19) = (   0.2000001   0.2309401   0.1627148  )
        20           Ga  tau(  20) = (   0.2000001   0.2309401   0.4886906  )
        21           Ga  tau(  21) = (   0.2000001   0.2309401   0.8146665  )
        22           Ga  tau(  22) = (   0.1000001   0.4041451   0.1627148  )
        23           Ga  tau(  23) = (   0.1000001   0.4041451   0.4886906  )
        24           Ga  tau(  24) = (   0.1000001   0.4041451   0.8146665  )
        25           Ga  tau(  25) = (   0.0000001   0.5773502   0.1627148  )
        26           Ga  tau(  26) = (   0.0000001   0.5773502   0.4886906  )
        27           Ga  tau(  27) = (   0.0000001   0.5773502   0.8146665  )
        28           Ga  tau(  28) = (  -0.0999999   0.7505553   0.1627148  )
        29           Ga  tau(  29) = (  -0.0999999   0.7505553   0.4886906  )
        30           Ga  tau(  30) = (  -0.0999999   0.7505553   0.8146665  )
        31           Ga  tau(  31) = (   0.5000001   0.0577350   0.1627148  )
        32           Ga  tau(  32) = (   0.5000001   0.0577350   0.4886906  )
        33           Ga  tau(  33) = (   0.5000001   0.0577350   0.8146665  )
        34           Ga  tau(  34) = (   0.4000001   0.2309401   0.1627148  )
        35           Ga  tau(  35) = (   0.4000001   0.2309401   0.4886906  )
        36           Ga  tau(  36) = (   0.4000001   0.2309401   0.8146665  )
        37           Ga  tau(  37) = (   0.3000001   0.4041451   0.1627148  )
        38           Ga  tau(  38) = (   0.3000001   0.4041451   0.4886906  )
        39           Ga  tau(  39) = (   0.3000001   0.4041451   0.8146665  )
        40           Ga  tau(  40) = (   0.2000001   0.5773502   0.1627148  )
        41           Ga  tau(  41) = (   0.2000001   0.5773502   0.4886906  )
        42           Ga  tau(  42) = (   0.2000001   0.5773502   0.8146665  )
        43           Ga  tau(  43) = (   0.1000001   0.7505553   0.1627148  )
        44           Ga  tau(  44) = (   0.1000001   0.7505553   0.4886906  )
        45           Ga  tau(  45) = (   0.1000001   0.7505553   0.8146665  )
        46           Ga  tau(  46) = (   0.7000001   0.0577350   0.1627148  )
        47           Ga  tau(  47) = (   0.7000001   0.0577350   0.4886906  )
        48           Ga  tau(  48) = (   0.7000001   0.0577350   0.8146665  )
        49           Ga  tau(  49) = (   0.6000001   0.2309401   0.1627148  )
        50           Ga  tau(  50) = (   0.6000001   0.2309401   0.4886906  )
        51           Ga  tau(  51) = (   0.6000001   0.2309401   0.8146665  )
        52           Ga  tau(  52) = (   0.5000001   0.4041451   0.1627148  )
        53           Ga  tau(  53) = (   0.5000001   0.4041451   0.4886906  )
        54           Ga  tau(  54) = (   0.5000001   0.4041451   0.8146665  )
        55           Ga  tau(  55) = (   0.4000001   0.5773502   0.1627148  )
        56           Ga  tau(  56) = (   0.4000001   0.5773502   0.4886906  )
        57           Ga  tau(  57) = (   0.4000001   0.5773502   0.8146665  )
        58           Ga  tau(  58) = (   0.3000001   0.7505553   0.1627148  )
        59           Ga  tau(  59) = (   0.3000001   0.7505553   0.4886906  )
        60           Ga  tau(  60) = (   0.3000001   0.7505553   0.8146665  )
        61           Ga  tau(  61) = (   0.9000001   0.0577350   0.1627148  )
        62           Ga  tau(  62) = (   0.9000001   0.0577350   0.4886906  )
        63           Ga  tau(  63) = (   0.9000001   0.0577350   0.8146665  )
        64           Ga  tau(  64) = (   0.8000001   0.2309401   0.1627148  )
        65           Ga  tau(  65) = (   0.8000001   0.2309401   0.4886906  )
        66           Ga  tau(  66) = (   0.8000001   0.2309401   0.8146665  )
        67           Ga  tau(  67) = (   0.7000001   0.4041451   0.1627148  )
        68           Ga  tau(  68) = (   0.7000001   0.4041451   0.4886906  )
        69           Ga  tau(  69) = (   0.7000001   0.4041451   0.8146665  )
        70           Ga  tau(  70) = (   0.6000001   0.5773502   0.1627148  )
        71           Ga  tau(  71) = (   0.6000001   0.5773502   0.4886906  )
        72           Ga  tau(  72) = (   0.6000001   0.5773502   0.8146665  )
        73           Ga  tau(  73) = (   0.5000001   0.7505553   0.1627148  )
        74           Ga  tau(  74) = (   0.5000001   0.7505553   0.4886906  )
        75           Ga  tau(  75) = (   0.5000001   0.7505553   0.8146665  )
        76           Ga  tau(  76) = (  -0.0000001   0.1154701   0.3257027  )
        77           Ga  tau(  77) = (  -0.0000001   0.1154701   0.6516786  )
        78           Ga  tau(  78) = (  -0.0000001   0.1154701   0.9776544  )
        79           Ga  tau(  79) = (  -0.1000001   0.2886752   0.3257027  )
        80           Ga  tau(  80) = (  -0.1000001   0.2886752   0.6516786  )
        81           Ga  tau(  81) = (  -0.1000001   0.2886752   0.9776544  )
        82           Ga  tau(  82) = (  -0.2000001   0.4618803   0.3257027  )
        83           Ga  tau(  83) = (  -0.2000001   0.4618803   0.6516786  )
        84           Ga  tau(  84) = (  -0.2000001   0.4618803   0.9776544  )
        85           Ga  tau(  85) = (  -0.3000001   0.6350854   0.3257027  )
        86           Ga  tau(  86) = (  -0.3000001   0.6350854   0.6516786  )
        87           Ga  tau(  87) = (  -0.3000001   0.6350854   0.9776544  )
        88           Ga  tau(  88) = (  -0.4000001   0.8082905   0.3257027  )
        89           Ga  tau(  89) = (  -0.4000001   0.8082905   0.6516786  )
        90           Ga  tau(  90) = (  -0.4000001   0.8082905   0.9776544  )
        91           Ga  tau(  91) = (   0.1999999   0.1154701   0.3257027  )
        92           Ga  tau(  92) = (   0.1999999   0.1154701   0.6516786  )
        93           Ga  tau(  93) = (   0.1999999   0.1154701   0.9776544  )
        94           Ga  tau(  94) = (   0.0999999   0.2886752   0.3257027  )
        95           Ga  tau(  95) = (   0.0999999   0.2886752   0.6516786  )
        96           Ga  tau(  96) = (   0.0999999   0.2886752   0.9776544  )
        97           Ga  tau(  97) = (  -0.0000001   0.4618803   0.3257027  )
        98           Ga  tau(  98) = (  -0.0000001   0.4618803   0.6516786  )
        99           Ga  tau(  99) = (  -0.0000001   0.4618803   0.9776544  )
       100           Ga  tau( 100) = (  -0.1000001   0.6350854   0.3257027  )
       101           Ga  tau( 101) = (  -0.1000001   0.6350854   0.6516786  )
       102           Ga  tau( 102) = (  -0.1000001   0.6350854   0.9776544  )
       103           Ga  tau( 103) = (  -0.2000001   0.8082905   0.3257027  )
       104           Ga  tau( 104) = (  -0.2000001   0.8082905   0.6516786  )
       105           Ga  tau( 105) = (  -0.2000001   0.8082905   0.9776544  )
       106           Ga  tau( 106) = (   0.3999999   0.1154701   0.3257027  )
       107           Ga  tau( 107) = (   0.3999999   0.1154701   0.6516786  )
       108           Ga  tau( 108) = (   0.3999999   0.1154701   0.9776544  )
       109           Ga  tau( 109) = (   0.2999999   0.2886752   0.3257027  )
       110           Ga  tau( 110) = (   0.2999999   0.2886752   0.6516786  )
       111           Ga  tau( 111) = (   0.2999999   0.2886752   0.9776544  )
       112           Ga  tau( 112) = (   0.1999999   0.4618803   0.3257027  )
       113           Ga  tau( 113) = (   0.1999999   0.4618803   0.6516786  )
       114           Ga  tau( 114) = (   0.1999999   0.4618803   0.9776544  )
       115           Ga  tau( 115) = (   0.0999999   0.6350854   0.3257027  )
       116           Ga  tau( 116) = (   0.0999999   0.6350854   0.6516786  )
       117           Ga  tau( 117) = (   0.0999999   0.6350854   0.9776544  )
       118           Ga  tau( 118) = (  -0.0000001   0.8082905   0.3257027  )
       119           Ga  tau( 119) = (  -0.0000001   0.8082905   0.6516786  )
       120           Ga  tau( 120) = (  -0.0000001   0.8082905   0.9776544  )
       121           Ga  tau( 121) = (   0.5999999   0.1154701   0.3257027  )
       122           Ga  tau( 122) = (   0.5999999   0.1154701   0.6516786  )
       123           Ga  tau( 123) = (   0.5999999   0.1154701   0.9776544  )
       124           Ga  tau( 124) = (   0.4999999   0.2886752   0.3257027  )
       125           Ga  tau( 125) = (   0.4999999   0.2886752   0.6516786  )
       126           Ga  tau( 126) = (   0.4999999   0.2886752   0.9776544  )
       127           Ga  tau( 127) = (   0.3999999   0.4618803   0.3257027  )
       128           Ga  tau( 128) = (   0.3999999   0.4618803   0.6516786  )
       129           Ga  tau( 129) = (   0.3999999   0.4618803   0.9776544  )
       130           Ga  tau( 130) = (   0.2999999   0.6350854   0.3257027  )
       131           Ga  tau( 131) = (   0.2999999   0.6350854   0.6516786  )
       132           Ga  tau( 132) = (   0.2999999   0.6350854   0.9776544  )
       133           Ga  tau( 133) = (   0.1999999   0.8082905   0.3257027  )
       134           Ga  tau( 134) = (   0.1999999   0.8082905   0.6516786  )
       135           Ga  tau( 135) = (   0.1999999   0.8082905   0.9776544  )
       136           Ga  tau( 136) = (   0.7999999   0.1154701   0.3257027  )
       137           Ga  tau( 137) = (   0.7999999   0.1154701   0.6516786  )
       138           Ga  tau( 138) = (   0.7999999   0.1154701   0.9776544  )
       139           Ga  tau( 139) = (   0.6999999   0.2886752   0.3257027  )
       140           Ga  tau( 140) = (   0.6999999   0.2886752   0.6516786  )
       141           Ga  tau( 141) = (   0.6999999   0.2886752   0.9776544  )
       142           Ga  tau( 142) = (   0.5999999   0.4618803   0.3257027  )
       143           Ga  tau( 143) = (   0.5999999   0.4618803   0.6516786  )
       144           Ga  tau( 144) = (   0.5999999   0.4618803   0.9776544  )
       145           Ga  tau( 145) = (   0.4999999   0.6350854   0.3257027  )
       146           Ga  tau( 146) = (   0.4999999   0.6350854   0.6516786  )
       147           Ga  tau( 147) = (   0.4999999   0.6350854   0.9776544  )
       148           Ga  tau( 148) = (   0.3999999   0.8082905   0.3257027  )
       149           Ga  tau( 149) = (   0.3999999   0.8082905   0.6516786  )
       150           Ga  tau( 150) = (   0.3999999   0.8082905   0.9776544  )
       151           N   tau( 151) = (   0.1000001   0.0577350   0.6114777  )
       152           N   tau( 152) = (   0.1000001   0.0577350   0.9374535  )
       153           N   tau( 153) = (   0.0000001   0.2309401   0.2855019  )
       154           N   tau( 154) = (   0.0000001   0.2309401   0.6114777  )
       155           N   tau( 155) = (   0.0000001   0.2309401   0.9374535  )
       156           N   tau( 156) = (  -0.0999999   0.4041451   0.2855019  )
       157           N   tau( 157) = (  -0.0999999   0.4041451   0.6114777  )
       158           N   tau( 158) = (  -0.0999999   0.4041451   0.9374535  )
       159           N   tau( 159) = (  -0.1999999   0.5773502   0.2855019  )
       160           N   tau( 160) = (  -0.1999999   0.5773502   0.6114777  )
       161           N   tau( 161) = (  -0.1999999   0.5773502   0.9374535  )
       162           N   tau( 162) = (  -0.2999999   0.7505553   0.2855019  )
       163           N   tau( 163) = (  -0.2999999   0.7505553   0.6114777  )
       164           N   tau( 164) = (  -0.2999999   0.7505553   0.9374535  )
       165           N   tau( 165) = (   0.3000001   0.0577350   0.2855019  )
       166           N   tau( 166) = (   0.3000001   0.0577350   0.6114777  )
       167           N   tau( 167) = (   0.3000001   0.0577350   0.9374535  )
       168           N   tau( 168) = (   0.2000001   0.2309401   0.2855019  )
       169           N   tau( 169) = (   0.2000001   0.2309401   0.6114777  )
       170           N   tau( 170) = (   0.2000001   0.2309401   0.9374535  )
       171           N   tau( 171) = (   0.1000001   0.4041451   0.2855019  )
       172           N   tau( 172) = (   0.1000001   0.4041451   0.6114777  )
       173           N   tau( 173) = (   0.1000001   0.4041451   0.9374535  )
       174           N   tau( 174) = (   0.0000001   0.5773502   0.2855019  )
       175           N   tau( 175) = (   0.0000001   0.5773502   0.6114777  )
       176           N   tau( 176) = (   0.0000001   0.5773502   0.9374535  )
       177           N   tau( 177) = (  -0.0999999   0.7505553   0.2855019  )
       178           N   tau( 178) = (  -0.0999999   0.7505553   0.6114777  )
       179           N   tau( 179) = (  -0.0999999   0.7505553   0.9374535  )
       180           N   tau( 180) = (   0.5000001   0.0577350   0.2855019  )
       181           N   tau( 181) = (   0.5000001   0.0577350   0.6114777  )
       182           N   tau( 182) = (   0.5000001   0.0577350   0.9374535  )
       183           N   tau( 183) = (   0.4000001   0.2309401   0.2855019  )
       184           N   tau( 184) = (   0.4000001   0.2309401   0.6114777  )
       185           N   tau( 185) = (   0.4000001   0.2309401   0.9374535  )
       186           N   tau( 186) = (   0.3000001   0.4041451   0.2855019  )
       187           N   tau( 187) = (   0.3000001   0.4041451   0.6114777  )
       188           N   tau( 188) = (   0.3000001   0.4041451   0.9374535  )
       189           N   tau( 189) = (   0.2000001   0.5773502   0.2855019  )
       190           N   tau( 190) = (   0.2000001   0.5773502   0.6114777  )
       191           N   tau( 191) = (   0.2000001   0.5773502   0.9374535  )
       192           N   tau( 192) = (   0.1000001   0.7505553   0.2855019  )
       193           N   tau( 193) = (   0.1000001   0.7505553   0.6114777  )
       194           N   tau( 194) = (   0.1000001   0.7505553   0.9374535  )
       195           N   tau( 195) = (   0.7000001   0.0577350   0.2855019  )
       196           N   tau( 196) = (   0.7000001   0.0577350   0.6114777  )
       197           N   tau( 197) = (   0.7000001   0.0577350   0.9374535  )
       198           N   tau( 198) = (   0.6000001   0.2309401   0.2855019  )
       199           N   tau( 199) = (   0.6000001   0.2309401   0.6114777  )
       200           N   tau( 200) = (   0.6000001   0.2309401   0.9374535  )
       201           N   tau( 201) = (   0.5000001   0.4041451   0.2855019  )
       202           N   tau( 202) = (   0.5000001   0.4041451   0.6114777  )
       203           N   tau( 203) = (   0.5000001   0.4041451   0.9374535  )
       204           N   tau( 204) = (   0.4000001   0.5773502   0.2855019  )
       205           N   tau( 205) = (   0.4000001   0.5773502   0.6114777  )
       206           N   tau( 206) = (   0.4000001   0.5773502   0.9374535  )
       207           N   tau( 207) = (   0.3000001   0.7505553   0.2855019  )
       208           N   tau( 208) = (   0.3000001   0.7505553   0.6114777  )
       209           N   tau( 209) = (   0.3000001   0.7505553   0.9374535  )
       210           N   tau( 210) = (   0.9000001   0.0577350   0.2855019  )
       211           N   tau( 211) = (   0.9000001   0.0577350   0.6114777  )
       212           N   tau( 212) = (   0.9000001   0.0577350   0.9374535  )
       213           N   tau( 213) = (   0.8000001   0.2309401   0.2855019  )
       214           N   tau( 214) = (   0.8000001   0.2309401   0.6114777  )
       215           N   tau( 215) = (   0.8000001   0.2309401   0.9374535  )
       216           N   tau( 216) = (   0.7000001   0.4041451   0.2855019  )
       217           N   tau( 217) = (   0.7000001   0.4041451   0.6114777  )
       218           N   tau( 218) = (   0.7000001   0.4041451   0.9374535  )
       219           N   tau( 219) = (   0.6000001   0.5773502   0.2855019  )
       220           N   tau( 220) = (   0.6000001   0.5773502   0.6114777  )
       221           N   tau( 221) = (   0.6000001   0.5773502   0.9374535  )
       222           N   tau( 222) = (   0.5000001   0.7505553   0.2855019  )
       223           N   tau( 223) = (   0.5000001   0.7505553   0.6114777  )
       224           N   tau( 224) = (   0.5000001   0.7505553   0.9374535  )
       225           N   tau( 225) = (  -0.0000001   0.1154701   0.1225140  )
       226           N   tau( 226) = (  -0.0000001   0.1154701   0.4484898  )
       227           N   tau( 227) = (  -0.0000001   0.1154701   0.7744656  )
       228           N   tau( 228) = (  -0.1000001   0.2886752   0.1225140  )
       229           N   tau( 229) = (  -0.1000001   0.2886752   0.4484898  )
       230           N   tau( 230) = (  -0.1000001   0.2886752   0.7744656  )
       231           N   tau( 231) = (  -0.2000001   0.4618803   0.1225140  )
       232           N   tau( 232) = (  -0.2000001   0.4618803   0.4484898  )
       233           N   tau( 233) = (  -0.2000001   0.4618803   0.7744656  )
       234           N   tau( 234) = (  -0.3000001   0.6350854   0.1225140  )
       235           N   tau( 235) = (  -0.3000001   0.6350854   0.4484898  )
       236           N   tau( 236) = (  -0.3000001   0.6350854   0.7744656  )
       237           N   tau( 237) = (  -0.4000001   0.8082905   0.1225140  )
       238           N   tau( 238) = (  -0.4000001   0.8082905   0.4484898  )
       239           N   tau( 239) = (  -0.4000001   0.8082905   0.7744656  )
       240           N   tau( 240) = (   0.1999999   0.1154701   0.1225140  )
       241           N   tau( 241) = (   0.1999999   0.1154701   0.4484898  )
       242           N   tau( 242) = (   0.1999999   0.1154701   0.7744656  )
       243           N   tau( 243) = (   0.0999999   0.2886752   0.1225140  )
       244           N   tau( 244) = (   0.0999999   0.2886752   0.4484898  )
       245           N   tau( 245) = (   0.0999999   0.2886752   0.7744656  )
       246           N   tau( 246) = (  -0.0000001   0.4618803   0.1225140  )
       247           N   tau( 247) = (  -0.0000001   0.4618803   0.4484898  )
       248           N   tau( 248) = (  -0.0000001   0.4618803   0.7744656  )
       249           N   tau( 249) = (  -0.1000001   0.6350854   0.1225140  )
       250           N   tau( 250) = (  -0.1000001   0.6350854   0.4484898  )
       251           N   tau( 251) = (  -0.1000001   0.6350854   0.7744656  )
       252           N   tau( 252) = (  -0.2000001   0.8082905   0.1225140  )
       253           N   tau( 253) = (  -0.2000001   0.8082905   0.4484898  )
       254           N   tau( 254) = (  -0.2000001   0.8082905   0.7744656  )
       255           N   tau( 255) = (   0.3999999   0.1154701   0.1225140  )
       256           N   tau( 256) = (   0.3999999   0.1154701   0.4484898  )
       257           N   tau( 257) = (   0.3999999   0.1154701   0.7744656  )
       258           N   tau( 258) = (   0.2999999   0.2886752   0.1225140  )
       259           N   tau( 259) = (   0.2999999   0.2886752   0.4484898  )
       260           N   tau( 260) = (   0.2999999   0.2886752   0.7744656  )
       261           N   tau( 261) = (   0.1999999   0.4618803   0.1225140  )
       262           N   tau( 262) = (   0.1999999   0.4618803   0.4484898  )
       263           N   tau( 263) = (   0.1999999   0.4618803   0.7744656  )
       264           N   tau( 264) = (   0.0999999   0.6350854   0.1225140  )
       265           N   tau( 265) = (   0.0999999   0.6350854   0.4484898  )
       266           N   tau( 266) = (   0.0999999   0.6350854   0.7744656  )
       267           N   tau( 267) = (  -0.0000001   0.8082905   0.1225140  )
       268           N   tau( 268) = (  -0.0000001   0.8082905   0.4484898  )
       269           N   tau( 269) = (  -0.0000001   0.8082905   0.7744656  )
       270           N   tau( 270) = (   0.5999999   0.1154701   0.1225140  )
       271           N   tau( 271) = (   0.5999999   0.1154701   0.4484898  )
       272           N   tau( 272) = (   0.5999999   0.1154701   0.7744656  )
       273           N   tau( 273) = (   0.4999999   0.2886752   0.1225140  )
       274           N   tau( 274) = (   0.4999999   0.2886752   0.4484898  )
       275           N   tau( 275) = (   0.4999999   0.2886752   0.7744656  )
       276           N   tau( 276) = (   0.3999999   0.4618803   0.1225140  )
       277           N   tau( 277) = (   0.3999999   0.4618803   0.4484898  )
       278           N   tau( 278) = (   0.3999999   0.4618803   0.7744656  )
       279           N   tau( 279) = (   0.2999999   0.6350854   0.1225140  )
       280           N   tau( 280) = (   0.2999999   0.6350854   0.4484898  )
       281           N   tau( 281) = (   0.2999999   0.6350854   0.7744656  )
       282           N   tau( 282) = (   0.1999999   0.8082905   0.1225140  )
       283           N   tau( 283) = (   0.1999999   0.8082905   0.4484898  )
       284           N   tau( 284) = (   0.1999999   0.8082905   0.7744656  )
       285           N   tau( 285) = (   0.7999999   0.1154701   0.1225140  )
       286           N   tau( 286) = (   0.7999999   0.1154701   0.4484898  )
       287           N   tau( 287) = (   0.7999999   0.1154701   0.7744656  )
       288           N   tau( 288) = (   0.6999999   0.2886752   0.1225140  )
       289           N   tau( 289) = (   0.6999999   0.2886752   0.4484898  )
       290           N   tau( 290) = (   0.6999999   0.2886752   0.7744656  )
       291           N   tau( 291) = (   0.5999999   0.4618803   0.1225140  )
       292           N   tau( 292) = (   0.5999999   0.4618803   0.4484898  )
       293           N   tau( 293) = (   0.5999999   0.4618803   0.7744656  )
       294           N   tau( 294) = (   0.4999999   0.6350854   0.1225140  )
       295           N   tau( 295) = (   0.4999999   0.6350854   0.4484898  )
       296           N   tau( 296) = (   0.4999999   0.6350854   0.7744656  )
       297           N   tau( 297) = (   0.3999999   0.8082905   0.1225140  )
       298           N   tau( 298) = (   0.3999999   0.8082905   0.4484898  )
       299           N   tau( 299) = (   0.3999999   0.8082905   0.7744656  )

   Crystallographic axes

     site n.     atom                  positions (cryst. coord.)
         1           Ga  tau(   1) = (  0.1333334  0.0666666  0.1663874  )
         2           Ga  tau(   2) = (  0.1333334  0.0666666  0.4997208  )
         3           Ga  tau(   3) = (  0.1333334  0.0666666  0.8330541  )
         4           Ga  tau(   4) = (  0.1333334  0.2666666  0.1663874  )
         5           Ga  tau(   5) = (  0.1333334  0.2666666  0.4997208  )
         6           Ga  tau(   6) = (  0.1333334  0.2666666  0.8330541  )
         7           Ga  tau(   7) = (  0.1333334  0.4666666  0.1663874  )
         8           Ga  tau(   8) = (  0.1333334  0.4666666  0.4997208  )
         9           Ga  tau(   9) = (  0.1333334  0.4666666  0.8330541  )
        10           Ga  tau(  10) = (  0.1333334  0.6666666  0.1663874  )
        11           Ga  tau(  11) = (  0.1333334  0.6666666  0.4997208  )
        12           Ga  tau(  12) = (  0.1333334  0.6666666  0.8330541  )
        13           Ga  tau(  13) = (  0.1333334  0.8666666  0.1663874  )
        14           Ga  tau(  14) = (  0.1333334  0.8666666  0.4997208  )
        15           Ga  tau(  15) = (  0.1333334  0.8666666  0.8330541  )
        16           Ga  tau(  16) = (  0.3333334  0.0666666  0.1663874  )
        17           Ga  tau(  17) = (  0.3333334  0.0666666  0.4997208  )
        18           Ga  tau(  18) = (  0.3333334  0.0666666  0.8330541  )
        19           Ga  tau(  19) = (  0.3333334  0.2666666  0.1663874  )
        20           Ga  tau(  20) = (  0.3333334  0.2666666  0.4997208  )
        21           Ga  tau(  21) = (  0.3333334  0.2666666  0.8330541  )
        22           Ga  tau(  22) = (  0.3333334  0.4666666  0.1663874  )
        23           Ga  tau(  23) = (  0.3333334  0.4666666  0.4997208  )
        24           Ga  tau(  24) = (  0.3333334  0.4666666  0.8330541  )
        25           Ga  tau(  25) = (  0.3333334  0.6666666  0.1663874  )
        26           Ga  tau(  26) = (  0.3333334  0.6666666  0.4997208  )
        27           Ga  tau(  27) = (  0.3333334  0.6666666  0.8330541  )
        28           Ga  tau(  28) = (  0.3333334  0.8666666  0.1663874  )
        29           Ga  tau(  29) = (  0.3333334  0.8666666  0.4997208  )
        30           Ga  tau(  30) = (  0.3333334  0.8666666  0.8330541  )
        31           Ga  tau(  31) = (  0.5333334  0.0666666  0.1663874  )
        32           Ga  tau(  32) = (  0.5333334  0.0666666  0.4997208  )
        33           Ga  tau(  33) = (  0.5333334  0.0666666  0.8330541  )
        34           Ga  tau(  34) = (  0.5333334  0.2666666  0.1663874  )
        35           Ga  tau(  35) = (  0.5333334  0.2666666  0.4997208  )
        36           Ga  tau(  36) = (  0.5333334  0.2666666  0.8330541  )
        37           Ga  tau(  37) = (  0.5333334  0.4666666  0.1663874  )
        38           Ga  tau(  38) = (  0.5333334  0.4666666  0.4997208  )
        39           Ga  tau(  39) = (  0.5333334  0.4666666  0.8330541  )
        40           Ga  tau(  40) = (  0.5333334  0.6666666  0.1663874  )
        41           Ga  tau(  41) = (  0.5333334  0.6666666  0.4997208  )
        42           Ga  tau(  42) = (  0.5333334  0.6666666  0.8330541  )
        43           Ga  tau(  43) = (  0.5333334  0.8666666  0.1663874  )
        44           Ga  tau(  44) = (  0.5333334  0.8666666  0.4997208  )
        45           Ga  tau(  45) = (  0.5333334  0.8666666  0.8330541  )
        46           Ga  tau(  46) = (  0.7333334  0.0666666  0.1663874  )
        47           Ga  tau(  47) = (  0.7333334  0.0666666  0.4997208  )
        48           Ga  tau(  48) = (  0.7333334  0.0666666  0.8330541  )
        49           Ga  tau(  49) = (  0.7333334  0.2666666  0.1663874  )
        50           Ga  tau(  50) = (  0.7333334  0.2666666  0.4997208  )
        51           Ga  tau(  51) = (  0.7333334  0.2666666  0.8330541  )
        52           Ga  tau(  52) = (  0.7333334  0.4666666  0.1663874  )
        53           Ga  tau(  53) = (  0.7333334  0.4666666  0.4997208  )
        54           Ga  tau(  54) = (  0.7333334  0.4666666  0.8330541  )
        55           Ga  tau(  55) = (  0.7333334  0.6666666  0.1663874  )
        56           Ga  tau(  56) = (  0.7333334  0.6666666  0.4997208  )
        57           Ga  tau(  57) = (  0.7333334  0.6666666  0.8330541  )
        58           Ga  tau(  58) = (  0.7333334  0.8666666  0.1663874  )
        59           Ga  tau(  59) = (  0.7333334  0.8666666  0.4997208  )
        60           Ga  tau(  60) = (  0.7333334  0.8666666  0.8330541  )
        61           Ga  tau(  61) = (  0.9333334  0.0666666  0.1663874  )
        62           Ga  tau(  62) = (  0.9333334  0.0666666  0.4997208  )
        63           Ga  tau(  63) = (  0.9333334  0.0666666  0.8330541  )
        64           Ga  tau(  64) = (  0.9333334  0.2666666  0.1663874  )
        65           Ga  tau(  65) = (  0.9333334  0.2666666  0.4997208  )
        66           Ga  tau(  66) = (  0.9333334  0.2666666  0.8330541  )
        67           Ga  tau(  67) = (  0.9333334  0.4666666  0.1663874  )
        68           Ga  tau(  68) = (  0.9333334  0.4666666  0.4997208  )
        69           Ga  tau(  69) = (  0.9333334  0.4666666  0.8330541  )
        70           Ga  tau(  70) = (  0.9333334  0.6666666  0.1663874  )
        71           Ga  tau(  71) = (  0.9333334  0.6666666  0.4997208  )
        72           Ga  tau(  72) = (  0.9333334  0.6666666  0.8330541  )
        73           Ga  tau(  73) = (  0.9333334  0.8666666  0.1663874  )
        74           Ga  tau(  74) = (  0.9333334  0.8666666  0.4997208  )
        75           Ga  tau(  75) = (  0.9333334  0.8666666  0.8330541  )
        76           Ga  tau(  76) = (  0.0666666  0.1333334  0.3330541  )
        77           Ga  tau(  77) = (  0.0666666  0.1333334  0.6663874  )
        78           Ga  tau(  78) = (  0.0666666  0.1333334  0.9997208  )
        79           Ga  tau(  79) = (  0.0666666  0.3333334  0.3330541  )
        80           Ga  tau(  80) = (  0.0666666  0.3333334  0.6663874  )
        81           Ga  tau(  81) = (  0.0666666  0.3333334  0.9997208  )
        82           Ga  tau(  82) = (  0.0666666  0.5333334  0.3330541  )
        83           Ga  tau(  83) = (  0.0666666  0.5333334  0.6663874  )
        84           Ga  tau(  84) = (  0.0666666  0.5333334  0.9997208  )
        85           Ga  tau(  85) = (  0.0666666  0.7333334  0.3330541  )
        86           Ga  tau(  86) = (  0.0666666  0.7333334  0.6663874  )
        87           Ga  tau(  87) = (  0.0666666  0.7333334  0.9997208  )
        88           Ga  tau(  88) = (  0.0666666  0.9333334  0.3330541  )
        89           Ga  tau(  89) = (  0.0666666  0.9333334  0.6663874  )
        90           Ga  tau(  90) = (  0.0666666  0.9333334  0.9997208  )
        91           Ga  tau(  91) = (  0.2666666  0.1333334  0.3330541  )
        92           Ga  tau(  92) = (  0.2666666  0.1333334  0.6663874  )
        93           Ga  tau(  93) = (  0.2666666  0.1333334  0.9997208  )
        94           Ga  tau(  94) = (  0.2666666  0.3333334  0.3330541  )
        95           Ga  tau(  95) = (  0.2666666  0.3333334  0.6663874  )
        96           Ga  tau(  96) = (  0.2666666  0.3333334  0.9997208  )
        97           Ga  tau(  97) = (  0.2666666  0.5333334  0.3330541  )
        98           Ga  tau(  98) = (  0.2666666  0.5333334  0.6663874  )
        99           Ga  tau(  99) = (  0.2666666  0.5333334  0.9997208  )
       100           Ga  tau( 100) = (  0.2666666  0.7333334  0.3330541  )
       101           Ga  tau( 101) = (  0.2666666  0.7333334  0.6663874  )
       102           Ga  tau( 102) = (  0.2666666  0.7333334  0.9997208  )
       103           Ga  tau( 103) = (  0.2666666  0.9333334  0.3330541  )
       104           Ga  tau( 104) = (  0.2666666  0.9333334  0.6663874  )
       105           Ga  tau( 105) = (  0.2666666  0.9333334  0.9997208  )
       106           Ga  tau( 106) = (  0.4666666  0.1333334  0.3330541  )
       107           Ga  tau( 107) = (  0.4666666  0.1333334  0.6663874  )
       108           Ga  tau( 108) = (  0.4666666  0.1333334  0.9997208  )
       109           Ga  tau( 109) = (  0.4666666  0.3333334  0.3330541  )
       110           Ga  tau( 110) = (  0.4666666  0.3333334  0.6663874  )
       111           Ga  tau( 111) = (  0.4666666  0.3333334  0.9997208  )
       112           Ga  tau( 112) = (  0.4666666  0.5333334  0.3330541  )
       113           Ga  tau( 113) = (  0.4666666  0.5333334  0.6663874  )
       114           Ga  tau( 114) = (  0.4666666  0.5333334  0.9997208  )
       115           Ga  tau( 115) = (  0.4666666  0.7333334  0.3330541  )
       116           Ga  tau( 116) = (  0.4666666  0.7333334  0.6663874  )
       117           Ga  tau( 117) = (  0.4666666  0.7333334  0.9997208  )
       118           Ga  tau( 118) = (  0.4666666  0.9333334  0.3330541  )
       119           Ga  tau( 119) = (  0.4666666  0.9333334  0.6663874  )
       120           Ga  tau( 120) = (  0.4666666  0.9333334  0.9997208  )
       121           Ga  tau( 121) = (  0.6666666  0.1333334  0.3330541  )
       122           Ga  tau( 122) = (  0.6666666  0.1333334  0.6663874  )
       123           Ga  tau( 123) = (  0.6666666  0.1333334  0.9997208  )
       124           Ga  tau( 124) = (  0.6666666  0.3333334  0.3330541  )
       125           Ga  tau( 125) = (  0.6666666  0.3333334  0.6663874  )
       126           Ga  tau( 126) = (  0.6666666  0.3333334  0.9997208  )
       127           Ga  tau( 127) = (  0.6666666  0.5333334  0.3330541  )
       128           Ga  tau( 128) = (  0.6666666  0.5333334  0.6663874  )
       129           Ga  tau( 129) = (  0.6666666  0.5333334  0.9997208  )
       130           Ga  tau( 130) = (  0.6666666  0.7333334  0.3330541  )
       131           Ga  tau( 131) = (  0.6666666  0.7333334  0.6663874  )
       132           Ga  tau( 132) = (  0.6666666  0.7333334  0.9997208  )
       133           Ga  tau( 133) = (  0.6666666  0.9333334  0.3330541  )
       134           Ga  tau( 134) = (  0.6666666  0.9333334  0.6663874  )
       135           Ga  tau( 135) = (  0.6666666  0.9333334  0.9997208  )
       136           Ga  tau( 136) = (  0.8666666  0.1333334  0.3330541  )
       137           Ga  tau( 137) = (  0.8666666  0.1333334  0.6663874  )
       138           Ga  tau( 138) = (  0.8666666  0.1333334  0.9997208  )
       139           Ga  tau( 139) = (  0.8666666  0.3333334  0.3330541  )
       140           Ga  tau( 140) = (  0.8666666  0.3333334  0.6663874  )
       141           Ga  tau( 141) = (  0.8666666  0.3333334  0.9997208  )
       142           Ga  tau( 142) = (  0.8666666  0.5333334  0.3330541  )
       143           Ga  tau( 143) = (  0.8666666  0.5333334  0.6663874  )
       144           Ga  tau( 144) = (  0.8666666  0.5333334  0.9997208  )
       145           Ga  tau( 145) = (  0.8666666  0.7333334  0.3330541  )
       146           Ga  tau( 146) = (  0.8666666  0.7333334  0.6663874  )
       147           Ga  tau( 147) = (  0.8666666  0.7333334  0.9997208  )
       148           Ga  tau( 148) = (  0.8666666  0.9333334  0.3330541  )
       149           Ga  tau( 149) = (  0.8666666  0.9333334  0.6663874  )
       150           Ga  tau( 150) = (  0.8666666  0.9333334  0.9997208  )
       151           N   tau( 151) = (  0.1333334  0.0666666  0.6252792  )
       152           N   tau( 152) = (  0.1333334  0.0666666  0.9586126  )
       153           N   tau( 153) = (  0.1333334  0.2666666  0.2919459  )
       154           N   tau( 154) = (  0.1333334  0.2666666  0.6252792  )
       155           N   tau( 155) = (  0.1333334  0.2666666  0.9586126  )
       156           N   tau( 156) = (  0.1333334  0.4666666  0.2919459  )
       157           N   tau( 157) = (  0.1333334  0.4666666  0.6252792  )
       158           N   tau( 158) = (  0.1333334  0.4666666  0.9586126  )
       159           N   tau( 159) = (  0.1333334  0.6666666  0.2919459  )
       160           N   tau( 160) = (  0.1333334  0.6666666  0.6252792  )
       161           N   tau( 161) = (  0.1333334  0.6666666  0.9586126  )
       162           N   tau( 162) = (  0.1333334  0.8666666  0.2919459  )
       163           N   tau( 163) = (  0.1333334  0.8666666  0.6252792  )
       164           N   tau( 164) = (  0.1333334  0.8666666  0.9586126  )
       165           N   tau( 165) = (  0.3333334  0.0666666  0.2919459  )
       166           N   tau( 166) = (  0.3333334  0.0666666  0.6252792  )
       167           N   tau( 167) = (  0.3333334  0.0666666  0.9586126  )
       168           N   tau( 168) = (  0.3333334  0.2666666  0.2919459  )
       169           N   tau( 169) = (  0.3333334  0.2666666  0.6252792  )
       170           N   tau( 170) = (  0.3333334  0.2666666  0.9586126  )
       171           N   tau( 171) = (  0.3333334  0.4666666  0.2919459  )
       172           N   tau( 172) = (  0.3333334  0.4666666  0.6252792  )
       173           N   tau( 173) = (  0.3333334  0.4666666  0.9586126  )
       174           N   tau( 174) = (  0.3333334  0.6666666  0.2919459  )
       175           N   tau( 175) = (  0.3333334  0.6666666  0.6252792  )
       176           N   tau( 176) = (  0.3333334  0.6666666  0.9586126  )
       177           N   tau( 177) = (  0.3333334  0.8666666  0.2919459  )
       178           N   tau( 178) = (  0.3333334  0.8666666  0.6252792  )
       179           N   tau( 179) = (  0.3333334  0.8666666  0.9586126  )
       180           N   tau( 180) = (  0.5333334  0.0666666  0.2919459  )
       181           N   tau( 181) = (  0.5333334  0.0666666  0.6252792  )
       182           N   tau( 182) = (  0.5333334  0.0666666  0.9586126  )
       183           N   tau( 183) = (  0.5333334  0.2666666  0.2919459  )
       184           N   tau( 184) = (  0.5333334  0.2666666  0.6252792  )
       185           N   tau( 185) = (  0.5333334  0.2666666  0.9586126  )
       186           N   tau( 186) = (  0.5333334  0.4666666  0.2919459  )
       187           N   tau( 187) = (  0.5333334  0.4666666  0.6252792  )
       188           N   tau( 188) = (  0.5333334  0.4666666  0.9586126  )
       189           N   tau( 189) = (  0.5333334  0.6666666  0.2919459  )
       190           N   tau( 190) = (  0.5333334  0.6666666  0.6252792  )
       191           N   tau( 191) = (  0.5333334  0.6666666  0.9586126  )
       192           N   tau( 192) = (  0.5333334  0.8666666  0.2919459  )
       193           N   tau( 193) = (  0.5333334  0.8666666  0.6252792  )
       194           N   tau( 194) = (  0.5333334  0.8666666  0.9586126  )
       195           N   tau( 195) = (  0.7333334  0.0666666  0.2919459  )
       196           N   tau( 196) = (  0.7333334  0.0666666  0.6252792  )
       197           N   tau( 197) = (  0.7333334  0.0666666  0.9586126  )
       198           N   tau( 198) = (  0.7333334  0.2666666  0.2919459  )
       199           N   tau( 199) = (  0.7333334  0.2666666  0.6252792  )
       200           N   tau( 200) = (  0.7333334  0.2666666  0.9586126  )
       201           N   tau( 201) = (  0.7333334  0.4666666  0.2919459  )
       202           N   tau( 202) = (  0.7333334  0.4666666  0.6252792  )
       203           N   tau( 203) = (  0.7333334  0.4666666  0.9586126  )
       204           N   tau( 204) = (  0.7333334  0.6666666  0.2919459  )
       205           N   tau( 205) = (  0.7333334  0.6666666  0.6252792  )
       206           N   tau( 206) = (  0.7333334  0.6666666  0.9586126  )
       207           N   tau( 207) = (  0.7333334  0.8666666  0.2919459  )
       208           N   tau( 208) = (  0.7333334  0.8666666  0.6252792  )
       209           N   tau( 209) = (  0.7333334  0.8666666  0.9586126  )
       210           N   tau( 210) = (  0.9333334  0.0666666  0.2919459  )
       211           N   tau( 211) = (  0.9333334  0.0666666  0.6252792  )
       212           N   tau( 212) = (  0.9333334  0.0666666  0.9586126  )
       213           N   tau( 213) = (  0.9333334  0.2666666  0.2919459  )
       214           N   tau( 214) = (  0.9333334  0.2666666  0.6252792  )
       215           N   tau( 215) = (  0.9333334  0.2666666  0.9586126  )
       216           N   tau( 216) = (  0.9333334  0.4666666  0.2919459  )
       217           N   tau( 217) = (  0.9333334  0.4666666  0.6252792  )
       218           N   tau( 218) = (  0.9333334  0.4666666  0.9586126  )
       219           N   tau( 219) = (  0.9333334  0.6666666  0.2919459  )
       220           N   tau( 220) = (  0.9333334  0.6666666  0.6252792  )
       221           N   tau( 221) = (  0.9333334  0.6666666  0.9586126  )
       222           N   tau( 222) = (  0.9333334  0.8666666  0.2919459  )
       223           N   tau( 223) = (  0.9333334  0.8666666  0.6252792  )
       224           N   tau( 224) = (  0.9333334  0.8666666  0.9586126  )
       225           N   tau( 225) = (  0.0666666  0.1333334  0.1252792  )
       226           N   tau( 226) = (  0.0666666  0.1333334  0.4586126  )
       227           N   tau( 227) = (  0.0666666  0.1333334  0.7919459  )
       228           N   tau( 228) = (  0.0666666  0.3333334  0.1252792  )
       229           N   tau( 229) = (  0.0666666  0.3333334  0.4586126  )
       230           N   tau( 230) = (  0.0666666  0.3333334  0.7919459  )
       231           N   tau( 231) = (  0.0666666  0.5333334  0.1252792  )
       232           N   tau( 232) = (  0.0666666  0.5333334  0.4586126  )
       233           N   tau( 233) = (  0.0666666  0.5333334  0.7919459  )
       234           N   tau( 234) = (  0.0666666  0.7333334  0.1252792  )
       235           N   tau( 235) = (  0.0666666  0.7333334  0.4586126  )
       236           N   tau( 236) = (  0.0666666  0.7333334  0.7919459  )
       237           N   tau( 237) = (  0.0666666  0.9333334  0.1252792  )
       238           N   tau( 238) = (  0.0666666  0.9333334  0.4586126  )
       239           N   tau( 239) = (  0.0666666  0.9333334  0.7919459  )
       240           N   tau( 240) = (  0.2666666  0.1333334  0.1252792  )
       241           N   tau( 241) = (  0.2666666  0.1333334  0.4586126  )
       242           N   tau( 242) = (  0.2666666  0.1333334  0.7919459  )
       243           N   tau( 243) = (  0.2666666  0.3333334  0.1252792  )
       244           N   tau( 244) = (  0.2666666  0.3333334  0.4586126  )
       245           N   tau( 245) = (  0.2666666  0.3333334  0.7919459  )
       246           N   tau( 246) = (  0.2666666  0.5333334  0.1252792  )
       247           N   tau( 247) = (  0.2666666  0.5333334  0.4586126  )
       248           N   tau( 248) = (  0.2666666  0.5333334  0.7919459  )
       249           N   tau( 249) = (  0.2666666  0.7333334  0.1252792  )
       250           N   tau( 250) = (  0.2666666  0.7333334  0.4586126  )
       251           N   tau( 251) = (  0.2666666  0.7333334  0.7919459  )
       252           N   tau( 252) = (  0.2666666  0.9333334  0.1252792  )
       253           N   tau( 253) = (  0.2666666  0.9333334  0.4586126  )
       254           N   tau( 254) = (  0.2666666  0.9333334  0.7919459  )
       255           N   tau( 255) = (  0.4666666  0.1333334  0.1252792  )
       256           N   tau( 256) = (  0.4666666  0.1333334  0.4586126  )
       257           N   tau( 257) = (  0.4666666  0.1333334  0.7919459  )
       258           N   tau( 258) = (  0.4666666  0.3333334  0.1252792  )
       259           N   tau( 259) = (  0.4666666  0.3333334  0.4586126  )
       260           N   tau( 260) = (  0.4666666  0.3333334  0.7919459  )
       261           N   tau( 261) = (  0.4666666  0.5333334  0.1252792  )
       262           N   tau( 262) = (  0.4666666  0.5333334  0.4586126  )
       263           N   tau( 263) = (  0.4666666  0.5333334  0.7919459  )
       264           N   tau( 264) = (  0.4666666  0.7333334  0.1252792  )
       265           N   tau( 265) = (  0.4666666  0.7333334  0.4586126  )
       266           N   tau( 266) = (  0.4666666  0.7333334  0.7919459  )
       267           N   tau( 267) = (  0.4666666  0.9333334  0.1252792  )
       268           N   tau( 268) = (  0.4666666  0.9333334  0.4586126  )
       269           N   tau( 269) = (  0.4666666  0.9333334  0.7919459  )
       270           N   tau( 270) = (  0.6666666  0.1333334  0.1252792  )
       271           N   tau( 271) = (  0.6666666  0.1333334  0.4586126  )
       272           N   tau( 272) = (  0.6666666  0.1333334  0.7919459  )
       273           N   tau( 273) = (  0.6666666  0.3333334  0.1252792  )
       274           N   tau( 274) = (  0.6666666  0.3333334  0.4586126  )
       275           N   tau( 275) = (  0.6666666  0.3333334  0.7919459  )
       276           N   tau( 276) = (  0.6666666  0.5333334  0.1252792  )
       277           N   tau( 277) = (  0.6666666  0.5333334  0.4586126  )
       278           N   tau( 278) = (  0.6666666  0.5333334  0.7919459  )
       279           N   tau( 279) = (  0.6666666  0.7333334  0.1252792  )
       280           N   tau( 280) = (  0.6666666  0.7333334  0.4586126  )
       281           N   tau( 281) = (  0.6666666  0.7333334  0.7919459  )
       282           N   tau( 282) = (  0.6666666  0.9333334  0.1252792  )
       283           N   tau( 283) = (  0.6666666  0.9333334  0.4586126  )
       284           N   tau( 284) = (  0.6666666  0.9333334  0.7919459  )
       285           N   tau( 285) = (  0.8666666  0.1333334  0.1252792  )
       286           N   tau( 286) = (  0.8666666  0.1333334  0.4586126  )
       287           N   tau( 287) = (  0.8666666  0.1333334  0.7919459  )
       288           N   tau( 288) = (  0.8666666  0.3333334  0.1252792  )
       289           N   tau( 289) = (  0.8666666  0.3333334  0.4586126  )
       290           N   tau( 290) = (  0.8666666  0.3333334  0.7919459  )
       291           N   tau( 291) = (  0.8666666  0.5333334  0.1252792  )
       292           N   tau( 292) = (  0.8666666  0.5333334  0.4586126  )
       293           N   tau( 293) = (  0.8666666  0.5333334  0.7919459  )
       294           N   tau( 294) = (  0.8666666  0.7333334  0.1252792  )
       295           N   tau( 295) = (  0.8666666  0.7333334  0.4586126  )
       296           N   tau( 296) = (  0.8666666  0.7333334  0.7919459  )
       297           N   tau( 297) = (  0.8666666  0.9333334  0.1252792  )
       298           N   tau( 298) = (  0.8666666  0.9333334  0.4586126  )
       299           N   tau( 299) = (  0.8666666  0.9333334  0.7919459  )

     number of k points=     6  Gaussian smearing, width (Ry)=  0.0100
                       cart. coord. in units 2pi/alat
        k(    1) = (   0.0000000   0.0000000   0.0000000), wk =   0.2500000
        k(    2) = (   0.0000000   0.0000000  -0.5112854), wk =   0.2500000
        k(    3) = (   0.0000000  -0.5773503   0.0000000), wk =   0.5000000
        k(    4) = (   0.0000000  -0.5773503  -0.5112854), wk =   0.5000000
        k(    5) = (  -0.5000000  -0.2886751   0.0000000), wk =   0.2500000
        k(    6) = (  -0.5000000  -0.2886751  -0.5112854), wk =   0.2500000

                       cryst. coord.
        k(    1) = (   0.0000000   0.0000000   0.0000000), wk =   0.2500000
        k(    2) = (   0.0000000   0.0000000  -0.5000000), wk =   0.2500000
        k(    3) = (   0.0000000  -0.5000000   0.0000000), wk =   0.5000000
        k(    4) = (   0.0000000  -0.5000000  -0.5000000), wk =   0.5000000
        k(    5) = (  -0.5000000  -0.0000000   0.0000000), wk =   0.2500000
        k(    6) = (  -0.5000000  -0.0000000  -0.5000000), wk =   0.2500000

     Dense  grid:  2698283 G-vectors     FFT dimensions: ( 192, 192, 180)

     Smooth grid:  1930731 G-vectors     FFT dimensions: ( 180, 180, 160)

     Dynamical RAM for                 wfc:      93.08 MB

     Dynamical RAM for     wfc (w. buffer):     279.23 MB

     Dynamical RAM for           str. fact:       1.29 MB

     Dynamical RAM for           local pot:       0.00 MB

     Dynamical RAM for          nlocal pot:     223.89 MB

     Dynamical RAM for                qrad:       3.00 MB

     Dynamical RAM for          rho,v,vnew:       4.46 MB

     Dynamical RAM for               rhoin:       1.49 MB

     Dynamical RAM for            rho*nmix:      10.29 MB

     Dynamical RAM for           G-vectors:       2.64 MB

     Dynamical RAM for          h,s,v(r/c):    1917.42 MB

     Dynamical RAM for          <psi|beta>:      96.09 MB

     Dynamical RAM for                 psi:     372.31 MB

     Dynamical RAM for                hpsi:     372.31 MB

     Dynamical RAM for                spsi:     372.31 MB

     Dynamical RAM for      wfcinit/wfcrot:     246.08 MB

     Dynamical RAM for           addusdens:      54.52 MB

     Dynamical RAM for          addusforce:     102.87 MB

     Dynamical RAM for         addusstress:      32.57 MB

     Estimated static dynamical RAM per process >     522.15 MB

     Estimated max dynamical RAM per process >       3.58 GB

     Estimated total dynamical RAM >     913.79 GB

     Atomic positions and unit cell read from directory:
     ./GaN.save/
     Atomic positions from file used, from input discarded
 

     Check: negative core charge=   -0.000003

     The initial density is read from file :
     ./GaN.save/charge-density



     %%%%%%%%%%%%%%%%%%%%%%%%%%%%%%%%%%%%%%%%%%%%%%%%%%%%%%%%%%%%%%%%%%%%%%%%
     %                                                                      %
     % You are using vdW-DF, which was implemented by the Thonhauser group. %
     % Please cite the following two papers that made this development      %
     % possible and the two reviews that describe the various versions:     %
     %                                                                      %
     %   T. Thonhauser et al., PRL 115, 136402 (2015).                      %
     %   T. Thonhauser et al., PRB 76, 125112 (2007).                       %
     %   K. Berland et al., Rep. Prog. Phys. 78, 066501 (2015).             %
     %   D.C. Langreth et al., J. Phys.: Condens. Matter 21, 084203 (2009). %
     %                                                                      %
     % If you are calculating stress with vdW-DF, please also cite:         %
     %                                                                      %
     %   R. Sabatini et al., J. Phys.: Condens. Matter 24, 424209 (2012).   %
     %                                                                      %
     %%%%%%%%%%%%%%%%%%%%%%%%%%%%%%%%%%%%%%%%%%%%%%%%%%%%%%%%%%%%%%%%%%%%%%%%

     %%%%%%%%%%%%%%%%%%%%%%%%%%%%%%%%%%%%%%%%%%%%%%%%%%%%%%%%%%%%%%%%%%%%%%%%
     %                                                                      %
     %  vdW-DF NEWS:                                                        %
     %                                                                      %
     %  * vdW-DF3 is now available. DOI: 10.1021/acs.jctc.0c00471           %
     %    use with input_dft = 'vdW-DF3-opt1' or 'vdW-DF3-opt2'             %
     %                                                                      %
     %  * Unscreened and range-separated vdW-DF hybrid functionals          %
     %    DOI: 10.1063/1.4986522 and 10.1088/1361-648X/ac2ad2               %
     %    use with input_dft = 'vdW-DF-cx0' (etc) and 'vdW-DF-ahcx'         %
     %                                                                      %
     %%%%%%%%%%%%%%%%%%%%%%%%%%%%%%%%%%%%%%%%%%%%%%%%%%%%%%%%%%%%%%%%%%%%%%%%


     Carrying out vdW-DF run using the following parameters:
     Nqs    =  20  Npoints =  1024  r_max =  100.000
     q_mesh =  0.00001000  0.04494208  0.09755937  0.15916263
               0.23128650  0.31572767  0.41458969  0.53033537
               0.66584808  0.82450364  1.01025438  1.22772762
               1.48234092  1.78043706  2.12944203  2.53805004
               3.01644009  3.57652955  4.23227104  5.00000000


     -----------------------------------------------
     Non-local corr. energy    =      81.67634407 Ry
     -----------------------------------------------

     Starting wfcs from file
     Checking if some PAW data can be deallocated... 
       PAW data deallocated on  149 nodes for type:  1
       PAW data deallocated on  107 nodes for type:  2

     total cpu time spent up to now is       43.4 secs

     Self-consistent Calculation

     iteration #  1     ecut=    70.00 Ry     beta= 0.70
     Davidson diagonalization with overlap

---- Real-time Memory Report at c_bands before calling an iterative solver
           550 MiB given to the printing process from OS
             0 MiB allocation reported by mallinfo(arena+hblkhd)
        427913 MiB available memory on the node where the printing process lives
------------------
     ethr =  1.00E-05,  avg # of iterations =  1.0

     Threshold (ethr) on eigenvalues was too large:
     Diagonalizing with lowered threshold

     Davidson diagonalization with overlap

---- Real-time Memory Report at c_bands before calling an iterative solver
          2329 MiB given to the printing process from OS
             0 MiB allocation reported by mallinfo(arena+hblkhd)
        415322 MiB available memory on the node where the printing process lives
------------------
     c_bands:  1 eigenvalues not converged
     ethr =  1.79E-13,  avg # of iterations = 19.7


     -----------------------------------------------
     Non-local corr. energy    =      81.67634417 Ry
     -----------------------------------------------


     total cpu time spent up to now is     2867.9 secs

     End of self-consistent calculation

          k = 0.0000 0.0000 0.0000 (241213 PWs)   bands (ev):

    -6.8704  -6.6789  -6.6668  -6.6643  -6.6640  -6.6535  -6.6253  -6.6249
    -6.6097  -6.5533  -6.5524  -6.5512  -6.5348  -6.5345  -6.5290  -6.5189
    -6.5184  -6.5145  -6.5082  -6.5069  -6.5045  -6.4871  -6.4869  -6.4744
    -6.4742  -6.4688  -6.4682  -6.4619  -6.4616  -6.4579  -6.4531  -6.4526
    -6.4433  -6.4330  -6.4323  -6.4204  -6.4183  -6.4163  -6.4137  -6.4086
    -6.4079  -6.4029  -6.4000  -6.3994  -6.3986  -6.3916  -6.3897  -6.3894
    -6.3874  -6.3873  -6.3861  -6.3799  -6.3795  -6.3771  -6.3771  -6.3746
    -6.3736  -6.3719  -6.3719  -6.3696  -6.3693  -6.3656  -6.3647  -6.3641
    -6.3635  -6.3626  -6.3617  -6.3614  -6.3596  -6.3587  -6.3578  -6.3574
    -6.3553  -6.3541  -6.3534  -6.3531  -6.3516  -6.3508  -6.3479  -6.3469
    -6.3468  -6.3455  -6.3441  -6.3440  -6.3428  -6.3421  -6.3413  -6.3411
    -6.3411  -6.3391  -6.3388  -6.3377  -6.3377  -6.3368  -6.3362  -6.3361
    -6.3345  -6.3319  -6.3309  -6.3302  -6.3278  -6.3276  -6.3262  -6.3258
    -6.3248  -6.3244  -6.3237  -6.3207  -6.3197  -6.3191  -6.3186  -6.3182
    -6.3177  -6.3176  -6.3176  -6.3159  -6.3154  -6.3145  -6.3140  -6.3134
    -6.3131  -6.3104  -6.3090  -6.3085  -6.3082  -6.3076  -6.3059  -6.3057
    -6.3038  -6.3030  -6.3028  -6.3027  -6.3012  -6.3008  -6.2997  -6.2957
    -6.2952  -6.2951  -6.2950  -6.2935  -6.2931  -6.2931  -6.2923  -6.2896
    -6.2895  -6.2889  -6.2867  -6.2861  -6.2859  -5.6161  -5.5972  -5.5972
    -5.5706  -5.5531  -5.5527  -5.5424  -5.5310  -5.5303  -5.5204  -5.5199
    -5.5098  -5.4765  -5.4765  -5.4518  -5.4432  -5.4426  -5.4403  -5.4399
    -5.4395  -5.2897  -5.2831  -5.2830  -5.2811  -5.2811  -5.2740  -5.2739
    -5.2731  -5.2730  -5.2685  -5.2649  -5.2637  -5.2630  -5.2629  -5.2587
    -5.2575  -5.2552  -5.2552  -5.2549  -5.2549  -5.2542  -5.2503  -5.2503
    -5.2494  -5.2494  -5.2481  -5.2471  -5.2464  -5.2463  -5.2432  -5.2431
    -5.2405  -5.2395  -5.2390  -5.2390  -5.2378  -5.2378  -5.2364  -5.2357
    -5.2356  -5.2325  -5.2325  -5.2323  -5.2311  -5.2311  -5.2302  -5.2295
    -5.2294  -5.2294  -5.2280  -5.2280  -5.2257  -5.2257  -5.2249  -5.2231
    -5.2231  -5.2229  -5.2217  -5.2215  -5.2215  -5.2200  -5.2200  -5.2193
    -5.2179  -5.2178  -5.2177  -5.2177  -5.2174  -5.2161  -5.2160  -5.2158
    -5.2157  -5.2142  -5.2142  -5.2130  -5.2125  -5.2125  -5.2107  -5.2101
    -5.2100  -5.2100  -5.2091  -5.2091  -5.2069  -5.2065  -5.2065  -5.2053
    -5.2053  -5.2034  -5.2034  -5.2029  -5.2022  -5.2018  -5.2018  -5.2007
    -5.2007  -5.2001  -5.1993  -5.1993  -5.1989  -5.1982  -5.1981  -5.1980
    -5.1972  -5.1971  -5.1971  -5.1962  -5.1961  -5.1948  -5.1945  -5.1945
    -5.1942  -5.1935  -5.1925  -5.1925  -5.1920  -5.1904  -5.1903  -5.1901
    -5.1901  -5.1889  -5.1889  -5.1882  -5.1882  -5.1871  -5.1868  -5.1860
    -5.1860  -5.1856  -5.1851  -5.1850  -5.1850  -5.1830  -5.1830  -5.1828
    -5.1820  -5.1811  -5.1800  -5.1800  -5.1797  -5.1797  -5.1792  -5.1791
    -5.1791  -5.1781  -5.1774  -5.1773  -5.1769  -5.1766  -5.1766  -5.1757
    -5.1748  -5.1747  -5.1747  -5.1728  -5.1728  -5.1715  -5.1715  -5.1709
    -5.1709  -5.1708  -5.1689  -5.1689  -5.1683  -5.1683  -5.1682  -5.1671
    -5.1671  -5.1669  -5.1666  -5.1666  -5.1655  -5.1654  -5.1647  -5.1644
    -5.1641  -5.1641  -5.1641  -5.1636  -5.1636  -5.1626  -5.1621  -5.1621
    -5.1620  -5.1607  -5.1607  -5.1605  -5.1578  -5.1578  -5.1576  -5.1543
    -5.1543  -5.1543  -5.1532  -5.1531  -5.1530  -5.1530  -5.1523  -5.1523
    -5.1520  -5.1520  -5.1509  -5.1509  -5.1504  -5.1504  -5.1492  -5.1488
    -5.1487  -5.1485  -5.1481  -5.1473  -5.1473  -5.1462  -5.1459  -5.1459
    -5.1455  -5.1451  -5.1450  -5.1434  -5.1434  -5.1419  -5.1417  -5.1412
    -5.1412  -5.1407  -5.1407  -5.1404  -5.1404  -5.1395  -5.1395  -5.1395
    -5.1394  -5.1383  -5.1347  -5.1347  -5.1336  -5.1335  -5.1334  -5.1328
    -5.1306  -5.1305  -5.1304  -5.1286  -5.1286  -5.1281  -5.1264  -5.1260
    -5.1259  -5.1255  -5.1255  -5.1245  -5.1223  -5.1218  -5.1217  -5.1215
    -5.1214  -5.1197  -5.1191  -5.1190  -5.1189  -5.1180  -5.1180  -5.1172
    -5.1165  -5.1165  -5.1141  -5.1141  -5.1141  -5.1116  -5.1104  -5.1103
    -5.1100  -5.1099  -5.1085  -5.1072  -5.1072  -5.1071  -5.1067  -5.1067
    -5.1044  -5.1041  -5.1041  -5.1034  -5.1019  -5.1019  -5.1016  -5.1003
    -5.1003  -5.0997  -5.0994  -5.0992  -5.0992  -5.0967  -5.0966  -5.0958
    -5.0958  -5.0950  -5.0946  -5.0946  -5.0945  -5.0929  -5.0919  -5.0916
    -5.0916  -5.0902  -5.0894  -5.0891  -5.0891  -5.0881  -5.0881  -5.0881
    -5.0877  -5.0860  -5.0859  -5.0859  -5.0854  -5.0854  -5.0854  -5.0842
    -5.0828  -5.0828  -5.0822  -5.0819  -5.0819  -5.0818  -5.0811  -5.0811
    -5.0804  -5.0804  -5.0801  -5.0790  -5.0790  -5.0787  -5.0774  -5.0774
    -5.0771  -5.0765  -5.0759  -5.0747  -5.0747  -5.0744  -5.0743  -5.0743
    -5.0741  -5.0740  -5.0738  -5.0720  -5.0718  -5.0717  -5.0711  -5.0711
    -5.0698  -5.0698  -5.0692  -5.0683  -5.0683  -5.0681  -5.0678  -5.0676
    -5.0675  -5.0669  -5.0654  -5.0654  -5.0635  -5.0635  -5.0627  -5.0627
    -5.0626  -5.0625  -5.0622  -5.0616  -5.0616  -5.0608  -5.0605  -5.0605
    -5.0595  -5.0595  -5.0588  -5.0580  -5.0580  -5.0573  -5.0570  -5.0570
    -5.0568  -5.0560  -5.0560  -5.0549  -5.0548  -5.0548  -5.0544  -5.0541
    -5.0540  -5.0539  -5.0531  -5.0531  -5.0522  -5.0521  -5.0519  -5.0516
    -5.0516  -5.0508  -5.0501  -5.0501  -5.0500  -5.0497  -5.0480  -5.0480
    -5.0477  -5.0469  -5.0467  -5.0467  -5.0464  -5.0464  -5.0460  -5.0453
    -5.0452  -5.0445  -5.0442  -5.0442  -5.0439  -5.0435  -5.0435  -5.0433
    -5.0433  -5.0421  -5.0421  -5.0415  -5.0410  -5.0409  -5.0400  -5.0400
    -5.0399  -5.0399  -5.0394  -5.0373  -5.0373  -5.0362  -5.0354  -5.0353
    -5.0349  -5.0348  -5.0348  -5.0347  -5.0336  -5.0333  -5.0333  -5.0320
    -5.0309  -5.0308  -5.0308  -5.0297  -5.0297  -5.0271  -5.0271  -5.0267
    -5.0255  -5.0253  -5.0253  -5.0245  -5.0245  -5.0231  -5.0227  -5.0227
    -5.0216  -5.0199  -5.0199  -5.0193  -5.0193  -5.0180  -5.0174  -5.0174
    -5.0168  -5.0168  -5.0167  -5.0157  -5.0157  -5.0157  -5.0150  -5.0146
    -5.0144  -5.0138  -5.0138  -5.0130  -5.0130  -5.0117  -5.0117  -5.0109
    -5.0090  -5.0089  -5.0081  -5.0081  -5.0079  -5.0076  -5.0075  -5.0069
    -5.0060  -5.0060  -5.0060  -5.0049  -5.0030  -5.0030  -5.0029  -5.0023
    -5.0023  -5.0017  -5.0013  -5.0011  -5.0011  -4.9997  -4.9997  -4.9990
    -4.9990  -4.9989  -4.9982  -4.9981  -4.9974  -4.9973  -4.9959  -4.9959
    -4.9949  -4.9949  -4.9942  -4.9942  -4.9938  -4.9938  -4.9929  -4.9929
    -4.9922  -4.9920  -4.9920  -4.9908  -4.9904  -4.9904  -4.9890  -4.9889
    -4.9884  -4.9879  -4.9871  -4.9871  -4.9867  -4.9866  -4.9860  -4.9860
    -4.9857  -4.9844  -4.9844  -4.9843  -4.9839  -4.9837  -4.9837  -4.9832
    -4.9818  -4.9818  -4.9812  -4.9812  -4.9803  -4.9802  -4.9799  -4.9794
    -4.9794  -4.9780  -4.9767  -4.9764  -4.9764  -4.9745  -4.9745  -4.9739
    -4.9738  -4.9738  -4.9726  -4.9726  -4.9711  -4.9709  -4.9708  -4.9707
    -4.9683  -4.9668  -4.9666  -4.9665  -4.9648  -4.9642  -4.9642  -4.9614
    -4.9614  -4.9553  -4.9553  -4.9543  -4.9490  -4.9489  -4.9486  -4.7981
    -4.7857  -4.7856  -4.7805  -4.7804  -4.7604  -4.7603  -4.7580  -4.7579
    -4.7503  -4.7495  -4.7345  -4.3348  -4.3345  -4.3277  -4.3272  -4.3271
    -4.3189  -4.2916  -4.2700  -4.0953  -4.0951  -4.0918  -4.0900  -4.0899
    -4.0857  -4.0854  -4.0845  -4.0778  -4.0774  -4.0770  -4.0492  -4.0266
    -4.0262  -4.0188  -4.0072  -4.0068  -4.0034  -3.9815  -3.9672  -3.9671
    -3.9581  -3.9580  -3.9359  -3.9359  -3.9310  -3.9308  -3.9234  -3.9215
    -3.8948  -3.8243  -3.8239  -3.8233  -3.8229  -3.8170  -3.8057  -3.8054
    -3.8020  -3.8009  -3.8005  -3.8005  -3.7121  -3.5155  -3.4185  -3.4184
    -3.4174  -3.4101  -3.4099  -3.4013  -3.3989  -3.3985  -3.3928  -3.3926
    -3.3926  -3.3870  -3.3848  -3.3844  -3.3825  -3.3683  -3.3683  -3.3286
    -3.3056  -3.3054  -3.2985  -3.2959  -3.2929  -3.2928  -3.2847  -3.2806
    -3.2805  -3.2792  -3.2737  -3.2736  -3.2698  -3.2698  -3.2687  -3.2657
    -3.2656  -3.2654  -3.2618  -3.2618  -3.2567  -3.2531  -3.2529  -3.2518
    -3.2500  -3.2497  -3.2337  -3.2336  -3.2230  -3.1109  -3.0775  -3.0712
    -3.0711  -3.0658  -3.0657  -3.0547  -3.0534  -3.0500  -3.0500  -3.0437
    -3.0437  -2.9938  -2.9704  -2.9700  -2.9488  -2.9326  -2.9325  -2.9238
    -2.9237  -2.9188  -2.9096  -2.9093  -2.9055  -2.8937  -2.8913  -2.8911
    -2.8856  -2.8844  -2.8842   2.0742   2.2623   2.5512   2.5514   2.5683
     2.5765   2.5767   2.5855   2.5909   2.5954   2.5961   2.6164   2.6260
     2.6261   2.6299   2.6317   2.6319   2.6346   2.6348   2.6388   2.6390
     2.6394   2.6434   2.6447   2.6479   2.6480   2.6501   2.6502   2.6666
     2.6755   2.6759   2.7122   2.7939   2.7943   2.7944   2.8100   2.8102
     2.8106   2.9423   2.9471   2.9473   2.9543   2.9601   2.9602   2.9926
     2.9935   2.9936   2.9997   2.9999   3.0053   3.0053   3.0102   3.0102
     3.0453   3.0454   3.0549   3.1372   3.1375   3.1385   3.1480   3.1482
     3.1656   3.2403   3.2404   3.2452   3.2453   3.2456   3.2465   3.2466
     3.2467   3.2586   3.2588   3.2644   3.2743   3.2814   3.2820   3.2939
     3.2942   3.2948   3.3006   3.3013   3.3036   3.3115   3.3605   3.3610
     3.4567   3.6171   3.6240   3.6940   3.6962   3.6964   3.7017   3.7018
     3.7023   3.7156   3.7157   3.7229   3.7231   3.7254   3.7256   3.7332
     3.7344   3.7378   3.7380   3.7898   3.8435   3.9344   3.9348   3.9535
     3.9561   3.9565   3.9613   3.9867   3.9867   3.9883   3.9901   3.9902
     3.9927   3.9941   3.9942   4.0303   4.0534   4.0535   4.4398   4.5326
     4.5326   4.5332   4.5500   4.5505   4.5801   4.5806   4.5984   4.6023
     4.6023   4.6058   4.6258   4.6260   4.6273   4.6542   4.6547   4.6702
     4.7210   4.7212   4.7221   4.7446   4.7448   4.7559   4.9836   4.9837
     4.9900   5.0075   5.0075   5.0130   5.0138   5.0181   5.0181   5.0293
     5.0634   5.0635   5.1327   5.4616   5.4674   5.4674   5.4727   5.4777
     5.4778   5.4866   5.4867   5.4938   5.4938   5.4975   5.4975   5.5040
     5.5063   5.5144   5.5145   5.5488   5.6649   5.6849   5.6855   5.6905
     5.7058   5.7064   5.8468   5.8629   5.8633   5.8717   5.8796   5.8840
     5.8841   5.9063   5.9069   5.9203   5.9206   5.9278   5.9282   5.9299
     5.9342   5.9349   5.9353   5.9779   5.9956   5.9958   6.0020   6.0022
     6.0036   6.0037   6.0053   6.0054   6.0087   6.0107   6.0108   6.0110
     6.0114   6.0129   6.0134   6.0136   6.0147   6.0161   6.0166   6.0166
     6.0177   6.0246   6.0247   6.0307   6.0308   6.0484   6.0547   6.0571
     6.0572   6.0579   6.0582   6.0613   6.0613   6.1427   6.1584   6.1588
     6.2755   6.2937   6.3153   6.3159   6.3287   6.3292   6.3299   6.3408
     6.3476   6.3478   6.3578   6.3603   6.3604   6.3636   6.3638   6.3698
     6.3989   6.4228   6.4231   6.4761   6.4883   6.4884   6.4918   6.4982
     6.5064   6.5065   6.5529   6.5582   6.5587   6.5725   6.5758   6.5763
     6.6357   6.6426   6.6429   6.6499   6.6517   6.6521   6.6528   6.6591
     6.6591   6.6613   6.6669   6.6747   6.6747   6.6771   6.6772   6.6817
     6.6822   6.6827   6.6829   6.6833   6.6838   6.6980   6.6984   6.7496
     6.7553   6.7586   6.7586   6.8063   6.8065   6.8191   6.8675   6.8716
     6.8716   6.8721   6.8722   6.8746   6.8773   6.8774   6.8774   6.8813
     7.0100   7.0102   7.1187   7.1188   7.1354   7.1434   7.1436   7.1455
     7.1471   7.1475   7.1591   7.1741   7.1917   7.1917   7.2921   7.2950
     7.2976   7.2977   7.3043   7.3045   7.3077   7.3166   7.3168   7.3204
     7.3205   7.3605   7.3826   7.3978   7.3979   7.3997   7.3997   7.4009
     7.4049   7.4050   7.4068   7.4096   7.4096   7.4154   7.4156   7.4174
     7.4186   7.4188   7.4202   7.4267   7.4286   7.4294   7.4336   7.4374
     7.4388   7.4390   7.4410   7.4442   7.4442   7.4472   7.4474   7.4502
     7.4509   7.4568   7.4593   7.4679   7.4686   7.4688   7.4699   7.4699
     7.4709   7.5006   7.5680   7.5683   7.5770   7.5778   7.5779   7.6094
     7.6117   7.6118   7.6215   7.6404   7.6404   7.6444   7.6445   7.6472
     7.6473   7.6474   7.6482   7.6970   7.6970   7.7011   7.7099   7.7230
     7.7231   7.7404   7.7405   7.7420   7.7421   7.7424   7.7495   7.7684
     7.7686   7.8430   7.8442   7.8836   7.9166   7.9171   7.9175   7.9682
     7.9683   8.0207   8.0207   8.0475   8.0476   8.0765   8.0798   8.0801
     8.0840   8.0894   8.0896   8.0966   8.0968   8.1000   8.1038   8.2055
     8.3246   8.3246   8.3503   8.3503   8.3550   8.3793   8.3794   8.3933
     8.4371   8.4477   8.4478   8.4571   8.5014   8.5015   8.5178   8.5179
     8.7185   8.7643   8.7644  10.3779  11.2819  11.3761  11.3775  12.0336
    12.1164  12.2259  12.2261  12.2373  12.3119  12.3709  12.3712  12.6870
    12.8040  12.8145  12.8980  12.8984  12.9079  12.9080  12.9082  12.9205
    12.9218  12.9221  12.9273  12.9306  12.9309  12.9374  12.9778  12.9779
    12.9940  12.9941  12.9984  12.9984  13.0043  13.0080  13.0744  13.0747
    13.1788  13.2752  13.6699  13.6709  13.6718  13.6889  13.6893  13.7027
    13.8548  13.8593  13.8598  13.8616  13.8624  13.8631  13.8660  13.8697
    13.8701  13.8774  13.8782  13.8791  13.8850  13.8860  13.9015  13.9023
    13.9034  13.9048  13.9051  13.9057  13.9142  13.9144  13.9560  13.9638
    13.9843  13.9893  13.9898  14.0144  14.0147  14.0151  14.0412  14.0423
    14.0423  14.0447  14.0447  14.0455  14.0472  14.0535  14.0536  14.0844
    14.0844  14.1045  14.1131  14.1132  14.1146  14.1172  14.1175  14.1486
    14.1802  14.1803  14.1880  14.1880  14.1938  14.2001  14.2058  14.2059
    14.2107  14.2108  14.2151  14.2211  14.2212  14.2266  14.3174  14.3651
    14.3657  14.5012  14.5037  14.5039  14.5199  14.5201  14.5503  14.7912
    14.8857  14.8860  14.8869  14.8956  14.8959  14.8968  14.9047  14.9050
    14.9351  14.9351  14.9777  15.0115  15.0626  15.0627  15.0633  15.0710
    15.0711  15.0718  15.0731  15.0731  15.0898  15.1080  15.1086  15.1339
    15.1350  15.1424  15.1458  15.1477  15.1548  15.1724  15.1927  15.1928
    15.2689  15.2693  15.2872  15.3843  15.3869  15.3873  15.4125  15.4133
    15.5411  15.6886  15.7118  15.7123  15.7125  15.7310  15.7310  15.8217
    15.8247  15.8342  15.8342  15.8558  15.8559  15.9180  15.9419  15.9420
    15.9507  15.9582  15.9584  15.9643  15.9644  15.9646  15.9942  15.9944
    16.0139  16.0658  16.1219  16.1236  16.1265  16.1267  16.1288  16.1290
    16.1298  16.1336  16.1341  16.1355  16.1375  16.1375  16.1441  16.1445
    16.1449  16.1468  16.1470  16.1489  16.1493  16.1498  16.1622  16.1623
    16.1760  16.1772  16.1804  16.1815  16.1817  16.1855  16.1856  16.1881
    16.1881  16.1924  16.2370  16.2373  16.2546  16.2577  16.2734  16.2741
    16.3033  16.3035  16.3166  16.3391  16.3494  16.3547  16.3549  16.3554
    16.3555  16.3573  16.3616  16.3618  16.3625  16.3811  16.3825  16.3826
    16.3902  16.3924  16.3936  16.3937  16.3950  16.3953  16.3966  16.3969
    16.4076  16.4262  16.4265  16.4338  16.4432  16.4432  16.4443  16.4445
    16.4573  16.4617  16.4727  16.4729  16.4800  16.4802  16.4813  16.4837
    16.4840  16.4858  16.6256  16.6263  16.6581  16.6657  16.6674  16.6742
    16.6745  16.6765

     occupation numbers 
     1.0000   1.0000   1.0000   1.0000   1.0000   1.0000   1.0000   1.0000
     1.0000   1.0000   1.0000   1.0000   1.0000   1.0000   1.0000   1.0000
     1.0000   1.0000   1.0000   1.0000   1.0000   1.0000   1.0000   1.0000
     1.0000   1.0000   1.0000   1.0000   1.0000   1.0000   1.0000   1.0000
     1.0000   1.0000   1.0000   1.0000   1.0000   1.0000   1.0000   1.0000
     1.0000   1.0000   1.0000   1.0000   1.0000   1.0000   1.0000   1.0000
     1.0000   1.0000   1.0000   1.0000   1.0000   1.0000   1.0000   1.0000
     1.0000   1.0000   1.0000   1.0000   1.0000   1.0000   1.0000   1.0000
     1.0000   1.0000   1.0000   1.0000   1.0000   1.0000   1.0000   1.0000
     1.0000   1.0000   1.0000   1.0000   1.0000   1.0000   1.0000   1.0000
     1.0000   1.0000   1.0000   1.0000   1.0000   1.0000   1.0000   1.0000
     1.0000   1.0000   1.0000   1.0000   1.0000   1.0000   1.0000   1.0000
     1.0000   1.0000   1.0000   1.0000   1.0000   1.0000   1.0000   1.0000
     1.0000   1.0000   1.0000   1.0000   1.0000   1.0000   1.0000   1.0000
     1.0000   1.0000   1.0000   1.0000   1.0000   1.0000   1.0000   1.0000
     1.0000   1.0000   1.0000   1.0000   1.0000   1.0000   1.0000   1.0000
     1.0000   1.0000   1.0000   1.0000   1.0000   1.0000   1.0000   1.0000
     1.0000   1.0000   1.0000   1.0000   1.0000   1.0000   1.0000   1.0000
     1.0000   1.0000   1.0000   1.0000   1.0000   1.0000   1.0000   1.0000
     1.0000   1.0000   1.0000   1.0000   1.0000   1.0000   1.0000   1.0000
     1.0000   1.0000   1.0000   1.0000   1.0000   1.0000   1.0000   1.0000
     1.0000   1.0000   1.0000   1.0000   1.0000   1.0000   1.0000   1.0000
     1.0000   1.0000   1.0000   1.0000   1.0000   1.0000   1.0000   1.0000
     1.0000   1.0000   1.0000   1.0000   1.0000   1.0000   1.0000   1.0000
     1.0000   1.0000   1.0000   1.0000   1.0000   1.0000   1.0000   1.0000
     1.0000   1.0000   1.0000   1.0000   1.0000   1.0000   1.0000   1.0000
     1.0000   1.0000   1.0000   1.0000   1.0000   1.0000   1.0000   1.0000
     1.0000   1.0000   1.0000   1.0000   1.0000   1.0000   1.0000   1.0000
     1.0000   1.0000   1.0000   1.0000   1.0000   1.0000   1.0000   1.0000
     1.0000   1.0000   1.0000   1.0000   1.0000   1.0000   1.0000   1.0000
     1.0000   1.0000   1.0000   1.0000   1.0000   1.0000   1.0000   1.0000
     1.0000   1.0000   1.0000   1.0000   1.0000   1.0000   1.0000   1.0000
     1.0000   1.0000   1.0000   1.0000   1.0000   1.0000   1.0000   1.0000
     1.0000   1.0000   1.0000   1.0000   1.0000   1.0000   1.0000   1.0000
     1.0000   1.0000   1.0000   1.0000   1.0000   1.0000   1.0000   1.0000
     1.0000   1.0000   1.0000   1.0000   1.0000   1.0000   1.0000   1.0000
     1.0000   1.0000   1.0000   1.0000   1.0000   1.0000   1.0000   1.0000
     1.0000   1.0000   1.0000   1.0000   1.0000   1.0000   1.0000   1.0000
     1.0000   1.0000   1.0000   1.0000   1.0000   1.0000   1.0000   1.0000
     1.0000   1.0000   1.0000   1.0000   1.0000   1.0000   1.0000   1.0000
     1.0000   1.0000   1.0000   1.0000   1.0000   1.0000   1.0000   1.0000
     1.0000   1.0000   1.0000   1.0000   1.0000   1.0000   1.0000   1.0000
     1.0000   1.0000   1.0000   1.0000   1.0000   1.0000   1.0000   1.0000
     1.0000   1.0000   1.0000   1.0000   1.0000   1.0000   1.0000   1.0000
     1.0000   1.0000   1.0000   1.0000   1.0000   1.0000   1.0000   1.0000
     1.0000   1.0000   1.0000   1.0000   1.0000   1.0000   1.0000   1.0000
     1.0000   1.0000   1.0000   1.0000   1.0000   1.0000   1.0000   1.0000
     1.0000   1.0000   1.0000   1.0000   1.0000   1.0000   1.0000   1.0000
     1.0000   1.0000   1.0000   1.0000   1.0000   1.0000   1.0000   1.0000
     1.0000   1.0000   1.0000   1.0000   1.0000   1.0000   1.0000   1.0000
     1.0000   1.0000   1.0000   1.0000   1.0000   1.0000   1.0000   1.0000
     1.0000   1.0000   1.0000   1.0000   1.0000   1.0000   1.0000   1.0000
     1.0000   1.0000   1.0000   1.0000   1.0000   1.0000   1.0000   1.0000
     1.0000   1.0000   1.0000   1.0000   1.0000   1.0000   1.0000   1.0000
     1.0000   1.0000   1.0000   1.0000   1.0000   1.0000   1.0000   1.0000
     1.0000   1.0000   1.0000   1.0000   1.0000   1.0000   1.0000   1.0000
     1.0000   1.0000   1.0000   1.0000   1.0000   1.0000   1.0000   1.0000
     1.0000   1.0000   1.0000   1.0000   1.0000   1.0000   1.0000   1.0000
     1.0000   1.0000   1.0000   1.0000   1.0000   1.0000   1.0000   1.0000
     1.0000   1.0000   1.0000   1.0000   1.0000   1.0000   1.0000   1.0000
     1.0000   1.0000   1.0000   1.0000   1.0000   1.0000   1.0000   1.0000
     1.0000   1.0000   1.0000   1.0000   1.0000   1.0000   1.0000   1.0000
     1.0000   1.0000   1.0000   1.0000   1.0000   1.0000   1.0000   1.0000
     1.0000   1.0000   1.0000   1.0000   1.0000   1.0000   1.0000   1.0000
     1.0000   1.0000   1.0000   1.0000   1.0000   1.0000   1.0000   1.0000
     1.0000   1.0000   1.0000   1.0000   1.0000   1.0000   1.0000   1.0000
     1.0000   1.0000   1.0000   1.0000   1.0000   1.0000   1.0000   1.0000
     1.0000   1.0000   1.0000   1.0000   1.0000   1.0000   1.0000   1.0000
     1.0000   1.0000   1.0000   1.0000   1.0000   1.0000   1.0000   1.0000
[...]
              0.257121174596704E+03
              0.756605348264837E+01
              0.801326568894432E+03
              0.111321385231178E+03
             -0.116795529165720E+03
              0.453391612540436E+02
             -0.107296556892139E+03
              0.629431720889662E+03
             -0.397109046138053E+01
              0.120434968624091E+03
              0.437016557407218E+03
              0.117144662147435E+03
             -0.332070929057753E+03
             -0.538278091025472E+03
              0.302850667545940E+02
             -0.612352644652295E+03
              0.205352976682826E+03
             -0.106367863623283E+03
             -0.236020399593306E+03
              0.239131523203541E+03
              0.827634643467582E+02
              0.229972140305710E+03
              0.100342706698978E+02
              0.341422931107049E+03
             -0.579619430811612E+03
             -0.412972025828117E+02
             -0.508793190368719E+03
              0.113347621261886E+03
              0.279090284513819E+03
             -0.283066674426441E+02
             -0.185958438800418E+03
              0.417296506040238E+03
             -0.193098400548503E+03
              0.142797906289610E+03
             -0.122740958342275E+03
              0.330288848079101E+03
              0.347797707172797E+03
             -0.150521806775469E+03
              0.298058791997599E+03
              0.111897396219536E+03
             -0.300809810891104E+03
             -0.196597775414803E+03
              0.483413983451233E+03
              0.237150589012297E+03
             -0.205560693555282E+02
             -0.513137919698183E+02
              0.744362542975721E+03
              0.438982112688041E+03
              0.156134777954668E+03
             -0.468743542777394E+03
              0.751205723954107E+03
             -0.350683268945782E+03
             -0.433082008635765E+03
             -0.652749102192880E+03
              0.291001856150930E+03
             -0.586740177661012E+03
              0.265297094200356E+03
              0.428677018760231E+03
              0.305321570603222E+03
              0.775659294931783E+02
              0.202278908163090E+03
             -0.483412094423181E+03
             -0.173154559134208E+03
             -0.131513706577306E+03
              0.248054740390159E+03
              0.491784094222789E+03
              0.508126214505930E+03
              0.391795415179893E+03
             -0.898087182372419E+02
              0.125023033981351E+03
              0.707675653634215E+01
             -0.161160012930086E+03
              0.207302999113217E+03
              0.225632581019529E+03
             -0.285804170310942E+03
             -0.339704802402043E+03
             -0.134074019084111E+03
              0.352701154298492E+03
              0.168996150447241E+03
             -0.242009449850011E+03
             -0.370998405670793E+03
             -0.540169823776461E+03
              0.112046908853845E+02
              0.145042001043720E+03
             -0.204012232496217E+03
              0.755459927225320E+03
              0.365261984351200E+02
             -0.855980849292201E+03
              0.189492814249118E+03
              0.375210353160115E+03
             -0.171869989555169E+03
              0.206980493010423E+02
             -0.238206389298213E+03
              0.350069216539448E+03
              0.161945860499385E+03
             -0.447990154034336E+03
              0.533499529159247E+03
              0.152247548694313E+02
             -0.228820364485692E+03
             -0.271617842887003E+03
              0.106232119677385E+04
              0.473266986022956E+03
             -0.131957459627597E+03
              0.260547827632698E+03
             -0.464630477615784E+03
             -0.831911791147741E+02
             -0.471085959251730E+03
              0.188695530821823E+03
              0.320932933720757E+03
              0.380892936531886E+03
             -0.151717598865971E+03
              0.447438293863643E+02
              0.434975304757467E+03
              0.160917344729282E+03
              0.272606878077783E+03
              0.116042497302633E+03
             -0.782044207489078E+02
              0.117362802914195E+02
             -0.718183338857148E+02
              0.110700244140878E+03
              0.244841301750516E+02
             -0.396381017521313E+03
              0.603200205273439E+03
              0.241264324677066E+03
             -0.433455453930483E+03
             -0.321715790546415E+03
             -0.466023340344372E+03
             -0.220494024850296E+03
             -0.162315741592649E+03
             -0.360387714539761E+03
             -0.352809787404917E+03
              0.444619083142927E+03
              0.350759105649921E+03
             -0.436804396495841E+02
              0.511566286022490E+03
              0.967147812337880E+02
             -0.825638581663395E+03
              0.465800218275257E+03
              0.107538138397175E+03
              0.359086947540638E+03
              0.800884126696578E+02
              0.599910024154663E+02
              0.711020807064037E+02
              0.186976835439064E+03
             -0.342443466496814E+03
             -0.170912908590736E+03
             -0.314526179076951E+03
             -0.261225430068083E+03
              0.118906267549645E+03
             -0.298940123464931E+03
              0.139863863793056E+03
              0.185042607437428E+03
             -0.196791609789327E+03
             -0.103830177843539E+03
             -0.909412177633885E+01
              0.511044265737762E+03
              0.812847017484787E+02
              0.506582512324649E+03
              0.180412889165268E+03
             -0.654592711344095E+03
             -0.222760734964047E+03
              0.223738560245487E+03
              0.503707016071866E+03
              0.967596099918442E+02
              0.196836464108811E+03
              0.474812297787888E+03
             -0.276182384114677E+03
             -0.448452232769467E+03
              0.582634334915645E+03
              0.980718209495853E+01
             -0.617745842856856E+03
              0.207111080057794E+03
              0.408771063819423E+03
             -0.945958649211734E+02
             -0.386790151284458E+03
              0.688922843175133E+02
              0.251976277866261E+02
             -0.211611043699064E+03
              0.767541116587881E+02
             -0.659394677518237E+02
              0.910447033315447E+03
              0.251145768856612E+03
             -0.417620533363164E+03
              0.126318996075637E+03
              0.584576188536375E+03
             -0.374702337049769E+03
             -0.998011433767765E+02
             -0.331609150168122E+03
              0.264847116667609E+03
              0.112392166906942E+03
              0.175903606470355E+03
              0.135574717216818E+02
              0.656526808244465E+03
             -0.367106847713667E+03
             -0.278687497312762E+03
             -0.307547974480739E+03
              0.264318857586454E+03
              0.631593522470235E+03
             -0.800445152559041E+02
              0.260849473307573E+03
             -0.353152164727508E+03
              0.356192815199922E+02
             -0.104633426787389E+03
             -0.349110823942292E+02
             -0.150292410758364E+03
             -0.138278112946042E+03
             -0.102088957790789E+03
              0.108981985307998E+03
              0.184017427089511E+03
             -0.423709215451418E+03
              0.307888633742202E+03
             -0.497727834422069E+03
              0.371657113852114E+03
             -0.431384165914805E+03
              0.652706353258508E+03
              0.348011115410368E+03
              0.388513803138357E+03
              0.890050904064747E+02
              0.999194108799802E+02
             -0.876086335930257E+03
              0.150153938620456E+03
              0.397951644285768E+02
              0.688810785325495E+02
             -0.130674603206485E+03
              0.681876933332620E+03
             -0.207071100920187E+03
             -0.269354820443902E+03
             -0.675824371837158E+03
             -0.224911142416265E+03
             -0.307074207187599E+03
             -0.272221179277998E+03
             -0.745257680567106E+02
             -0.142568198045952E+03
             -0.188833624378947E+03
             -0.283950014863162E+03
              0.211631868258747E+03
              0.699486470272783E+03
              0.596416314230818E+03
             -0.118428170551097E+03
             -0.731856570649809E+03
             -0.307777960248416E+03
              0.141024761283201E+03
              0.156337344519349E+03
              0.226351688783624E+03
              0.176061920264836E+03
              0.572909526506996E+02
              0.677396943836661E+03
             -0.168033003999141E+03
              0.343657869788690E+03
              0.157882556330994E+03
             -0.221803929137206E+03
             -0.139435043327048E+03
              0.313083307299250E+03
             -0.181392228992037E+03
             -0.128656583387066E+03
             -0.835243290656344E+02
              0.391239258678916E+03
             -0.524411934977620E+03
             -0.576433632989770E+02
             -0.429308870534763E+03
             -0.928195425541230E+03
              0.331655888236901E+01
             -0.114985256762604E+03
              0.318848477158513E+03
              0.379016304164073E+03
              0.519927838445727E+03
             -0.342009334198832E+03
              0.556277645832193E+03
              0.145482834792444E+03
             -0.166139521053904E+03
              0.100404847240237E+03
             -0.176536898018057E+03
             -0.123519258714194E+03
              0.283387276057270E+03
             -0.276107798320431E+03
              0.671866876357967E+03
             -0.171855656935052E+03
             -0.359359527631092E+03
              0.683831576107988E+03
             -0.384212002110934E+03
             -0.567799364499642E+02
              0.697437949018540E+02
              0.212102187095642E+03
             -0.313236837580955E+03
             -0.234613139808227E+03
              0.356672430845748E+03
             -0.578259095333648E+03
              0.424811201558579E+03
              0.555351112006559E+02
              0.331857629842992E+03
              0.459981853983457E+03
              0.115985985254979E+03
             -0.605656095752907E+03
             -0.267373573883893E+03
             -0.447614469501933E+03
             -0.280648420942121E+03
             -0.921500629918733E+02
              0.110110619579317E+03
             -0.210110942749179E+03
              0.146573342709944E+02
             -0.680481213856194E+03
              0.169339383725835E+02
             -0.430169316985906E+03
              0.422594762277398E+03
             -0.227298720980247E+03
             -0.446602117747789E+02
              0.304158240784987E+03
              0.327290349369313E+02
              0.302684606851018E+03
             -0.542630250680850E+03
              0.118973946673162E+03
              0.373807359584010E+02
              0.218251260959699E+03
              0.391651370923926E+03
             -0.685970560830215E+02
             -0.429458002079216E+03
             -0.245897573198929E+03
             -0.169797688579808E+03
             -0.825446684255203E+02
              0.405100409425392E+03
              0.249384412955107E+03
             -0.260664190940173E+03
             -0.237625552145989E+03
              0.196221630495748E+03
              0.192209114668549E+03
             -0.532719121871079E+03
              0.149106549172616E+03
              0.390828831884891E+03
             -0.192140770659798E+02
              0.458029230443228E+03
              0.232242004695208E+03
              0.366046731987284E+03
              0.556054063885034E+03
              0.912558141557661E+02
             -0.777129739594981E+03
              0.799035714201341E+02
              0.862096964152717E+03
              0.620326087276030E+03
             -0.415869839452967E+03
              0.414820463476999E+02
              0.539918390168148E+03
              0.490622839562658E+03
              0.233449345824156E+03
             -0.123678983135948E+03
              0.223675894030364E+03
              0.469603246435915E+03
             -0.210015310512799E+03
             -0.150288246996824E+03
              0.293245369848584E+03
             -0.210326703384210E+02
              0.275268447010378E+03
             -0.688725762632484E+02
              0.567530546704938E+03
             -0.216287845491931E+03
              0.129583844323316E+03
             -0.264305830315028E+03
              0.268043869678108E+03
             -0.354619221385019E+02
              0.423521544271940E+03
              0.296734882735147E+02
              0.167403645512953E+03
             -0.281056960935310E+03
             -0.172896428813287E+03
             -0.815775930346310E+02
             -0.703376594261010E+02
              0.444745397436001E+03
              0.184463111056954E+03
              0.570771788930344E+03
              0.475183356107010E+03
              0.106374733396664E+03
              0.411031927444873E+01
              0.557753415933842E+03
              0.293608886938339E+03
              0.793402754871158E+01
              0.495588325609610E+03
             -0.444601669869073E+03
              0.145826981391678E+03
             -0.279637727519711E+03
             -0.111755160220680E+03
              0.713692854025722E+03
             -0.109257168989421E+03
             -0.533419642479112E+01
             -0.939053309286787E+02
              0.593191630401123E+03
             -0.138311258544350E+03
             -0.164594129007380E+02
              0.119741796188708E+04
             -0.386796076743410E+03
             -0.413439909439410E+03
             -0.433568012291912E+03
             -0.254340882871378E+03
              0.253078147029364E+03
             -0.108129236976949E+03
              0.699777136792059E+02
             -0.219835214857258E+02
              0.151606054982330E+03
              0.247009011705674E+03
              0.284719386910444E+03
              0.418642137549641E+03
              0.231364705705574E+03
              0.293849866681673E+03
             -0.475028764006604E+03
             -0.454902246946437E+03
             -0.115016472223294E+03
             -0.445779786525762E+03
              0.713587468211355E+03
              0.611545770473681E+03
              0.292233952792865E+03
              0.791462410337529E+03
             -0.411869264314053E+03
             -0.167806971376045E+03
             -0.233578221594835E+03
              0.654710981860132E+03
 
 BEEF-vdW xc energy contributions
            1 :    -5999.413654915572     
            2 :     5403.868152049597     
            3 :    -4406.124163655657     
            4 :     3298.264854467292     
            5 :    -2337.324235252720     
            6 :     1647.506695418900     
            7 :    -1206.266070992559     
            8 :     907.7693394662620     
            9 :    -652.6417891174879     
           10 :     405.6421066427938     
           11 :    -193.5885250143983     
           12 :     59.63583392025339     
           13 :    -15.95123007033726     
           14 :     29.83184924303077     
           15 :    -47.92187694737731     
           16 :     34.24729744577780     
           17 :     9.047309919204054     
           18 :    -52.05293196298589     
           19 :     66.82061135953882     
           20 :    -51.22076795039811     
           21 :     29.07582796311908     
           22 :    -29.05217026333321     
           23 :     61.11593195055229     
           24 :    -109.4391509036086     
           25 :     145.9920814004427     
           26 :    -152.4551437043456     
           27 :     132.6640658033157     
           28 :    -106.8065484390572     
           29 :     93.69258441120564     
           30 :    -96.22332753648243     
           31 :    -513.8462834165903     
           32 :    -352.1245019791468     

     Writing all to output data dir ./GaN.save/
 
     init_run     :     13.54s CPU     41.42s WALL (       1 calls)
     electrons    :   2791.45s CPU   2827.64s WALL (       1 calls)
     forces       :     64.92s CPU     65.93s WALL (       1 calls)
     stress       :   1254.73s CPU   1264.97s WALL (       1 calls)

     Called by init_run:
     wfcinit      :      8.89s CPU     36.37s WALL (       1 calls)
     potinit      :      1.70s CPU      1.84s WALL (       1 calls)
     hinit0       :      1.36s CPU      1.47s WALL (       1 calls)

     Called by electrons:
     c_bands      :   2743.16s CPU   2778.02s WALL (       2 calls)
     sum_band     :     41.90s CPU     42.47s WALL (       2 calls)
     v_of_rho     :      1.92s CPU      2.07s WALL (       2 calls)
     v_h          :      0.02s CPU      0.02s WALL (       2 calls)
     v_xc         :     32.92s CPU     34.57s WALL (      38 calls)
     newd         :      0.36s CPU      0.42s WALL (       2 calls)
     PAW_pot      :      1.07s CPU      1.08s WALL (       2 calls)
     mix_rho      :      0.01s CPU      0.01s WALL (       2 calls)
     vdW_kernel   :      0.16s CPU      0.17s WALL (       1 calls)

     Called by c_bands:
     init_us_2    :      2.81s CPU      3.04s WALL (      12 calls)
     init_us_2:cp :      2.81s CPU      3.04s WALL (      12 calls)
     cegterg      :   2616.89s CPU   2650.20s WALL (       4 calls)

     Called by sum_band:
     sum_band:wei :      0.01s CPU      0.01s WALL (       2 calls)
     sum_band:loo :     41.27s CPU     41.64s WALL (       2 calls)
     sum_band:buf :      0.49s CPU      0.50s WALL (       4 calls)
     sum_band:ini :      1.04s CPU      1.06s WALL (       4 calls)
     sum_band:cal :     28.35s CPU     28.56s WALL (       4 calls)
     sum_band:bec :      0.23s CPU      0.23s WALL (       4 calls)
     addusdens    :      0.42s CPU      0.45s WALL (       2 calls)
     addusd:skk   :      0.06s CPU      0.06s WALL (       4 calls)
     addusd:dgemm :      0.19s CPU      0.21s WALL (       4 calls)
     addusd:qvan2 :      0.05s CPU      0.05s WALL (       4 calls)

     Called by *egterg:
     cdiaghg      :   2151.23s CPU   2172.87s WALL (      40 calls)
     cegterg:over :     87.97s CPU     90.58s WALL (      40 calls)
     cegterg:upda :     50.84s CPU     51.99s WALL (      40 calls)
     cegterg:last :     27.39s CPU     27.66s WALL (       4 calls)
     h_psi        :    197.45s CPU    200.67s WALL (      44 calls)
     s_psi        :     69.21s CPU     70.40s WALL (      44 calls)
     g_psi        :      0.27s CPU      0.27s WALL (      40 calls)

     Called by h_psi:
     h_psi:calbec :     73.77s CPU     74.38s WALL (      44 calls)
     vloc_psi     :     53.77s CPU     54.44s WALL (      44 calls)
     add_vuspsi   :     69.10s CPU     70.38s WALL (      44 calls)

     General routines
     calbec       :    206.82s CPU    208.38s WALL (      58 calls)
     fft          :     13.33s CPU     13.51s WALL (    2232 calls)
     ffts         :      0.05s CPU      0.05s WALL (       4 calls)
     fftw         :     59.76s CPU     60.49s WALL (   38124 calls)
     interpolate  :      0.02s CPU      0.03s WALL (       2 calls)
 
     Parallel routines

     PAW routines
     PAW_pot      :      1.07s CPU      1.08s WALL (       2 calls)
     PAW_symme    :      0.01s CPU      0.01s WALL (       3 calls)
 
     PWSCF        :      1h 9m CPU      1h11m WALL

 
   This run was terminated on:  13:22:25  12Mar2024            

=------------------------------------------------------------------------------=
   JOB DONE.
=------------------------------------------------------------------------------=
