
     Program PWSCF v.7.1 starts on 27Mar2024 at 22:27: 4 

     This program is part of the open-source Quantum ESPRESSO suite
     for quantum simulation of materials; please cite
         "P. Giannozzi et al., J. Phys.:Condens. Matter 21 395502 (2009);
         "P. Giannozzi et al., J. Phys.:Condens. Matter 29 465901 (2017);
         "P. Giannozzi et al., J. Chem. Phys. 152 154105 (2020);
          URL http://www.quantum-espresso.org", 
     in publications or presentations arising from this work. More details at
     http://www.quantum-espresso.org/quote

     Parallel version (MPI & OpenMP), running on      27 processor cores
     Number of MPI processes:                27
     Threads/MPI process:                     1

     MPI processes distributed on     1 nodes
     1961241 MiB available memory on the printing compute node when the environment starts
 
     Reading input from espresso.pwi
Warning: card &CELL ignored
Warning: card    CELL_DYNAMICS    = 'BFGS' ignored
Warning: card / ignored

     Current dimensions of program PWSCF are:
     Max number of different atomic species (ntypx) = 10
     Max number of k-points (npk) =  40000
     Max angular momentum in pseudopotentials (lmaxx) =  4
     file Ga.pbe-dn-kjpaw_psl.1.0.0.UPF: wavefunction(s)  4S renormalized
     file N.pbe-n-kjpaw_psl.1.0.0.UPF: wavefunction(s)  2S renormalized

     **************************************************************************
     Initializing libbeef V0.1.2 with the BEEF-vdW functional.
     Citation: Wellendorff et al., PRB 85, 235149 (2012).
     **************************************************************************


     IMPORTANT: XC functional enforced from input :
     Exchange-correlation= BEEF-VDW
                           (   1   4  43  14   2   0   0)
     Any further DFT definition will be discarded
     Please, verify this is what you really want

 
     R & G space division:  proc/nbgrp/npool/nimage =      27
     Subspace diagonalization in iterative solution of the eigenvalue problem:
     a serial algorithm will be used

 
     Parallelization info
     --------------------
     sticks:   dense  smooth     PW     G-vecs:    dense   smooth      PW
     Min         134     107     28                10662     7629    1068
     Max         135     108     29                10667     7636    1077
     Sum        3643    2905    769               287969   206075   28939
 
     Using Slab Decomposition
 


     bravais-lattice index     =            4
     lattice parameter (alat)  =      12.2626  a.u.
     unit-cell volume          =    2602.7676 (a.u.)^3
     number of atoms/cell      =           31
     number of atomic types    =            2
     number of electrons       =       276.00
     number of Kohn-Sham states=          166
     kinetic-energy cutoff     =      70.0000  Ry
     charge density cutoff     =     350.0000  Ry
     scf convergence threshold =      1.0E-07
     mixing beta               =       0.7000
     number of iterations used =            8  plain     mixing
     Exchange-correlation= BEEF-VDW
                           (   1   4  43  14   2   0   0)

     celldm(1)=  12.262616  celldm(2)=   0.000000  celldm(3)=   1.629879
     celldm(4)=   0.000000  celldm(5)=   0.000000  celldm(6)=   0.000000

     crystal axes: (cart. coord. in units of alat)
               a(1) = (   1.000000   0.000000   0.000000 )  
               a(2) = (  -0.500000   0.866025   0.000000 )  
               a(3) = (   0.000000   0.000000   1.629879 )  

     reciprocal axes: (cart. coord. in units 2 pi/alat)
               b(1) = (  1.000000  0.577350 -0.000000 )  
               b(2) = (  0.000000  1.154701  0.000000 )  
               b(3) = (  0.000000 -0.000000  0.613542 )  


     PseudoPot. # 1 for Ga read from file:
     /trace/group/acmegroup/atimmins/packages/espresso/pseudo/psl_1.0.0/pslibrary.1.0.0/pbe/PSEUDOPOTENTIALS/Ga.pbe-dn-kjpaw_psl.1.0.0.UPF
     MD5 check sum: cd2a01e492f15b435d17032472d8505c
     Pseudo is Projector augmented-wave + core cor, Zval = 13.0
     Generated using 'atomic' code by A. Dal Corso  v.7.1
     Shape of augmentation charge: PSQ
     Using radial grid of 1205 points,  6 beta functions with: 
                l(1) =   0
                l(2) =   0
                l(3) =   1
                l(4) =   1
                l(5) =   2
                l(6) =   2
     Q(r) pseudized with 0 coefficients 


     PseudoPot. # 2 for N  read from file:
     /trace/group/acmegroup/atimmins/packages/espresso/pseudo/psl_1.0.0/pslibrary.1.0.0/pbe/PSEUDOPOTENTIALS/N.pbe-n-kjpaw_psl.1.0.0.UPF
     MD5 check sum: f77f775694dac7e2c3fe1c82443d1a16
     Pseudo is Projector augmented-wave + core cor, Zval =  5.0
     Generated using 'atomic' code by A. Dal Corso  v.7.1
     Shape of augmentation charge: PSQ
     Using radial grid of 1085 points,  4 beta functions with: 
                l(1) =   0
                l(2) =   0
                l(3) =   1
                l(4) =   1
     Q(r) pseudized with 0 coefficients 


     atomic species   valence    mass     pseudopotential
        Ga            13.00    69.72300     Ga( 1.00)
        N              5.00    14.00700     N ( 1.00)

      6 Sym. Ops. (no inversion) found ( 4 have fractional translation)


                                    s                        frac. trans.

      isym =  1     identity                                     

 cryst.   s( 1) = (     1          0          0      )
                  (     0          1          0      )
                  (     0          0          1      )

 cart.    s( 1) = (  1.0000000  0.0000000  0.0000000 )
                  (  0.0000000  1.0000000  0.0000000 )
                  (  0.0000000  0.0000000  1.0000000 )


      isym =  2     120 deg rotation - cryst. axis [0,0,1]       

 cryst.   s( 2) = (     0          1          0      )    f =(  0.4999999 )
                  (    -1         -1          0      )       (  0.0000004 )
                  (     0          0          1      )       (  0.0000000 )

 cart.    s( 2) = ( -0.5000000 -0.8660254  0.0000000 )    f =(  0.4999998 )
                  (  0.8660254 -0.5000000  0.0000000 )       (  0.0000003 )
                  (  0.0000000  0.0000000  1.0000000 )       (  0.0000000 )


      isym =  3     120 deg rotation - cryst. axis [0,0,-1]      

 cryst.   s( 3) = (    -1         -1          0      )    f =(  0.4999996 )
                  (     1          0          0      )       (  0.4999999 )
                  (     0          0          1      )       (  0.0000000 )

 cart.    s( 3) = ( -0.5000000  0.8660254  0.0000000 )    f =(  0.2499996 )
                  ( -0.8660254 -0.5000000  0.0000000 )       (  0.4330127 )
                  (  0.0000000  0.0000000  1.0000000 )       (  0.0000000 )


      isym =  4     inv. 180 deg rotation - cart. axis [1,0,0]   

 cryst.   s( 4) = (    -1          0          0      )    f =(  0.4999996 )
                  (     1          1          0      )       (  0.0000000 )
                  (     0          0          1      )       (  0.0000000 )

 cart.    s( 4) = ( -1.0000000  0.0000000  0.0000000 )    f =(  0.4999996 )
                  (  0.0000000  1.0000000  0.0000000 )       (  0.0000000 )
                  (  0.0000000  0.0000000  1.0000000 )       (  0.0000000 )


      isym =  5     inv. 180 deg rotation - cryst. axis [0,1,0]  

 cryst.   s( 5) = (     1          1          0      )
                  (     0         -1          0      )
                  (     0          0          1      )

 cart.    s( 5) = (  0.5000000  0.8660254  0.0000000 )
                  (  0.8660254 -0.5000000  0.0000000 )
                  (  0.0000000  0.0000000  1.0000000 )


      isym =  6     inv. 180 deg rotation - cryst. axis [1,1,0]  

 cryst.   s( 6) = (     0         -1          0      )    f =(  0.4999999 )
                  (    -1          0          0      )       (  0.4999999 )
                  (     0          0          1      )       (  0.0000000 )

 cart.    s( 6) = (  0.5000000 -0.8660254  0.0000000 )    f =(  0.2500000 )
                  ( -0.8660254 -0.5000000  0.0000000 )       (  0.4330127 )
                  (  0.0000000  0.0000000  1.0000000 )       (  0.0000000 )


     point group C_3v (3m)  
     there are  3 classes
     the character table:

       E     2C3   3s_v 
A_1    1.00  1.00  1.00
A_2    1.00  1.00 -1.00
E      2.00 -1.00  0.00

     the symmetry operations in each class and the name of the first element:

     E        1
          identity                                               
     2C3      2    3
          120 deg rotation - cryst. axis [0,0,1]                 
     3s_v     4    5    6
          inv. 180 deg rotation - cart. axis [1,0,0]             

   Cartesian axes

     site n.     atom                  positions (alat units)
         1           Ga  tau(   1) = (   0.2500002   0.1443375   1.2217266  )
         2           Ga  tau(   2) = (   0.0000002   0.5773502   0.4067871  )
         3           Ga  tau(   3) = (   0.0000002   0.5773502   1.2217266  )
         4           Ga  tau(   4) = (   0.7500002   0.1443375   0.4067871  )
         5           Ga  tau(   5) = (   0.7500002   0.1443375   1.2217266  )
         6           Ga  tau(   6) = (   0.5000002   0.5773502   0.4067871  )
         7           Ga  tau(   7) = (   0.5000002   0.5773502   1.2217266  )
         8           Ga  tau(   8) = (  -0.0000003   0.2886754   0.8142568  )
         9           Ga  tau(   9) = (  -0.0000003   0.2886754   1.6291964  )
        10           Ga  tau(  10) = (  -0.2500003   0.7216881   0.8142568  )
        11           Ga  tau(  11) = (  -0.2500003   0.7216881   1.6291964  )
        12           Ga  tau(  12) = (   0.4999997   0.2886754   0.8142568  )
        13           Ga  tau(  13) = (   0.4999997   0.2886754   1.6291964  )
        14           Ga  tau(  14) = (   0.2499997   0.7216881   0.8142568  )
        15           Ga  tau(  15) = (   0.2499997   0.7216881   1.6291964  )
        16           N   tau(  16) = (   0.2500002   0.1443375   0.7137548  )
        17           N   tau(  17) = (   0.2500002   0.1443375   1.5286943  )
        18           N   tau(  18) = (   0.0000002   0.5773502   0.7137548  )
        19           N   tau(  19) = (   0.0000002   0.5773502   1.5286943  )
        20           N   tau(  20) = (   0.7500002   0.1443375   0.7137548  )
        21           N   tau(  21) = (   0.7500002   0.1443375   1.5286943  )
        22           N   tau(  22) = (   0.5000002   0.5773502   0.7137548  )
        23           N   tau(  23) = (   0.5000002   0.5773502   1.5286943  )
        24           N   tau(  24) = (  -0.0000003   0.2886754   0.3062850  )
        25           N   tau(  25) = (  -0.0000003   0.2886754   1.1212245  )
        26           N   tau(  26) = (  -0.2500003   0.7216881   0.3062850  )
        27           N   tau(  27) = (  -0.2500003   0.7216881   1.1212245  )
        28           N   tau(  28) = (   0.4999997   0.2886754   0.3062850  )
        29           N   tau(  29) = (   0.4999997   0.2886754   1.1212245  )
        30           N   tau(  30) = (   0.2499997   0.7216881   0.3062850  )
        31           N   tau(  31) = (   0.2499997   0.7216881   1.1212245  )

   Crystallographic axes

     site n.     atom                  positions (cryst. coord.)
         1           Ga  tau(   1) = (  0.3333335  0.1666666  0.7495811  )
         2           Ga  tau(   2) = (  0.3333335  0.6666666  0.2495811  )
         3           Ga  tau(   3) = (  0.3333335  0.6666666  0.7495811  )
         4           Ga  tau(   4) = (  0.8333335  0.1666666  0.2495811  )
         5           Ga  tau(   5) = (  0.8333335  0.1666666  0.7495811  )
         6           Ga  tau(   6) = (  0.8333335  0.6666666  0.2495811  )
         7           Ga  tau(   7) = (  0.8333335  0.6666666  0.7495811  )
         8           Ga  tau(   8) = (  0.1666665  0.3333336  0.4995811  )
         9           Ga  tau(   9) = (  0.1666665  0.3333336  0.9995811  )
        10           Ga  tau(  10) = (  0.1666665  0.8333336  0.4995811  )
        11           Ga  tau(  11) = (  0.1666665  0.8333336  0.9995811  )
        12           Ga  tau(  12) = (  0.6666665  0.3333336  0.4995811  )
        13           Ga  tau(  13) = (  0.6666665  0.3333336  0.9995811  )
        14           Ga  tau(  14) = (  0.6666665  0.8333336  0.4995811  )
        15           Ga  tau(  15) = (  0.6666665  0.8333336  0.9995811  )
        16           N   tau(  16) = (  0.3333335  0.1666666  0.4379189  )
        17           N   tau(  17) = (  0.3333335  0.1666666  0.9379189  )
        18           N   tau(  18) = (  0.3333335  0.6666666  0.4379189  )
        19           N   tau(  19) = (  0.3333335  0.6666666  0.9379189  )
        20           N   tau(  20) = (  0.8333335  0.1666666  0.4379189  )
        21           N   tau(  21) = (  0.8333335  0.1666666  0.9379189  )
        22           N   tau(  22) = (  0.8333335  0.6666666  0.4379189  )
        23           N   tau(  23) = (  0.8333335  0.6666666  0.9379189  )
        24           N   tau(  24) = (  0.1666665  0.3333336  0.1879189  )
        25           N   tau(  25) = (  0.1666665  0.3333336  0.6879189  )
        26           N   tau(  26) = (  0.1666665  0.8333336  0.1879189  )
        27           N   tau(  27) = (  0.1666665  0.8333336  0.6879189  )
        28           N   tau(  28) = (  0.6666665  0.3333336  0.1879189  )
        29           N   tau(  29) = (  0.6666665  0.3333336  0.6879189  )
        30           N   tau(  30) = (  0.6666665  0.8333336  0.1879189  )
        31           N   tau(  31) = (  0.6666665  0.8333336  0.6879189  )

     number of k points=     8  Gaussian smearing, width (Ry)=  0.0100
                       cart. coord. in units 2pi/alat
        k(    1) = (   0.0000000   0.0000000   0.0000000), wk =   0.0625000
        k(    2) = (   0.0000000   0.0000000  -0.3067712), wk =   0.0625000
        k(    3) = (   0.0000000   0.2886751   0.0000000), wk =   0.3750000
        k(    4) = (   0.0000000   0.2886751  -0.3067712), wk =   0.3750000
        k(    5) = (   0.0000000  -0.5773503   0.0000000), wk =   0.1875000
        k(    6) = (   0.0000000  -0.5773503  -0.3067712), wk =   0.1875000
        k(    7) = (   0.2500000   0.4330127   0.0000000), wk =   0.3750000
        k(    8) = (   0.2500000   0.4330127  -0.3067712), wk =   0.3750000

                       cryst. coord.
        k(    1) = (   0.0000000   0.0000000   0.0000000), wk =   0.0625000
        k(    2) = (   0.0000000   0.0000000  -0.5000000), wk =   0.0625000
        k(    3) = (   0.0000000   0.2500000   0.0000000), wk =   0.3750000
        k(    4) = (   0.0000000   0.2500000  -0.5000000), wk =   0.3750000
        k(    5) = (   0.0000000  -0.5000000   0.0000000), wk =   0.1875000
        k(    6) = (   0.0000000  -0.5000000  -0.5000000), wk =   0.1875000
        k(    7) = (   0.2500000   0.2500000   0.0000000), wk =   0.3750000
        k(    8) = (   0.2500000   0.2500000  -0.5000000), wk =   0.3750000

     Dense  grid:   287969 G-vectors     FFT dimensions: (  80,  80, 120)

     Smooth grid:   206075 G-vectors     FFT dimensions: (  72,  72, 108)

     Dynamical RAM for                 wfc:       2.41 MB

     Dynamical RAM for     wfc (w. buffer):      21.73 MB

     Dynamical RAM for           str. fact:       0.33 MB

     Dynamical RAM for           local pot:       0.00 MB

     Dynamical RAM for          nlocal pot:       5.79 MB

     Dynamical RAM for                qrad:       3.00 MB

     Dynamical RAM for          rho,v,vnew:       1.22 MB

     Dynamical RAM for               rhoin:       0.41 MB

     Dynamical RAM for            rho*nmix:       2.60 MB

     Dynamical RAM for           G-vectors:       0.67 MB

     Dynamical RAM for          h,s,v(r/c):      20.18 MB

     Dynamical RAM for          <psi|beta>:       1.01 MB

     Dynamical RAM for                 psi:       9.66 MB

     Dynamical RAM for                hpsi:       9.66 MB

     Dynamical RAM for                spsi:       9.66 MB

     Dynamical RAM for      wfcinit/wfcrot:       5.46 MB

     Dynamical RAM for           addusdens:      32.88 MB

     Dynamical RAM for          addusforce:      37.91 MB

     Dynamical RAM for         addusstress:      32.72 MB

     Estimated static dynamical RAM per process >      34.85 MB

     Estimated max dynamical RAM per process >      87.61 MB

     Estimated total dynamical RAM >       2.31 GB

     Atomic positions and unit cell read from directory:
     ./GaN.save/
     Atomic positions from file used, from input discarded
 

     Check: negative core charge=   -0.000004

     The initial density is read from file :
     ./GaN.save/charge-density



     %%%%%%%%%%%%%%%%%%%%%%%%%%%%%%%%%%%%%%%%%%%%%%%%%%%%%%%%%%%%%%%%%%%%%%%%
     %                                                                      %
     % You are using vdW-DF, which was implemented by the Thonhauser group. %
     % Please cite the following two papers that made this development      %
     % possible and the two reviews that describe the various versions:     %
     %                                                                      %
     %   T. Thonhauser et al., PRL 115, 136402 (2015).                      %
     %   T. Thonhauser et al., PRB 76, 125112 (2007).                       %
     %   K. Berland et al., Rep. Prog. Phys. 78, 066501 (2015).             %
     %   D.C. Langreth et al., J. Phys.: Condens. Matter 21, 084203 (2009). %
     %                                                                      %
     % If you are calculating stress with vdW-DF, please also cite:         %
     %                                                                      %
     %   R. Sabatini et al., J. Phys.: Condens. Matter 24, 424209 (2012).   %
     %                                                                      %
     %%%%%%%%%%%%%%%%%%%%%%%%%%%%%%%%%%%%%%%%%%%%%%%%%%%%%%%%%%%%%%%%%%%%%%%%

     %%%%%%%%%%%%%%%%%%%%%%%%%%%%%%%%%%%%%%%%%%%%%%%%%%%%%%%%%%%%%%%%%%%%%%%%
     %                                                                      %
     %  vdW-DF NEWS:                                                        %
     %                                                                      %
     %  * vdW-DF3 is now available. DOI: 10.1021/acs.jctc.0c00471           %
     %    use with input_dft = 'vdW-DF3-opt1' or 'vdW-DF3-opt2'             %
     %                                                                      %
     %  * Unscreened and range-separated vdW-DF hybrid functionals          %
     %    DOI: 10.1063/1.4986522 and 10.1088/1361-648X/ac2ad2               %
     %    use with input_dft = 'vdW-DF-cx0' (etc) and 'vdW-DF-ahcx'         %
     %                                                                      %
     %%%%%%%%%%%%%%%%%%%%%%%%%%%%%%%%%%%%%%%%%%%%%%%%%%%%%%%%%%%%%%%%%%%%%%%%


     Carrying out vdW-DF run using the following parameters:
     Nqs    =  20  Npoints =  1024  r_max =  100.000
     q_mesh =  0.00001000  0.04494208  0.09755937  0.15916263
               0.23128650  0.31572767  0.41458969  0.53033537
               0.66584808  0.82450364  1.01025438  1.22772762
               1.48234092  1.78043706  2.12944203  2.53805004
               3.01644009  3.57652955  4.23227104  5.00000000


     -----------------------------------------------
     Non-local corr. energy    =       8.27274675 Ry
     -----------------------------------------------

     Starting wfcs from file
     Checking if some PAW data can be deallocated... 
       PAW data deallocated on   16 nodes for type:  1
       PAW data deallocated on   11 nodes for type:  2

     total cpu time spent up to now is        6.5 secs

     Self-consistent Calculation

     iteration #  1     ecut=    70.00 Ry     beta= 0.70
     Davidson diagonalization with overlap

---- Real-time Memory Report at c_bands before calling an iterative solver
           259 MiB given to the printing process from OS
             0 MiB allocation reported by mallinfo(arena+hblkhd)
       1959488 MiB available memory on the node where the printing process lives
------------------
     ethr =  1.00E-05,  avg # of iterations =  1.0

     Threshold (ethr) on eigenvalues was too large:
     Diagonalizing with lowered threshold

     Davidson diagonalization with overlap

---- Real-time Memory Report at c_bands before calling an iterative solver
           305 MiB given to the printing process from OS
             0 MiB allocation reported by mallinfo(arena+hblkhd)
       1958645 MiB available memory on the node where the printing process lives
------------------
     ethr =  9.78E-13,  avg # of iterations =  8.3


     -----------------------------------------------
     Non-local corr. energy    =       8.27274679 Ry
     -----------------------------------------------


     total cpu time spent up to now is       26.7 secs

     End of self-consistent calculation

          k = 0.0000 0.0000 0.0000 ( 25781 PWs)   bands (ev):

    -7.5844  -7.2755  -7.2514  -7.2000  -7.1737  -7.1736  -7.1380  -7.1338
    -7.1338  -7.1132  -7.0921  -7.0921  -6.8583  -6.8127  -6.8127  -6.7969
    -6.1139  -6.1139  -6.0745  -6.0739  -6.0739  -6.0521  -6.0521  -6.0359
    -6.0256  -6.0255  -6.0172  -6.0172  -6.0120  -6.0090  -5.9862  -5.9862
    -5.9577  -5.9577  -5.9435  -5.9435  -5.9255  -5.9147  -5.9108  -5.9108
    -5.8977  -5.8977  -5.8872  -5.8872  -5.8694  -5.8603  -5.8545  -5.8545
    -5.8527  -5.8458  -5.8458  -5.8293  -5.8293  -5.8239  -5.8018  -5.8018
    -5.7761  -5.7761  -5.7759  -5.7711  -5.7711  -5.7653  -5.7425  -5.7425
    -5.7301  -5.7231  -5.7072  -5.7072  -5.6814  -5.6814  -5.6471  -5.6471
    -5.6423  -5.6423  -5.6323  -5.6191  -5.5443  -5.4112  -4.3814  -4.3814
    -4.3626  -4.2307  -4.1227  -4.1227  -4.0602  -4.0226  -4.0226  -3.9496
    -3.5997  -3.5997  -3.5292   1.4515   1.6299   1.6597   1.6597   1.7137
     1.7411   1.7412   1.9618   1.9618   2.5101   2.9692   2.9693   4.0619
     4.1409   4.1410   4.1957   4.4421   5.4742   5.5158   5.5159   5.6240
     5.9783   6.0360   6.0360   6.1715   6.1715   6.1756   6.2314   6.2314
     6.2872   6.2873   6.3294   6.5720   6.5720   6.5813   7.0499   7.0500
     7.2037   7.2710   7.2711   7.5455   7.5456   7.5493   7.9093   7.9094
     8.3312   8.6472   8.6472   9.7770  11.8836  11.9616  12.2932  12.4492
    12.4492  12.6065  12.6065  12.6235  12.7307  13.1923  13.1924  13.4634
    13.6888  13.6888  14.3727  14.4576  14.4576  14.6092  15.5241  15.5241
    15.9038  16.0007  16.0007  16.0964  16.3081  16.3081

     occupation numbers 
     1.0000   1.0000   1.0000   1.0000   1.0000   1.0000   1.0000   1.0000
     1.0000   1.0000   1.0000   1.0000   1.0000   1.0000   1.0000   1.0000
     1.0000   1.0000   1.0000   1.0000   1.0000   1.0000   1.0000   1.0000
     1.0000   1.0000   1.0000   1.0000   1.0000   1.0000   1.0000   1.0000
     1.0000   1.0000   1.0000   1.0000   1.0000   1.0000   1.0000   1.0000
     1.0000   1.0000   1.0000   1.0000   1.0000   1.0000   1.0000   1.0000
     1.0000   1.0000   1.0000   1.0000   1.0000   1.0000   1.0000   1.0000
     1.0000   1.0000   1.0000   1.0000   1.0000   1.0000   1.0000   1.0000
     1.0000   1.0000   1.0000   1.0000   1.0000   1.0000   1.0000   1.0000
     1.0000   1.0000   1.0000   1.0000   1.0000   1.0000   1.0000   1.0000
     1.0000   1.0000   1.0000   1.0000   1.0000   1.0000   1.0000   1.0000
     1.0000   1.0000   1.0000   1.0000   1.0000   1.0000   1.0000   1.0000
     1.0000   1.0000   1.0000   1.0000   1.0000   1.0000   1.0000   1.0000
     1.0000   1.0000   1.0000   1.0000   1.0000   1.0000   1.0000   1.0000
     1.0000   1.0000   1.0000   1.0000   1.0000   1.0000   1.0000   1.0000
     1.0000   1.0000   1.0000   1.0000   1.0000   1.0000   1.0000   1.0000
     1.0000   1.0000   1.0000   1.0000   1.0000   1.0000   1.0000   1.0000
     0.9114   0.0265   0.0265   0.0000   0.0000   0.0000   0.0000   0.0000
     0.0000   0.0000   0.0000   0.0000   0.0000   0.0000   0.0000   0.0000
     0.0000   0.0000   0.0000   0.0000   0.0000   0.0000   0.0000   0.0000
     0.0000   0.0000   0.0000   0.0000   0.0000   0.0000

          k = 0.0000 0.0000-0.3068 ( 25758 PWs)   bands (ev):

    -7.5209  -7.3924  -7.2199  -7.1850  -7.1659  -7.1658  -7.1403  -7.1375
    -7.1374  -7.1125  -7.0961  -7.0961  -6.8612  -6.8135  -6.8135  -6.7957
    -6.1140  -6.1140  -6.0744  -6.0732  -6.0732  -6.0523  -6.0523  -6.0235
    -6.0235  -6.0197  -6.0107  -6.0107  -6.0104  -5.9913  -5.9913  -5.9884
    -5.9562  -5.9562  -5.9485  -5.9485  -5.9366  -5.9183  -5.9071  -5.9071
    -5.9001  -5.9001  -5.8905  -5.8879  -5.8878  -5.8646  -5.8573  -5.8551
    -5.8551  -5.8466  -5.8466  -5.8274  -5.8274  -5.8172  -5.8067  -5.8019
    -5.8019  -5.7795  -5.7795  -5.7725  -5.7725  -5.7721  -5.7609  -5.7415
    -5.7415  -5.7265  -5.7126  -5.7066  -5.7066  -5.6792  -5.6792  -5.6468
    -5.6468  -5.6430  -5.6430  -5.6325  -5.6192  -4.7618  -4.6904  -4.3524
    -4.3524  -4.3483  -4.2358  -4.2358  -4.0816  -3.9297  -3.9022  -3.9022
    -3.6328  -3.6328  -3.5200   1.5376   1.5470   1.5470   1.6939   1.6939
     1.8873   2.2408   2.2672   2.3487   2.3488   2.5126   2.5696   2.5697
     4.4670   4.8987   4.8987   5.0013   5.0013   5.1896   5.5901   5.5901
     5.5974   5.8020   5.9481   5.9481   5.9903   6.3693   6.4473   6.4926
     6.4927   6.5270   6.5271   6.7302   6.7855   6.7855   6.8103   7.0293
     7.0294   7.0512   7.1402   7.1403   7.6107   7.6108   7.8974   7.8975
     7.9938   8.6460   8.6460  10.8188  11.0759  12.0079  12.2753  12.3435
    12.3435  12.4944  12.4945  12.5074  12.7926  13.0670  13.0671  13.2664
    13.7117  13.7117  14.5717  15.4014  15.4088  15.4088  15.5066  15.5067
    15.5186  15.7680  15.7680  15.9022  15.9022  15.9499

     occupation numbers 
     1.0000   1.0000   1.0000   1.0000   1.0000   1.0000   1.0000   1.0000
     1.0000   1.0000   1.0000   1.0000   1.0000   1.0000   1.0000   1.0000
     1.0000   1.0000   1.0000   1.0000   1.0000   1.0000   1.0000   1.0000
     1.0000   1.0000   1.0000   1.0000   1.0000   1.0000   1.0000   1.0000
     1.0000   1.0000   1.0000   1.0000   1.0000   1.0000   1.0000   1.0000
     1.0000   1.0000   1.0000   1.0000   1.0000   1.0000   1.0000   1.0000
     1.0000   1.0000   1.0000   1.0000   1.0000   1.0000   1.0000   1.0000
     1.0000   1.0000   1.0000   1.0000   1.0000   1.0000   1.0000   1.0000
     1.0000   1.0000   1.0000   1.0000   1.0000   1.0000   1.0000   1.0000
     1.0000   1.0000   1.0000   1.0000   1.0000   1.0000   1.0000   1.0000
     1.0000   1.0000   1.0000   1.0000   1.0000   1.0000   1.0000   1.0000
     1.0000   1.0000   1.0000   1.0000   1.0000   1.0000   1.0000   1.0000
     1.0000   1.0000   1.0000   1.0000   1.0000   1.0000   1.0000   1.0000
     1.0000   1.0000   1.0000   1.0000   1.0000   1.0000   1.0000   1.0000
     1.0000   1.0000   1.0000   1.0000   1.0000   1.0000   1.0000   1.0000
     1.0000   1.0000   1.0000   1.0000   1.0000   1.0000   1.0000   1.0000
     1.0000   1.0000   1.0000   1.0000   1.0000   1.0000   1.0000   1.0000
     1.0000   0.0273   0.0273   0.0000   0.0000   0.0000   0.0000   0.0000
     0.0000   0.0000   0.0000   0.0000   0.0000   0.0000   0.0000   0.0000
     0.0000   0.0000   0.0000   0.0000   0.0000   0.0000   0.0000   0.0000
     0.0000   0.0000   0.0000   0.0000   0.0000   0.0000

          k = 0.0000 0.2887 0.0000 ( 25764 PWs)   bands (ev):

    -7.4861  -7.2360  -7.2179  -7.2039  -7.1752  -7.1647  -7.1372  -7.1309
    -7.1284  -7.1119  -7.0935  -7.0874  -6.8501  -6.8144  -6.8077  -6.7867
    -6.0934  -6.0889  -6.0683  -6.0595  -6.0577  -6.0479  -6.0443  -6.0258
    -6.0230  -6.0174  -6.0150  -6.0108  -6.0033  -5.9889  -5.9724  -5.9694
    -5.9641  -5.9579  -5.9446  -5.9419  -5.9258  -5.9227  -5.9180  -5.9167
    -5.9084  -5.8949  -5.8916  -5.8895  -5.8761  -5.8685  -5.8647  -5.8603
    -5.8602  -5.8566  -5.8517  -5.8348  -5.8317  -5.8244  -5.8144  -5.8046
    -5.7909  -5.7896  -5.7875  -5.7816  -5.7721  -5.7576  -5.7517  -5.7440
    -5.7346  -5.7209  -5.7184  -5.7031  -5.6957  -5.6832  -5.6681  -5.6583
    -5.6514  -5.6451  -5.6426  -5.6361  -5.4070  -5.2926  -4.9079  -4.4817
    -4.4618  -4.4241  -4.3172  -4.1575  -4.1318  -4.0308  -4.0080  -3.7810
    -3.6103  -3.5285  -3.4659   1.6344   1.9056   1.9084   1.9381   1.9950
     2.1084   2.1709   2.2590   2.4012   2.8604   3.1081   3.3997   3.7779
     4.1062   4.1310   4.1975   4.4368   4.9725   4.9734   5.3758   5.4425
     5.6011   5.6156   5.7540   5.8074   6.0722   6.1313   6.1715   6.2758
     6.3537   6.3667   6.4092   6.4593   6.4981   6.6033   6.6319   6.7491
     6.7505   6.8515   6.9251   6.9257   7.2675   7.3387   7.5579   7.7598
     8.2097   8.3488   8.6006  10.8228  12.5549  12.6166  12.7014  12.7894
    12.9306  13.0573  13.1284  13.2442  13.2558  13.3882  13.8441  13.9104
    14.0908  14.1583  14.4217  14.5964  14.7584  14.9004  15.5966  15.6975
    15.7394  15.9507  16.0007  16.0603  16.1051  16.2927

     occupation numbers 
     1.0000   1.0000   1.0000   1.0000   1.0000   1.0000   1.0000   1.0000
     1.0000   1.0000   1.0000   1.0000   1.0000   1.0000   1.0000   1.0000
     1.0000   1.0000   1.0000   1.0000   1.0000   1.0000   1.0000   1.0000
     1.0000   1.0000   1.0000   1.0000   1.0000   1.0000   1.0000   1.0000
     1.0000   1.0000   1.0000   1.0000   1.0000   1.0000   1.0000   1.0000
     1.0000   1.0000   1.0000   1.0000   1.0000   1.0000   1.0000   1.0000
     1.0000   1.0000   1.0000   1.0000   1.0000   1.0000   1.0000   1.0000
     1.0000   1.0000   1.0000   1.0000   1.0000   1.0000   1.0000   1.0000
     1.0000   1.0000   1.0000   1.0000   1.0000   1.0000   1.0000   1.0000
     1.0000   1.0000   1.0000   1.0000   1.0000   1.0000   1.0000   1.0000
     1.0000   1.0000   1.0000   1.0000   1.0000   1.0000   1.0000   1.0000
     1.0000   1.0000   1.0000   1.0000   1.0000   1.0000   1.0000   1.0000
     1.0000   1.0000   1.0000   1.0000   1.0000   1.0000   1.0000   1.0000
     1.0000   1.0000   1.0000   1.0000   1.0000   1.0000   1.0000   1.0000
     1.0000   1.0000   1.0000   1.0000   1.0000   1.0000   1.0000   1.0000
     1.0000   1.0000   1.0000   1.0000   1.0000   1.0000   1.0000   1.0000
     1.0000   1.0000   1.0000   1.0000   1.0000   1.0000   1.0000   1.0000
     0.9955   0.8783   0.0734   0.0000   0.0000   0.0000   0.0000   0.0000
     0.0000   0.0000   0.0000   0.0000   0.0000   0.0000   0.0000   0.0000
     0.0000   0.0000   0.0000   0.0000   0.0000   0.0000   0.0000   0.0000
     0.0000   0.0000   0.0000   0.0000   0.0000   0.0000

          k = 0.0000 0.2887-0.3068 ( 25732 PWs)   bands (ev):

    -7.4319  -7.3248  -7.2099  -7.1788  -7.1663  -7.1569  -7.1461  -7.1336
    -7.1283  -7.1109  -7.0972  -7.0922  -6.8526  -6.8155  -6.8086  -6.7861
    -6.0934  -6.0905  -6.0691  -6.0584  -6.0581  -6.0457  -6.0417  -6.0268
    -6.0226  -6.0170  -6.0080  -6.0036  -6.0001  -5.9843  -5.9781  -5.9753
    -5.9607  -5.9587  -5.9456  -5.9394  -5.9283  -5.9238  -5.9203  -5.9154
    -5.9047  -5.8966  -5.8960  -5.8892  -5.8789  -5.8687  -5.8684  -5.8602
    -5.8577  -5.8545  -5.8415  -5.8329  -5.8306  -5.8241  -5.8063  -5.8052
    -5.7928  -5.7909  -5.7893  -5.7789  -5.7756  -5.7598  -5.7482  -5.7432
    -5.7391  -5.7381  -5.7122  -5.7036  -5.6974  -5.6820  -5.6754  -5.6649
    -5.6531  -5.6515  -5.6454  -5.6430  -5.6366  -4.8605  -4.7370  -4.6181
    -4.5622  -4.4231  -4.4108  -4.2815  -4.1210  -3.9274  -3.8684  -3.8308
    -3.6279  -3.5923  -3.5125   1.7710   1.7914   1.9217   1.9486   2.0201
     2.2327   2.3819   2.5137   2.5794   2.6421   2.7396   3.0315   3.1032
     4.3488   4.5988   4.6241   4.6423   4.8508   5.1094   5.2501   5.3067
     5.4905   5.6001   5.7716   5.7839   5.9399   6.0393   6.1572   6.1581
     6.2024   6.2909   6.4105   6.4315   6.5395   6.6360   6.7579   6.7618
     6.8609   6.9165   6.9600   7.0384   7.2302   7.4712   7.5274   7.7272
     7.9711   8.4372   8.5968  11.4669  11.6588  12.3941  12.5208  12.7954
    12.9147  12.9940  13.0769  13.1412  13.3097  13.5114  13.9550  13.9943
    14.1869  14.4328  14.7949  15.1693  15.2010  15.3026  15.3670  15.4436
    15.5530  15.7913  15.8244  15.9956  16.1096  16.1179

     occupation numbers 
     1.0000   1.0000   1.0000   1.0000   1.0000   1.0000   1.0000   1.0000
     1.0000   1.0000   1.0000   1.0000   1.0000   1.0000   1.0000   1.0000
     1.0000   1.0000   1.0000   1.0000   1.0000   1.0000   1.0000   1.0000
     1.0000   1.0000   1.0000   1.0000   1.0000   1.0000   1.0000   1.0000
     1.0000   1.0000   1.0000   1.0000   1.0000   1.0000   1.0000   1.0000
     1.0000   1.0000   1.0000   1.0000   1.0000   1.0000   1.0000   1.0000
     1.0000   1.0000   1.0000   1.0000   1.0000   1.0000   1.0000   1.0000
     1.0000   1.0000   1.0000   1.0000   1.0000   1.0000   1.0000   1.0000
     1.0000   1.0000   1.0000   1.0000   1.0000   1.0000   1.0000   1.0000
     1.0000   1.0000   1.0000   1.0000   1.0000   1.0000   1.0000   1.0000
     1.0000   1.0000   1.0000   1.0000   1.0000   1.0000   1.0000   1.0000
     1.0000   1.0000   1.0000   1.0000   1.0000   1.0000   1.0000   1.0000
     1.0000   1.0000   1.0000   1.0000   1.0000   1.0000   1.0000   1.0000
     1.0000   1.0000   1.0000   1.0000   1.0000   1.0000   1.0000   1.0000
     1.0000   1.0000   1.0000   1.0000   1.0000   1.0000   1.0000   1.0000
     1.0000   1.0000   1.0000   1.0000   1.0000   1.0000   1.0000   1.0000
     1.0000   1.0000   1.0000   1.0000   1.0000   1.0000   1.0000   1.0000
     1.0000   0.5980   0.0791   0.0000   0.0000   0.0000   0.0000   0.0000
     0.0000   0.0000   0.0000   0.0000   0.0000   0.0000   0.0000   0.0000
     0.0000   0.0000   0.0000   0.0000   0.0000   0.0000   0.0000   0.0000
     0.0000   0.0000   0.0000   0.0000   0.0000   0.0000

          k = 0.0000-0.5774 0.0000 ( 25772 PWs)   bands (ev):

    -7.3299  -7.2710  -7.1932  -7.1689  -7.1603  -7.1547  -7.1546  -7.1286
    -7.1260  -7.1103  -7.0964  -7.0826  -6.8397  -6.8180  -6.8026  -6.7758
    -6.0743  -6.0670  -6.0569  -6.0532  -6.0505  -6.0449  -6.0319  -6.0229
    -6.0102  -6.0050  -6.0009  -5.9836  -5.9814  -5.9754  -5.9677  -5.9632
    -5.9582  -5.9548  -5.9514  -5.9428  -5.9372  -5.9367  -5.9348  -5.9221
    -5.9045  -5.8983  -5.8948  -5.8844  -5.8828  -5.8813  -5.8742  -5.8652
    -5.8583  -5.8550  -5.8396  -5.8373  -5.8325  -5.8190  -5.8183  -5.8098
    -5.8042  -5.8016  -5.7974  -5.7808  -5.7767  -5.7524  -5.7373  -5.7363
    -5.7334  -5.7228  -5.7162  -5.7029  -5.6917  -5.6879  -5.6811  -5.6595
    -5.6542  -5.6503  -5.6434  -5.6108  -5.5353  -5.0579  -4.9941  -4.9583
    -4.8132  -4.5239  -4.4403  -4.1399  -4.1162  -4.0044  -3.8987  -3.8247
    -3.6498  -3.4651  -3.4401   1.9856   2.2170   2.2314   2.2395   2.2904
     2.3600   2.4405   2.9294   3.1412   3.4052   3.5439   3.6008   3.6755
     4.0863   4.1781   4.2588   4.3861   4.3916   4.5275   4.8497   4.8581
     4.9419   5.1584   5.1730   5.4070   5.8814   6.0311   6.0600   6.0639
     6.1344   6.2039   6.2488   6.2656   6.3521   6.4226   6.4473   6.6250
     6.7308   6.7640   6.8189   6.8727   7.1090   7.3607   7.5167   7.5507
     7.7950   8.3203   8.5465  12.0166  12.2353  13.0752  13.1188  13.1773
    13.3357  13.7064  13.7568  13.8104  13.9011  14.0168  14.2049  14.3606
    14.3910  14.4302  14.9614  15.3538  15.3965  15.4142  15.5144  15.5324
    15.5729  15.7098  15.7603  15.7890  15.9256  16.0035

     occupation numbers 
     1.0000   1.0000   1.0000   1.0000   1.0000   1.0000   1.0000   1.0000
     1.0000   1.0000   1.0000   1.0000   1.0000   1.0000   1.0000   1.0000
     1.0000   1.0000   1.0000   1.0000   1.0000   1.0000   1.0000   1.0000
     1.0000   1.0000   1.0000   1.0000   1.0000   1.0000   1.0000   1.0000
     1.0000   1.0000   1.0000   1.0000   1.0000   1.0000   1.0000   1.0000
     1.0000   1.0000   1.0000   1.0000   1.0000   1.0000   1.0000   1.0000
     1.0000   1.0000   1.0000   1.0000   1.0000   1.0000   1.0000   1.0000
     1.0000   1.0000   1.0000   1.0000   1.0000   1.0000   1.0000   1.0000
     1.0000   1.0000   1.0000   1.0000   1.0000   1.0000   1.0000   1.0000
     1.0000   1.0000   1.0000   1.0000   1.0000   1.0000   1.0000   1.0000
     1.0000   1.0000   1.0000   1.0000   1.0000   1.0000   1.0000   1.0000
     1.0000   1.0000   1.0000   1.0000   1.0000   1.0000   1.0000   1.0000
     1.0000   1.0000   1.0000   1.0000   1.0000   1.0000   1.0000   1.0000
     1.0000   1.0000   1.0000   1.0000   1.0000   1.0000   1.0000   1.0000
     1.0000   1.0000   1.0000   1.0000   1.0000   1.0000   1.0000   1.0000
     1.0000   1.0000   1.0000   1.0000   1.0000   1.0000   1.0000   1.0000
     1.0000   1.0000   1.0000   1.0000   1.0000   1.0000   1.0000   1.0000
     1.0000   0.9283   0.1874   0.0000   0.0000   0.0000   0.0000   0.0000
     0.0000   0.0000   0.0000   0.0000   0.0000   0.0000   0.0000   0.0000
     0.0000   0.0000   0.0000   0.0000   0.0000   0.0000   0.0000   0.0000
     0.0000   0.0000   0.0000   0.0000   0.0000   0.0000

          k = 0.0000-0.5774-0.3068 ( 25740 PWs)   bands (ev):

    -7.2925  -7.2527  -7.2301  -7.1816  -7.1754  -7.1468  -7.1439  -7.1305
    -7.1268  -7.1109  -7.0961  -7.0882  -6.8413  -6.8197  -6.8036  -6.7759
    -6.0748  -6.0642  -6.0563  -6.0546  -6.0495  -6.0450  -6.0336  -6.0219
    -6.0104  -6.0086  -5.9985  -5.9820  -5.9820  -5.9786  -5.9642  -5.9641
    -5.9635  -5.9611  -5.9541  -5.9394  -5.9393  -5.9332  -5.9311  -5.9299
    -5.9038  -5.8952  -5.8919  -5.8861  -5.8855  -5.8820  -5.8772  -5.8605
    -5.8575  -5.8488  -5.8423  -5.8411  -5.8381  -5.8223  -5.8132  -5.8066
    -5.8038  -5.7956  -5.7872  -5.7783  -5.7740  -5.7568  -5.7385  -5.7371
    -5.7267  -5.7226  -5.7168  -5.7026  -5.6932  -5.6881  -5.6830  -5.6607
    -5.6545  -5.6501  -5.6440  -5.5256  -5.4876  -5.4447  -5.2224  -4.4811
    -4.4773  -4.3959  -4.3272  -4.3197  -4.2848  -4.1618  -3.9401  -3.7768
    -3.6093  -3.5584  -3.5031   2.1188   2.1645   2.2261   2.3514   2.4964
     2.5681   2.6059   2.7427   2.8173   2.8763   2.9605   4.1091   4.2408
     4.2746   4.3223   4.3750   4.4126   4.5671   4.5786   4.7428   4.8834
     4.9427   5.1025   5.1464   5.2333   5.3434   5.6481   5.6535   5.7405
     5.9558   6.1558   6.2535   6.3016   6.3870   6.6558   6.6875   6.7405
     6.8962   6.9250   7.1263   7.1866   7.2460   7.3746   7.3803   7.4122
     7.6358   8.4004   8.5411  12.1782  12.2441  12.3127  12.6108  13.6640
    13.7086  13.7998  13.8475  13.9294  13.9582  14.1064  14.1739  14.3507
    14.4202  14.6430  15.0352  15.2078  15.3131  15.4522  15.4940  15.5816
    15.6868  15.7471  15.7870  15.8315  15.9250  16.0278

     occupation numbers 
     1.0000   1.0000   1.0000   1.0000   1.0000   1.0000   1.0000   1.0000
     1.0000   1.0000   1.0000   1.0000   1.0000   1.0000   1.0000   1.0000
     1.0000   1.0000   1.0000   1.0000   1.0000   1.0000   1.0000   1.0000
     1.0000   1.0000   1.0000   1.0000   1.0000   1.0000   1.0000   1.0000
     1.0000   1.0000   1.0000   1.0000   1.0000   1.0000   1.0000   1.0000
     1.0000   1.0000   1.0000   1.0000   1.0000   1.0000   1.0000   1.0000
     1.0000   1.0000   1.0000   1.0000   1.0000   1.0000   1.0000   1.0000
     1.0000   1.0000   1.0000   1.0000   1.0000   1.0000   1.0000   1.0000
     1.0000   1.0000   1.0000   1.0000   1.0000   1.0000   1.0000   1.0000
     1.0000   1.0000   1.0000   1.0000   1.0000   1.0000   1.0000   1.0000
     1.0000   1.0000   1.0000   1.0000   1.0000   1.0000   1.0000   1.0000
     1.0000   1.0000   1.0000   1.0000   1.0000   1.0000   1.0000   1.0000
     1.0000   1.0000   1.0000   1.0000   1.0000   1.0000   1.0000   1.0000
     1.0000   1.0000   1.0000   1.0000   1.0000   1.0000   1.0000   1.0000
     1.0000   1.0000   1.0000   1.0000   1.0000   1.0000   1.0000   1.0000
     1.0000   1.0000   1.0000   1.0000   1.0000   1.0000   1.0000   1.0000
     1.0000   1.0000   1.0000   1.0000   1.0000   1.0000   1.0000   1.0000
     1.0000   0.7359   0.2026   0.0000   0.0000   0.0000   0.0000   0.0000
     0.0000   0.0000   0.0000   0.0000   0.0000   0.0000   0.0000   0.0000
     0.0000   0.0000   0.0000   0.0000   0.0000   0.0000   0.0000   0.0000
     0.0000   0.0000   0.0000   0.0000   0.0000   0.0000

          k = 0.2500 0.4330 0.0000 ( 25702 PWs)   bands (ev):

    -7.3511  -7.2317  -7.1955  -7.1893  -7.1720  -7.1501  -7.1420  -7.1320
    -7.1232  -7.1109  -7.0934  -7.0853  -6.8402  -6.8150  -6.8051  -6.7758
    -6.0726  -6.0699  -6.0606  -6.0534  -6.0478  -6.0440  -6.0346  -6.0278
    -6.0178  -6.0012  -6.0009  -5.9867  -5.9819  -5.9718  -5.9690  -5.9649
    -5.9613  -5.9556  -5.9496  -5.9418  -5.9375  -5.9343  -5.9315  -5.9233
    -5.9051  -5.9030  -5.8895  -5.8840  -5.8803  -5.8749  -5.8699  -5.8651
    -5.8592  -5.8540  -5.8480  -5.8368  -5.8315  -5.8295  -5.8205  -5.8155
    -5.8059  -5.8006  -5.7936  -5.7802  -5.7661  -5.7507  -5.7474  -5.7380
    -5.7330  -5.7230  -5.7092  -5.6988  -5.6967  -5.6891  -5.6793  -5.6694
    -5.6658  -5.6546  -5.6477  -5.6434  -5.2458  -5.1677  -5.1199  -4.9879
    -4.6578  -4.6240  -4.5718  -4.2408  -4.0301  -3.9177  -3.8730  -3.7316
    -3.5993  -3.5267  -3.4800   1.9407   2.0389   2.0709   2.2750   2.4306
     2.6080   2.8686   2.8875   2.9290   3.0117   3.5185   3.6178   3.7628
     3.8581   3.9509   4.1794   4.2683   4.4026   4.6933   4.9612   5.1412
     5.2449   5.3943   5.4673   5.6955   5.7545   5.8439   5.9322   5.9622
     6.1405   6.1611   6.2275   6.2489   6.3283   6.4650   6.5041   6.5985
     6.6785   6.7540   6.8051   6.8830   6.9934   7.1043   7.3891   7.5010
     7.9203   8.3401   8.4447  11.8821  13.0006  13.0760  13.2462  13.3011
    13.4057  13.4426  13.5270  13.6610  13.8938  14.0366  14.1569  14.2904
    14.5183  14.8218  14.9833  15.1239  15.1664  15.4585  15.4872  15.5044
    15.5593  15.6633  15.7854  15.8397  15.9545  16.1153

     occupation numbers 
     1.0000   1.0000   1.0000   1.0000   1.0000   1.0000   1.0000   1.0000
     1.0000   1.0000   1.0000   1.0000   1.0000   1.0000   1.0000   1.0000
     1.0000   1.0000   1.0000   1.0000   1.0000   1.0000   1.0000   1.0000
     1.0000   1.0000   1.0000   1.0000   1.0000   1.0000   1.0000   1.0000
     1.0000   1.0000   1.0000   1.0000   1.0000   1.0000   1.0000   1.0000
     1.0000   1.0000   1.0000   1.0000   1.0000   1.0000   1.0000   1.0000
     1.0000   1.0000   1.0000   1.0000   1.0000   1.0000   1.0000   1.0000
     1.0000   1.0000   1.0000   1.0000   1.0000   1.0000   1.0000   1.0000
     1.0000   1.0000   1.0000   1.0000   1.0000   1.0000   1.0000   1.0000
     1.0000   1.0000   1.0000   1.0000   1.0000   1.0000   1.0000   1.0000
     1.0000   1.0000   1.0000   1.0000   1.0000   1.0000   1.0000   1.0000
     1.0000   1.0000   1.0000   1.0000   1.0000   1.0000   1.0000   1.0000
     1.0000   1.0000   1.0000   1.0000   1.0000   1.0000   1.0000   1.0000
     1.0000   1.0000   1.0000   1.0000   1.0000   1.0000   1.0000   1.0000
     1.0000   1.0000   1.0000   1.0000   1.0000   1.0000   1.0000   1.0000
     1.0000   1.0000   1.0000   1.0000   1.0000   1.0000   1.0000   1.0000
     1.0000   1.0000   1.0000   1.0000   1.0000   1.0000   1.0000   1.0000
     1.0000   0.8956   0.5676   0.0000   0.0000   0.0000   0.0000   0.0000
     0.0000   0.0000   0.0000   0.0000   0.0000   0.0000   0.0000   0.0000
     0.0000   0.0000   0.0000   0.0000   0.0000   0.0000   0.0000   0.0000
     0.0000   0.0000   0.0000   0.0000   0.0000   0.0000

          k = 0.2500 0.4330-0.3068 ( 25730 PWs)   bands (ev):

    -7.3131  -7.2392  -7.2168  -7.1860  -7.1654  -7.1593  -7.1453  -7.1320
    -7.1238  -7.1099  -7.0947  -7.0904  -6.8420  -6.8165  -6.8061  -6.7759
    -6.0729  -6.0680  -6.0598  -6.0530  -6.0474  -6.0449  -6.0353  -6.0274
    -6.0194  -6.0025  -5.9993  -5.9877  -5.9802  -5.9755  -5.9706  -5.9682
    -5.9613  -5.9571  -5.9501  -5.9428  -5.9426  -5.9341  -5.9301  -5.9195
    -5.9021  -5.9002  -5.8922  -5.8865  -5.8842  -5.8742  -5.8704  -5.8618
    -5.8585  -5.8545  -5.8461  -5.8400  -5.8384  -5.8234  -5.8186  -5.8054
    -5.8025  -5.7950  -5.7877  -5.7792  -5.7701  -5.7555  -5.7457  -5.7354
    -5.7320  -5.7171  -5.7081  -5.6997  -5.6909  -5.6891  -5.6824  -5.6668
    -5.6596  -5.6508  -5.6494  -5.6093  -5.4881  -5.1227  -5.0843  -5.0330
    -4.7559  -4.3746  -4.3085  -4.0626  -4.0339  -4.0107  -3.9801  -3.8604
    -3.6971  -3.5910  -3.4757   2.0747   2.2176   2.3199   2.3757   2.4354
     2.4937   2.5282   2.5597   2.6821   3.3694   3.5367   3.6079   3.6515
     3.7059   4.0536   4.4452   4.6324   4.6874   4.8764   4.9466   5.0876
     5.1756   5.2993   5.3115   5.4359   5.4838   5.5157   5.6405   5.7419
     5.9890   6.1303   6.2248   6.3224   6.4299   6.4747   6.5933   6.6268
     6.7114   7.0007   7.0231   7.1258   7.1782   7.2243   7.2669   7.4571
     7.7687   8.4046   8.4624  12.2096  12.3321  12.8021  12.8520  13.0121
    13.2364  13.7843  13.9456  14.0436  14.1591  14.2833  14.3558  14.6266
    14.8101  14.9224  14.9852  15.0665  15.0833  15.1355  15.2124  15.4327
    15.6148  15.6876  15.7396  15.8483  15.9119  15.9534

     occupation numbers 
     1.0000   1.0000   1.0000   1.0000   1.0000   1.0000   1.0000   1.0000
     1.0000   1.0000   1.0000   1.0000   1.0000   1.0000   1.0000   1.0000
     1.0000   1.0000   1.0000   1.0000   1.0000   1.0000   1.0000   1.0000
     1.0000   1.0000   1.0000   1.0000   1.0000   1.0000   1.0000   1.0000
     1.0000   1.0000   1.0000   1.0000   1.0000   1.0000   1.0000   1.0000
     1.0000   1.0000   1.0000   1.0000   1.0000   1.0000   1.0000   1.0000
     1.0000   1.0000   1.0000   1.0000   1.0000   1.0000   1.0000   1.0000
     1.0000   1.0000   1.0000   1.0000   1.0000   1.0000   1.0000   1.0000
     1.0000   1.0000   1.0000   1.0000   1.0000   1.0000   1.0000   1.0000
     1.0000   1.0000   1.0000   1.0000   1.0000   1.0000   1.0000   1.0000
     1.0000   1.0000   1.0000   1.0000   1.0000   1.0000   1.0000   1.0000
     1.0000   1.0000   1.0000   1.0000   1.0000   1.0000   1.0000   1.0000
     1.0000   1.0000   1.0000   1.0000   1.0000   1.0000   1.0000   1.0000
     1.0000   1.0000   1.0000   1.0000   1.0000   1.0000   1.0000   1.0000
     1.0000   1.0000   1.0000   1.0000   1.0000   1.0000   1.0000   1.0000
     1.0000   1.0000   1.0000   1.0000   1.0000   1.0000   1.0000   1.0000
     1.0000   1.0000   1.0000   1.0000   1.0000   1.0000   1.0000   1.0000
     1.0000   0.7213   0.4944   0.0000   0.0000   0.0000   0.0000   0.0000
     0.0000   0.0000   0.0000   0.0000   0.0000   0.0000   0.0000   0.0000
     0.0000   0.0000   0.0000   0.0000   0.0000   0.0000   0.0000   0.0000
     0.0000   0.0000   0.0000   0.0000   0.0000   0.0000

     the Fermi energy is     8.4611 ev

!    total energy              =   -4712.20892141 Ry
     total all-electron energy =    -60165.459609 Ry
     estimated scf accuracy    <          4.0E-09 Ry
     smearing contrib. (-TS)   =      -0.00735393 Ry
     internal energy E=F+TS    =   -4712.20156748 Ry

     The total energy is F=E-TS. E is the sum of the following terms:
     one-electron contribution =   -1530.54326572 Ry
     hartree contribution      =    1046.97636854 Ry
     xc contribution           =    -689.21347349 Ry
     ewald contribution        =   -1666.64138694 Ry
     one-center paw contrib.   =   -1872.77980987 Ry
      -> PAW hartree energy AE =     290.29816605 Ry
      -> PAW hartree energy PS =    -287.53642162 Ry
      -> PAW xc energy AE      =    -313.97537953 Ry
      -> PAW xc energy PS      =      79.55872875 Ry
      -> total E_H with PAW    =    1049.73811296 Ry
      -> total E_XC with PAW   =    -923.63012427 Ry

     convergence has been achieved in   1 iterations


     -----------------------------------------------
     Non-local corr. energy    =       8.27274679 Ry
     -----------------------------------------------


     Forces acting on atoms (cartesian axes, Ry/au):

     atom    1 type  1   force =     0.00000000    0.00000000    0.00007296
     atom    2 type  1   force =    -0.00007048   -0.00004069   -0.00012642
     atom    3 type  1   force =    -0.00012869   -0.00007430   -0.00023191
     atom    4 type  1   force =     0.00000000    0.00008138   -0.00012642
     atom    5 type  1   force =     0.00000000    0.00014860   -0.00023191
     atom    6 type  1   force =     0.00007048   -0.00004069   -0.00012642
     atom    7 type  1   force =     0.00012869   -0.00007430   -0.00023191
     atom    8 type  1   force =    -0.00013815    0.00007976   -0.00010821
     atom    9 type  1   force =     0.00041261   -0.00023822   -0.00046581
     atom   10 type  1   force =     0.00000000   -0.00015952   -0.00010821
     atom   11 type  1   force =     0.00000000    0.00047644   -0.00046581
     atom   12 type  1   force =     0.00013815    0.00007976   -0.00010821
     atom   13 type  1   force =    -0.00041261   -0.00023822   -0.00046581
     atom   14 type  1   force =     0.00000000    0.00000000   -0.00010329
     atom   15 type  1   force =     0.00000000    0.00000000   -0.00018660
     atom   16 type  2   force =     0.00000000    0.00000000    0.00081074
     atom   17 type  2   force =     0.00000000    0.00000000   -0.00011043
     atom   18 type  2   force =    -0.00034617   -0.00019986   -0.00011755
     atom   19 type  2   force =    -0.00005696   -0.00003289    0.00046393
     atom   20 type  2   force =     0.00000000    0.00039973   -0.00011755
     atom   21 type  2   force =     0.00000000    0.00006577    0.00046393
     atom   22 type  2   force =     0.00034617   -0.00019986   -0.00011755
     atom   23 type  2   force =     0.00005696   -0.00003289    0.00046393
     atom   24 type  2   force =     0.00006625   -0.00003825    0.00001255
     atom   25 type  2   force =     0.00046494   -0.00026843    0.00030199
     atom   26 type  2   force =    -0.00000000    0.00007649    0.00001255
     atom   27 type  2   force =    -0.00000000    0.00053686    0.00030199
     atom   28 type  2   force =    -0.00006625   -0.00003825    0.00001255
     atom   29 type  2   force =    -0.00046494   -0.00026843    0.00030199
     atom   30 type  2   force =     0.00000000    0.00000000    0.00059327
     atom   31 type  2   force =     0.00000000    0.00000000   -0.00026240
     The non-local contrib.  to forces
     atom    1 type  1   force =     0.00000000    0.00000000    0.00872345
     atom    2 type  1   force =     0.11859650    0.06847172    0.09136281
     atom    3 type  1   force =     0.03170093    0.01830254   -0.02950999
     atom    4 type  1   force =     0.00000000   -0.13694344    0.09136281
     atom    5 type  1   force =     0.00000000   -0.03660508   -0.02950999
     atom    6 type  1   force =    -0.11859650    0.06847172    0.09136281
     atom    7 type  1   force =    -0.03170093    0.01830254   -0.02950999
     atom    8 type  1   force =    -0.18730383    0.10813992    0.05043548
     atom    9 type  1   force =     0.03645050   -0.02104470   -0.14984377
     atom   10 type  1   force =     0.00000000   -0.21627983    0.05043548
     atom   11 type  1   force =     0.00000000    0.04208941   -0.14984377
     atom   12 type  1   force =     0.18730383    0.10813992    0.05043548
     atom   13 type  1   force =    -0.03645050   -0.02104470   -0.14984377
     atom   14 type  1   force =     0.00000000    0.00000000    0.00937296
     atom   15 type  1   force =    -0.00000000   -0.00000000    0.02649603
     atom   16 type  2   force =     0.00000000    0.00000000    0.55780499
     atom   17 type  2   force =     0.00000000    0.00000000    0.03119644
     atom   18 type  2   force =     0.01772762    0.01023505   -0.00652130
     atom   19 type  2   force =     0.03932445    0.02270398   -0.01045598
     atom   20 type  2   force =     0.00000000   -0.02047009   -0.00652130
     atom   21 type  2   force =     0.00000000   -0.04540797   -0.01045598
     atom   22 type  2   force =    -0.01772762    0.01023505   -0.00652130
     atom   23 type  2   force =    -0.03932445    0.02270398   -0.01045598
     atom   24 type  2   force =    -0.34182428    0.19735234   -0.21657962
     atom   25 type  2   force =    -0.01254344    0.00724196    0.10090392
     atom   26 type  2   force =     0.00000000   -0.39470468   -0.21657962
     atom   27 type  2   force =     0.00000000   -0.01448392    0.10090392
     atom   28 type  2   force =     0.34182428    0.19735234   -0.21657962
     atom   29 type  2   force =     0.01254344    0.00724196    0.10090392
     atom   30 type  2   force =     0.00000000    0.00000000    0.01721284
     atom   31 type  2   force =     0.00000000   -0.00000000    0.00800526
     The ionic contribution  to forces
     atom    1 type  1   force =    -0.00003374    0.00002056    1.08456334
     atom    2 type  1   force =     0.92139406    0.53200057    0.37805107
     atom    3 type  1   force =    -0.00466695   -0.00265390    0.27521652
     atom    4 type  1   force =    -0.00002719   -1.06394799    0.37805045
     atom    5 type  1   force =    -0.00003266    0.00537118    0.27521631
     atom    6 type  1   force =    -0.92146409    0.53200990    0.37805839
     atom    7 type  1   force =     0.00460095   -0.00265346    0.27521622
     atom    8 type  1   force =     1.42090980   -0.82036578   -8.29410497
     atom    9 type  1   force =     3.32045267   -1.91706736    7.79749779
     atom   10 type  1   force =     0.00003624    1.64066111   -8.29412853
     atom   11 type  1   force =     0.00003649    3.83408009    7.79751724
     atom   12 type  1   force =    -1.42083717   -0.82036567   -8.29412725
     atom   13 type  1   force =    -3.32039296   -1.91707502    7.79751658
     atom   14 type  1   force =     0.00003027   -0.00001836   -5.35983273
     atom   15 type  1   force =     0.00002931   -0.00001775    5.97546245
     atom   16 type  2   force =    -0.00003636    0.00002266   -9.50677896
     atom   17 type  2   force =    -0.00002923    0.00001817    2.91749091
     atom   18 type  2   force =    -0.17628812   -0.10174220   -2.44782583
     atom   19 type  2   force =    -0.09843850   -0.05680013    1.75487012
     atom   20 type  2   force =    -0.00003084    0.20354356   -2.44782573
     atom   21 type  2   force =    -0.00002717    0.11365278    1.75487037
     atom   22 type  2   force =     0.17622825   -0.10174314   -2.44782346
     atom   23 type  2   force =     0.09838025   -0.05679779    1.75486961
     atom   24 type  2   force =     6.23172230   -3.59788984    3.17111057
     atom   25 type  2   force =    -0.00374911    0.00216226   -1.02166161
     atom   26 type  2   force =     0.00004717    7.19578526    3.17113782
     atom   27 type  2   force =     0.00003049   -0.00438219   -1.02166036
     atom   28 type  2   force =    -6.23170738   -3.59793571    3.17113635
     atom   29 type  2   force =     0.00380914    0.00216178   -1.02166064
     atom   30 type  2   force =     0.00002455   -0.00001520    0.71011732
     atom   31 type  2   force =     0.00002952   -0.00001835   -0.66053934
     The local contribution  to forces
     atom    1 type  1   force =    -0.00007749    0.00024602   -1.09355458
     atom    2 type  1   force =    -1.03825151   -0.59926695   -0.46855760
     atom    3 type  1   force =    -0.02684450   -0.01520090   -0.24650523
     atom    4 type  1   force =    -0.00011140    1.19907643   -0.46855595
     atom    5 type  1   force =    -0.00007215    0.03115132   -0.24650514
     atom    6 type  1   force =     1.03813594   -0.59911701   -0.46855780
     atom    7 type  1   force =     0.02668971   -0.01520088   -0.24650525
     atom    8 type  1   force =    -1.23527516    0.71331664    8.24414901
     atom    9 type  1   force =    -3.35495928    1.93711847   -7.65129598
     atom   10 type  1   force =     0.00108860   -1.42812576    8.24416755
     atom   11 type  1   force =     0.00108884   -3.87574070   -7.65131973
     atom   12 type  1   force =     1.23745992    0.71331664    8.24417088
     atom   13 type  1   force =     3.35716094    1.93712460   -7.65132315
     atom   14 type  1   force =     0.00109998   -0.00049713    5.35055905
     atom   15 type  1   force =     0.00110078   -0.00049696   -6.00172175
     atom   16 type  2   force =    -0.00001320    0.00002075    8.95854506
     atom   17 type  2   force =    -0.00001002    0.00002191   -2.94831677
     atom   18 type  2   force =     0.15846001    0.09151479    2.45408051
     atom   19 type  2   force =     0.05965124    0.03446926   -1.74413348
     atom   20 type  2   force =    -0.00001066   -0.18296333    2.45408096
     atom   21 type  2   force =    -0.00000933   -0.06886944   -1.74413316
     atom   22 type  2   force =    -0.15848170    0.09151790    2.45408028
     atom   23 type  2   force =    -0.05967101    0.03446906   -1.74413345
     atom   24 type  2   force =    -5.89531627    3.40367213   -2.95803848
     atom   25 type  2   force =     0.01666521   -0.00961112    0.92267350
     atom   26 type  2   force =     0.00006824   -6.80751924   -2.95805986
     atom   27 type  2   force =     0.00008336    0.01910691    0.92267063
     atom   28 type  2   force =     5.89553678    3.40371494   -2.95806935
     atom   29 type  2   force =    -0.01649575   -0.00960929    0.92267048
     atom   30 type  2   force =     0.00009374   -0.00004036   -0.72652038
     atom   31 type  2   force =     0.00008617   -0.00003848    0.65236770
     The core correction contribution to forces
     atom    1 type  1   force =    -0.00000627    0.00001822    0.00035409
     atom    2 type  1   force =    -0.00187160   -0.00106944   -0.00109331
     atom    3 type  1   force =    -0.00045307   -0.00023928    0.00053030
     atom    4 type  1   force =    -0.00000908    0.00217702   -0.00109328
     atom    5 type  1   force =    -0.00000588    0.00053396    0.00053031
     atom    6 type  1   force =     0.00186277   -0.00105774   -0.00109335
     atom    7 type  1   force =     0.00044056   -0.00023927    0.00053030
     atom    8 type  1   force =     0.00271722   -0.00155942   -0.00062698
     atom    9 type  1   force =    -0.00027216    0.00016658    0.00316959
     atom   10 type  1   force =     0.00008032    0.00300790   -0.00062700
     atom   11 type  1   force =     0.00008023   -0.00044380    0.00316956
     atom   12 type  1   force =    -0.00255601   -0.00155940   -0.00062702
     atom   13 type  1   force =     0.00043344    0.00016656    0.00316956
     atom   14 type  1   force =     0.00008062   -0.00003669   -0.00027251
     atom   15 type  1   force =     0.00008062   -0.00003667   -0.00040653
     atom   16 type  2   force =     0.00000021   -0.00000025   -0.00880938
     atom   17 type  2   force =     0.00000024   -0.00000032   -0.00051113
     atom   18 type  2   force =    -0.00028221   -0.00016342    0.00009041
     atom   19 type  2   force =    -0.00062922   -0.00036376    0.00015306
     atom   20 type  2   force =     0.00000023    0.00032585    0.00009039
     atom   21 type  2   force =     0.00000023    0.00072652    0.00015305
     atom   22 type  2   force =     0.00028268   -0.00016339    0.00009040
     atom   23 type  2   force =     0.00062971   -0.00036377    0.00015306
     atom   24 type  2   force =     0.00560130   -0.00323400    0.00345889
     atom   25 type  2   force =     0.00020744   -0.00011980   -0.00164692
     atom   26 type  2   force =    -0.00000241    0.00647144    0.00345886
     atom   27 type  2   force =    -0.00000230    0.00024351   -0.00164697
     atom   28 type  2   force =    -0.00560571   -0.00323362    0.00345888
     atom   29 type  2   force =    -0.00021208   -0.00011981   -0.00164696
     atom   30 type  2   force =    -0.00000240    0.00000135   -0.00027533
     atom   31 type  2   force =    -0.00000233    0.00000129   -0.00014130
     The Hubbard contrib.    to forces
     atom    1 type  1   force =     0.00000000    0.00000000    0.00000000
     atom    2 type  1   force =     0.00000000    0.00000000    0.00000000
     atom    3 type  1   force =     0.00000000    0.00000000    0.00000000
     atom    4 type  1   force =     0.00000000    0.00000000    0.00000000
     atom    5 type  1   force =     0.00000000    0.00000000    0.00000000
     atom    6 type  1   force =     0.00000000    0.00000000    0.00000000
     atom    7 type  1   force =     0.00000000    0.00000000    0.00000000
     atom    8 type  1   force =     0.00000000    0.00000000    0.00000000
     atom    9 type  1   force =     0.00000000    0.00000000    0.00000000
     atom   10 type  1   force =     0.00000000    0.00000000    0.00000000
     atom   11 type  1   force =     0.00000000    0.00000000    0.00000000
     atom   12 type  1   force =     0.00000000    0.00000000    0.00000000
     atom   13 type  1   force =     0.00000000    0.00000000    0.00000000
     atom   14 type  1   force =     0.00000000    0.00000000    0.00000000
     atom   15 type  1   force =     0.00000000    0.00000000    0.00000000
     atom   16 type  2   force =     0.00000000    0.00000000    0.00000000
     atom   17 type  2   force =     0.00000000    0.00000000    0.00000000
     atom   18 type  2   force =     0.00000000    0.00000000    0.00000000
     atom   19 type  2   force =     0.00000000    0.00000000    0.00000000
     atom   20 type  2   force =     0.00000000    0.00000000    0.00000000
     atom   21 type  2   force =     0.00000000    0.00000000    0.00000000
     atom   22 type  2   force =     0.00000000    0.00000000    0.00000000
     atom   23 type  2   force =     0.00000000    0.00000000    0.00000000
     atom   24 type  2   force =     0.00000000    0.00000000    0.00000000
     atom   25 type  2   force =     0.00000000    0.00000000    0.00000000
     atom   26 type  2   force =     0.00000000    0.00000000    0.00000000
     atom   27 type  2   force =     0.00000000    0.00000000    0.00000000
     atom   28 type  2   force =     0.00000000    0.00000000    0.00000000
     atom   29 type  2   force =     0.00000000    0.00000000    0.00000000
     atom   30 type  2   force =     0.00000000    0.00000000    0.00000000
     atom   31 type  2   force =     0.00000000    0.00000000    0.00000000
     The SCF correction term to forces
     atom    1 type  1   force =    -0.00000000    0.00000000   -0.00006034
     atom    2 type  1   force =    -0.00001222   -0.00000705    0.00006089
     atom    3 type  1   force =     0.00001484    0.00000857   -0.00001037
     atom    4 type  1   force =     0.00000000    0.00001411    0.00006089
     atom    5 type  1   force =     0.00000000   -0.00001714   -0.00001037
     atom    6 type  1   force =     0.00001222   -0.00000705    0.00006089
     atom    7 type  1   force =    -0.00001484    0.00000857   -0.00001037
     atom    8 type  1   force =     0.00001985   -0.00001146   -0.00000593
     atom    9 type  1   force =    -0.00005223    0.00003015   -0.00003619
     atom   10 type  1   force =     0.00000000    0.00002292   -0.00000593
     atom   11 type  1   force =    -0.00000000   -0.00006031   -0.00003619
     atom   12 type  1   force =    -0.00001985   -0.00001146   -0.00000593
     atom   13 type  1   force =     0.00005223    0.00003015   -0.00003619
     atom   14 type  1   force =    -0.00000000    0.00000000    0.00002294
     atom   15 type  1   force =    -0.00000000    0.00000000   -0.00006380
     atom   16 type  2   force =    -0.00000000    0.00000000    0.00000202
     atom   17 type  2   force =     0.00000000   -0.00000000   -0.00001688
     atom   18 type  2   force =    -0.00000458   -0.00000265    0.00001078
     atom   19 type  2   force =    -0.00000392   -0.00000226   -0.00001683
     atom   20 type  2   force =    -0.00000000    0.00000529    0.00001078
     atom   21 type  2   force =    -0.00000000    0.00000453   -0.00001683
     atom   22 type  2   force =     0.00000458   -0.00000265    0.00001078
     atom   23 type  2   force =     0.00000392   -0.00000226   -0.00001683
     atom   24 type  2   force =    -0.00000607    0.00000350    0.00001394
     atom   25 type  2   force =    -0.00000283    0.00000163   -0.00001265
     atom   26 type  2   force =    -0.00000000   -0.00000700    0.00001394
     atom   27 type  2   force =    -0.00000000   -0.00000327   -0.00001265
     atom   28 type  2   force =     0.00000607    0.00000350    0.00001394
     atom   29 type  2   force =     0.00000283    0.00000163   -0.00001265
     atom   30 type  2   force =    -0.00000000    0.00000000    0.00001182
     atom   31 type  2   force =     0.00000000   -0.00000000   -0.00000173

     Total force =     0.002284     Total SCF correction =     0.000202


     Computing stress (Cartesian axis) and pressure



     -----------------------------------------------
     Non-local corr. energy    =       8.27274679 Ry
     -----------------------------------------------

          total   stress  (Ry/bohr**3)                   (kbar)     P=       60.23
   0.00038379   0.00000000   0.00000000           56.46        0.00        0.00
   0.00000000   0.00038379   0.00000000            0.00       56.46        0.00
   0.00000000   0.00000000   0.00046079            0.00        0.00       67.78

     kinetic stress (kbar)  17818.93     -0.00      0.00
                                0.00  17818.93     -0.00
                                0.00     -0.00  17888.52

     local   stress (kbar)   1807.10     -0.07     -0.00
                               -0.07   1807.02      0.00
                               -0.00      0.00   2935.90

     nonloc. stress (kbar)      6.20     -0.00      0.00
                                0.00      6.20      0.00
                                0.00      0.00     -0.32

     hartree stress (kbar)  19919.28     -0.00      0.00
                               -0.00  19919.28     -0.00
                                0.00     -0.00  19335.19

     exc-cor stress (kbar)   4819.68      0.00     -0.00
                                0.00   4819.68      0.00
                               -0.00      0.00   4820.60

     corecor stress (kbar) -13267.94     -0.00     -0.00
                               -0.00 -13267.94     -0.00
                               -0.00     -0.00 -13268.76

     ewald   stress (kbar) -31200.23      0.09      0.00
                                0.09 -31200.11     -0.00
                                0.00     -0.00 -31796.09

     hubbard stress (kbar)      0.00      0.00      0.00
                                0.00      0.00      0.00
                                0.00      0.00      0.00

     DFT-D   stress (kbar)      0.00      0.00      0.00
                                0.00      0.00      0.00
                                0.00      0.00      0.00

     XDM     stress (kbar)      0.00      0.00      0.00
                                0.00      0.00      0.00
                                0.00      0.00      0.00

     dft-nl  stress (kbar)    153.42     -0.00      0.00
                               -0.00    153.42     -0.00
                                0.00     -0.00    152.74

     TS-vdW  stress (kbar)      0.00      0.00      0.00
                                0.00      0.00      0.00
                                0.00      0.00      0.00

     MDB     stress (kbar)      0.00      0.00      0.00
                                0.00      0.00      0.00
                                0.00      0.00      0.00

     3D-RISM stress (kbar)      0.00      0.00      0.00
                                0.00      0.00      0.00
                                0.00      0.00      0.00



     -----------------------------------------------
     Non-local corr. energy    =       8.27274679 Ry
     -----------------------------------------------



     -----------------------------------------------
     Non-local corr. energy    =       8.27274679 Ry
     -----------------------------------------------



     -----------------------------------------------
     Non-local corr. energy    =       8.27274679 Ry
     -----------------------------------------------



     -----------------------------------------------
     Non-local corr. energy    =       8.27274679 Ry
     -----------------------------------------------



     -----------------------------------------------
     Non-local corr. energy    =       8.27274679 Ry
     -----------------------------------------------



     -----------------------------------------------
     Non-local corr. energy    =       8.27274679 Ry
     -----------------------------------------------



     -----------------------------------------------
     Non-local corr. energy    =       8.27274679 Ry
     -----------------------------------------------



     -----------------------------------------------
     Non-local corr. energy    =       8.27274679 Ry
     -----------------------------------------------



     -----------------------------------------------
     Non-local corr. energy    =       8.27274679 Ry
     -----------------------------------------------



     -----------------------------------------------
     Non-local corr. energy    =       8.27274679 Ry
     -----------------------------------------------



     -----------------------------------------------
     Non-local corr. energy    =       8.27274679 Ry
     -----------------------------------------------



     -----------------------------------------------
     Non-local corr. energy    =       8.27274679 Ry
     -----------------------------------------------



     -----------------------------------------------
     Non-local corr. energy    =       8.27274679 Ry
     -----------------------------------------------



     -----------------------------------------------
     Non-local corr. energy    =       8.27274679 Ry
     -----------------------------------------------



     -----------------------------------------------
     Non-local corr. energy    =       8.27274679 Ry
     -----------------------------------------------



     -----------------------------------------------
     Non-local corr. energy    =       8.27274679 Ry
     -----------------------------------------------



     -----------------------------------------------
     Non-local corr. energy    =       8.27274679 Ry
     -----------------------------------------------



     -----------------------------------------------
     Non-local corr. energy    =       8.27274679 Ry
     -----------------------------------------------



     -----------------------------------------------
     Non-local corr. energy    =       8.27274679 Ry
     -----------------------------------------------



     -----------------------------------------------
     Non-local corr. energy    =       8.27274679 Ry
     -----------------------------------------------



     -----------------------------------------------
     Non-local corr. energy    =       8.27274679 Ry
     -----------------------------------------------



     -----------------------------------------------
     Non-local corr. energy    =       8.27274679 Ry
     -----------------------------------------------



     -----------------------------------------------
     Non-local corr. energy    =       8.27274679 Ry
     -----------------------------------------------



     -----------------------------------------------
     Non-local corr. energy    =       8.27274679 Ry
     -----------------------------------------------



     -----------------------------------------------
     Non-local corr. energy    =       8.27274679 Ry
     -----------------------------------------------



     -----------------------------------------------
     Non-local corr. energy    =       8.27274679 Ry
     -----------------------------------------------



     -----------------------------------------------
     Non-local corr. energy    =       8.27274679 Ry
     -----------------------------------------------



     -----------------------------------------------
     Non-local corr. energy    =       8.27274679 Ry
     -----------------------------------------------



     -----------------------------------------------
     Non-local corr. energy    =       8.27274679 Ry
     -----------------------------------------------



     -----------------------------------------------
     Non-local corr. energy    =       8.27274679 Ry
     -----------------------------------------------



     -----------------------------------------------
     Non-local corr. energy    =       8.27274679 Ry
     -----------------------------------------------



     -----------------------------------------------
     Non-local corr. energy    =       8.27274679 Ry
     -----------------------------------------------



     -----------------------------------------------
     Non-local corr. energy    =       8.27274679 Ry
     -----------------------------------------------



     -----------------------------------------------
     Non-local corr. energy    =       8.27274679 Ry
     -----------------------------------------------

 BEEFens 2000 ensemble energies
             -0.672035107527620E+01
             -0.601445451879085E+02
             -0.258057183017888E+02
              0.212030377480767E+02
             -0.431675532094293E+02
             -0.555904028507090E+02
              0.286285264097726E+02
             -0.307345324489293E+01
              0.475894071883201E+02
             -0.203905387323400E+01
              0.232927151415239E+02
              0.952288155681032E+00
              0.100558907433631E+01
             -0.208571178115920E+01
              0.311447242863053E+02
             -0.227243653217777E+02
             -0.468703802701602E+02
             -0.152855396315461E+02
              0.114107182160998E+02
             -0.101113358776240E+01
              0.682101317352555E+02
              0.581180181144934E+02
             -0.331729005511212E+02
              0.121001248697112E+02
             -0.729252032859514E+02
              0.584718750191047E+02
              0.191254336781913E+02
              0.569238977920636E+02
              0.373740283005778E+02
             -0.182636656735428E+02
              0.137802232030379E+02
             -0.269447185343839E+02
              0.741809419512948E+01
              0.364822655011161E+02
              0.387824126692196E+02
             -0.139482378836593E+02
              0.861017510234418E+02
             -0.326414826368015E+02
             -0.235102581030336E+02
              0.344895859152665E+02
              0.153886978828098E+02
              0.258550358278057E+02
             -0.492146678504968E+02
             -0.139325766744162E+01
              0.483724471828347E+02
              0.627829094732051E+02
             -0.624398127513366E+02
              0.445166926161711E+01
              0.235614906883363E+02
              0.113733056440468E+02
              0.261399274030565E+02
              0.553598359112662E+02
             -0.334931126186687E+02
             -0.367026703665924E+02
             -0.477009615688053E+02
             -0.745090147918199E+01
             -0.434877092941989E+02
              0.421288182681894E+01
             -0.811240634999893E+01
             -0.339629628422368E+02
              0.550654173402670E+02
              0.536573951822464E+02
             -0.140818380524945E+02
             -0.384206673861185E+02
             -0.250483150356833E+02
              0.124176858906651E+01
              0.409150655362808E+02
             -0.694968198052996E+01
             -0.402296389132250E+02
              0.342331416194051E+02
             -0.684681521422732E+02
              0.574967283897439E+02
             -0.668718991601561E+02
             -0.302751600930023E+02
             -0.892495801813999E+01
             -0.624599753459023E+01
              0.117309322933883E+01
              0.490351766213989E+02
              0.270437630020710E+02
             -0.511545896406543E+02
             -0.634716187535433E+02
             -0.324846519407486E+02
             -0.245468244463319E+02
              0.456565217629014E+01
             -0.843260220222209E+01
             -0.222484156015863E+02
              0.337138215765598E+02
             -0.219094636082291E+02
              0.965274455880818E+02
             -0.434132914571160E+02
              0.876848637789694E+01
              0.133350086050856E+02
              0.154429444539081E+02
              0.365885638410999E+02
              0.247026793288271E+02
              0.236478978928596E+02
             -0.379183506091490E+02
              0.232466422289806E+02
              0.512272646425305E+01
              0.190457811510981E+00
              0.441597320493664E+02
             -0.545055317551555E+02
              0.880715764264797E+02
             -0.230260990101585E+02
             -0.977442642280956E+02
              0.416777358963412E+01
              0.799908210111846E+01
             -0.260075783529873E+02
             -0.495965764052060E+02
             -0.260781496283104E+02
             -0.204973738923657E+02
              0.144985919213030E+01
             -0.390824392976639E+02
              0.158998148941566E+01
              0.409899461112832E+01
              0.739755214703629E+01
              0.862153677238188E+02
              0.969051722376732E+01
             -0.487057653705995E+02
             -0.357217737151359E+02
             -0.983349462995459E+01
             -0.339571126352030E+02
              0.541016585298951E+02
             -0.402047826443661E+02
             -0.280615450757603E+01
             -0.789390792007433E+01
              0.749132202803719E+01
              0.319176049697045E+02
             -0.370071759288127E+02
             -0.742165261387631E+02
             -0.157737635996416E+02
             -0.146053992691858E+02
             -0.582569191668097E+01
              0.357584342799964E+02
             -0.642225699899799E+02
             -0.710865900003456E+02
             -0.990013481916827E+01
             -0.153091359045576E+02
             -0.135045774151399E+01
              0.193778330082066E+02
              0.434681671088205E+02
              0.200542699819936E+02
             -0.201862934527317E+02
             -0.238457148641118E+02
             -0.651751300307486E+02
             -0.553161929155777E+01
             -0.312726873409429E+02
             -0.206654289327091E+02
              0.546657079795472E+02
             -0.425251233127670E+02
             -0.161342928209012E+02
              0.531958327090655E+02
             -0.759475372041243E+01
             -0.150505950555975E+02
              0.867533103393708E+01
              0.210559190234072E+02
             -0.319481356781347E+02
              0.179111028085691E+02
              0.926522705852902E+01
              0.327063544906939E+02
             -0.318798211089666E+02
             -0.216456752498796E+02
              0.361778804102662E+02
             -0.982269610336402E+00
             -0.158106168112536E+02
             -0.108036658473377E+02
             -0.190537220750932E+02
             -0.242323784649897E+02
             -0.579887293625261E+02
             -0.682131114930799E+02
             -0.228455431310379E+02
             -0.256367298627540E+02
             -0.275774091042336E+02
             -0.445905516983895E+02
             -0.203881220124987E+02
              0.375082280863202E+02
              0.133232484192198E+02
              0.530890092640172E+02
             -0.215828623714590E+02
              0.183795748175058E+02
              0.118555666266405E+02
             -0.571768276194703E+02
             -0.125079201958953E+02
              0.339937964827574E+02
             -0.941790148833355E+02
              0.186789816828531E+02
              0.175023025081695E+02
              0.562620994093326E+02
[...]
              0.259824345342907E+02
              0.828595923896173E+00
              0.809786501078429E+02
              0.112270876640133E+02
             -0.118210823150456E+02
              0.473365939437372E+01
             -0.108999088400045E+02
              0.635801467145030E+02
             -0.325424007275075E+00
              0.121254657720973E+02
              0.441585320359595E+02
              0.118871905801129E+02
             -0.334643646116366E+02
             -0.543670150747168E+02
              0.303706227390597E+01
             -0.618868106764970E+02
              0.207445405513849E+02
             -0.106845446594656E+02
             -0.237770479253784E+02
              0.240755977284077E+02
              0.834182234144151E+01
              0.232143759664903E+02
              0.969546978326719E+00
              0.344557146063487E+02
             -0.585663970229113E+02
             -0.415763497556009E+01
             -0.514414285309618E+02
              0.115390176881045E+02
              0.281899406641925E+02
             -0.288316922041062E+01
             -0.187466329949180E+02
              0.422013116618333E+02
             -0.195168715632781E+02
              0.144309379348152E+02
             -0.123622375361783E+02
              0.334162179284930E+02
              0.350494544685173E+02
             -0.151826123795501E+02
              0.301277477577550E+02
              0.113126692505263E+02
             -0.304127854037764E+02
             -0.198076452317338E+02
              0.488194190670193E+02
              0.239510469088586E+02
             -0.202610864707501E+01
             -0.517892542393531E+01
              0.752421738353671E+02
              0.443434316007959E+02
              0.157573389752705E+02
             -0.474532578986714E+02
              0.758982442902031E+02
             -0.354928763108475E+02
             -0.438172962777104E+02
             -0.659397717065928E+02
              0.294154854785929E+02
             -0.592548551841571E+02
              0.267888747815268E+02
              0.433946424406570E+02
              0.308378572026499E+02
              0.794345770158875E+01
              0.204386112823512E+02
             -0.488832550159886E+02
             -0.174915979185375E+02
             -0.133094466881914E+02
              0.251136685049564E+02
              0.496380141560048E+02
              0.513725643055014E+02
              0.396601221616664E+02
             -0.910950350314124E+01
              0.125929623574303E+02
              0.635886849923963E+00
             -0.162958395415176E+02
              0.208863040202090E+02
              0.227593365733684E+02
             -0.288296064784339E+02
             -0.343427651759363E+02
             -0.135386830017842E+02
              0.357642527108773E+02
              0.171398474491630E+02
             -0.245220598555499E+02
             -0.374605601282645E+02
             -0.545079967048797E+02
              0.107401813978922E+01
              0.145908720222793E+02
             -0.206022153486380E+02
              0.762853074178437E+02
              0.374936205272189E+01
             -0.865100074456660E+02
              0.191411699437717E+02
              0.379862440007700E+02
             -0.174181588746150E+02
              0.212428924716939E+01
             -0.241473325266661E+02
              0.353717146714037E+02
              0.163182110141031E+02
             -0.452542852912452E+02
              0.539068753556360E+02
              0.143668038215273E+01
             -0.232136139764132E+02
             -0.274709143368460E+02
              0.107294643663875E+03
              0.478487585731843E+02
             -0.132986143750799E+02
              0.263557561428576E+02
             -0.468268925967441E+02
             -0.835274054859326E+01
             -0.475998075699937E+02
              0.190884119880653E+02
              0.323289562071972E+02
              0.384705096566754E+02
             -0.153244893440572E+02
              0.455791629675139E+01
              0.439094421904111E+02
              0.163182643227785E+02
              0.275443024520387E+02
              0.117367470887354E+02
             -0.794219051136835E+01
              0.115777386868314E+01
             -0.723856939920618E+01
              0.111864966393795E+02
              0.248053267351463E+01
             -0.399413916236400E+02
              0.609579565067820E+02
              0.243886339604516E+02
             -0.437491406166507E+02
             -0.324182316681758E+02
             -0.470654825167429E+02
             -0.223123520055864E+02
             -0.163752661660828E+02
             -0.364077000092220E+02
             -0.356591575890181E+02
              0.450549310698452E+02
              0.354723825528844E+02
             -0.447347781487804E+01
              0.516394526119635E+02
              0.984139326125410E+01
             -0.834407309962894E+02
              0.470349136825977E+02
              0.109011190991299E+02
              0.363391360134070E+02
              0.814970910114184E+01
              0.613134472690824E+01
              0.720626787874951E+01
              0.189456103965495E+02
             -0.345466808846978E+02
             -0.172836582322283E+02
             -0.317213907652234E+02
             -0.262777761841916E+02
              0.120352756420778E+02
             -0.302003087401561E+02
              0.140808373883615E+02
              0.186508881204684E+02
             -0.199015145025604E+02
             -0.104600192988856E+02
             -0.936037610275037E+00
              0.516783462017640E+02
              0.815706710397839E+01
              0.512920367540447E+02
              0.181720136468194E+02
             -0.661392540872415E+02
             -0.225605221254294E+02
              0.225914748225345E+02
              0.507796182728601E+02
              0.985400894358560E+01
              0.198426211531680E+02
              0.479597534437053E+02
             -0.279607073681063E+02
             -0.453585737523574E+02
              0.588478750713011E+02
              0.886107350850182E+00
             -0.624572330270486E+02
              0.209245013491483E+02
              0.413457021202051E+02
             -0.948841237079785E+01
             -0.390009445908886E+02
              0.685262948147857E+01
              0.260150529177463E+01
             -0.213743002351032E+02
              0.779032876245685E+01
             -0.669569733922768E+01
              0.919125663128553E+02
              0.253101006065353E+02
             -0.422555270124579E+02
              0.127858609127886E+02
              0.590580703357822E+02
             -0.378001745005726E+02
             -0.101706013438981E+02
             -0.334629464841819E+02
              0.266633419458221E+02
              0.114081311397073E+02
              0.176986254892287E+02
              0.134465107263503E+01
              0.662588776082127E+02
             -0.371257831742101E+02
             -0.281683698261939E+02
             -0.310647990285831E+02
              0.267724947452365E+02
              0.637334106836798E+02
             -0.798843611497952E+01
              0.263447391952622E+02
             -0.356134175948272E+02
              0.349141123349611E+01
             -0.105343670917993E+02
             -0.366442600491999E+01
             -0.152055963848355E+02
             -0.140175307962793E+02
             -0.103091816285513E+02
              0.110895415287420E+02
              0.185427438933996E+02
             -0.428180291809273E+02
              0.311215880308071E+02
             -0.502564217242746E+02
              0.375285275424547E+02
             -0.436600357271489E+02
              0.660602024525302E+02
              0.351961396802967E+02
              0.391995705114825E+02
              0.896772603283335E+01
              0.100143629451421E+02
             -0.885488860325351E+02
              0.152157164963053E+02
              0.402540008670991E+01
              0.690685611328411E+01
             -0.131876698098392E+02
              0.688268464538122E+02
             -0.210447011865162E+02
             -0.271656631653597E+02
             -0.683505888313296E+02
             -0.227579650779534E+02
             -0.309824779475903E+02
             -0.275380119313941E+02
             -0.754040936972814E+01
             -0.143695069073752E+02
             -0.190859857077945E+02
             -0.286925769268130E+02
              0.213830718586447E+02
              0.706671962889215E+02
              0.602901080656184E+02
             -0.121003178893823E+02
             -0.739977873084098E+02
             -0.311044280240797E+02
              0.143069631466932E+02
              0.157766682878682E+02
              0.228116421317159E+02
              0.178218753798807E+02
              0.582778763518269E+01
              0.683543007245272E+02
             -0.169661977408513E+02
              0.347413594112793E+02
              0.159018071802805E+02
             -0.224096321013506E+02
             -0.141230997240477E+02
              0.316418133612150E+02
             -0.182918422617847E+02
             -0.130550713097562E+02
             -0.844171582836159E+01
              0.395458984270676E+02
             -0.529457636142316E+02
             -0.591664503396396E+01
             -0.433916982932519E+02
             -0.938401095282372E+02
              0.402390605989126E+00
             -0.115922920068382E+02
              0.322140986266270E+02
              0.382733755881818E+02
              0.525353549396931E+02
             -0.345372353575831E+02
              0.562187679092691E+02
              0.146935994458990E+02
             -0.166674302839143E+02
              0.101792069868067E+02
             -0.178964026017465E+02
             -0.125069593116724E+02
              0.285921226149238E+02
             -0.279450349274088E+02
              0.679208756775969E+02
             -0.173433035867811E+02
             -0.363361474948715E+02
              0.691159633402331E+02
             -0.388351646000807E+02
             -0.580898905849614E+01
              0.707132795751497E+01
              0.214128729902153E+02
             -0.316600727418869E+02
             -0.237298769955448E+02
              0.359920806222573E+02
             -0.585186823649947E+02
              0.428913766430096E+02
              0.563712998169589E+01
              0.335095636414769E+02
              0.464692724422057E+02
              0.116396684167818E+02
             -0.610633918516952E+02
             -0.270264074813989E+02
             -0.451993127397082E+02
             -0.283317225985343E+02
             -0.943543324751249E+01
              0.110685762639915E+02
             -0.211240389155661E+02
              0.153527850820240E+01
             -0.688942964752704E+02
              0.165993488539044E+01
             -0.434998311682279E+02
              0.426970163408454E+02
             -0.228752362786654E+02
             -0.452458940305826E+01
              0.307454985595555E+02
              0.328073803945403E+01
              0.306456762861714E+02
             -0.548143077901367E+02
              0.120373047616953E+02
              0.382311301978856E+01
              0.219825354173193E+02
              0.396124425900873E+02
             -0.686333569632845E+01
             -0.434715505056249E+02
             -0.248427266733681E+02
             -0.171594987599317E+02
             -0.837535537535496E+01
              0.409626657191694E+02
              0.252471994779505E+02
             -0.262777482452586E+02
             -0.240409409458372E+02
              0.198877395514014E+02
              0.194279693808137E+02
             -0.538104648772559E+02
              0.151023415005102E+02
              0.394960797424249E+02
             -0.195524269782074E+01
              0.462755149272689E+02
              0.235085707616729E+02
              0.369569258173264E+02
              0.560660498022246E+02
              0.913690882090745E+01
             -0.785868298517244E+02
              0.804352799798569E+01
              0.871151503343265E+02
              0.626394591704606E+02
             -0.420194282764108E+02
              0.417034282834395E+01
              0.544563158304776E+02
              0.495384137297820E+02
              0.235392110101003E+02
             -0.125184576426888E+02
              0.225712633399422E+02
              0.475468435277572E+02
             -0.211941671612688E+02
             -0.152299874486177E+02
              0.296265901769405E+02
             -0.214115741536165E+01
              0.277781518768030E+02
             -0.687064980042739E+01
              0.573549419321122E+02
             -0.218272754447690E+02
              0.130248011237036E+02
             -0.267933876395270E+02
              0.271090615220591E+02
             -0.358166715846124E+01
              0.428346235035461E+02
              0.298681518496971E+01
              0.168444929895393E+02
             -0.284299221920903E+02
             -0.174819419794483E+02
             -0.827250624727392E+01
             -0.706173634799548E+01
              0.449782323153377E+02
              0.185580612523075E+02
              0.577682058720921E+02
              0.478626264975667E+02
              0.106618133704541E+02
              0.397875326527668E+00
              0.563847432564352E+02
              0.296666856758806E+02
              0.840724470482627E+00
              0.500914150207225E+02
             -0.449731838661124E+02
              0.148028489331418E+02
             -0.282362678921805E+02
             -0.114264877960193E+02
              0.720732675791727E+02
             -0.110453120095634E+02
             -0.514622068854123E+00
             -0.951661789790586E+01
              0.599025318096872E+02
             -0.140009852047853E+02
             -0.166204161602565E+01
              0.120976333387414E+03
             -0.391374025012854E+02
             -0.416369973042054E+02
             -0.438233623381635E+02
             -0.256106703058439E+02
              0.255704243396933E+02
             -0.109400548980786E+02
              0.712130840964539E+01
             -0.218201339542929E+01
              0.153041602210740E+02
              0.249540893687287E+02
              0.286876445641248E+02
              0.424200837237142E+02
              0.233183242342043E+02
              0.297628439528891E+02
             -0.480001360092058E+02
             -0.458034199620367E+02
             -0.116692689390004E+02
             -0.449892944376515E+02
              0.721411406605264E+02
              0.618313176327320E+02
              0.295332474807621E+02
              0.799108485303480E+02
             -0.416039981131066E+02
             -0.170020715123554E+02
             -0.235543117432984E+02
              0.660563884986218E+02
 
 BEEF-vdW xc energy contributions
            1 :    -605.9693474289318     
            2 :     545.5665960724235     
            3 :    -444.3869075258049     
            4 :     332.0609493567590     
            5 :    -234.6431991459739     
            6 :     164.7196303028769     
            7 :    -120.0298431615436     
            8 :     89.89691980929638     
            9 :    -64.27458062751316     
           10 :     39.54869154246933     
           11 :    -18.34712700044793     
           12 :     4.984478148975768     
           13 :   -0.7275179683305169     
           14 :     2.362245665219916     
           15 :    -4.547533498855842     
           16 :     3.586834445193290     
           17 :    0.4515345271396427     
           18 :    -4.671616674001484     
           19 :     6.252711782529332     
           20 :    -4.856190458530818     
           21 :     2.735229689645848     
           22 :    -2.716764200415128     
           23 :     5.862321209059928     
           24 :    -10.69034610382766     
           25 :     14.44608344871165     
           26 :    -15.25709821357486     
           27 :     13.42102097405382     
           28 :    -10.90591162090755     
           29 :     9.624415167883399     
           30 :    -9.952140027304267     
           31 :    -52.16540279765604     
           32 :    -35.71612245790061     

     Writing all to output data dir ./GaN.save/
 
     init_run     :      2.93s CPU      5.86s WALL (       1 calls)
     electrons    :     19.84s CPU     20.36s WALL (       1 calls)
     forces       :      1.46s CPU      1.48s WALL (       1 calls)
     stress       :      6.65s CPU      6.70s WALL (       1 calls)

     Called by init_run:
     wfcinit      :      1.00s CPU      3.84s WALL (       1 calls)
     potinit      :      1.50s CPU      1.54s WALL (       1 calls)
     hinit0       :      0.26s CPU      0.29s WALL (       1 calls)

     Called by electrons:
     c_bands      :     17.70s CPU     18.10s WALL (       2 calls)
     sum_band     :      1.42s CPU      1.46s WALL (       2 calls)
     v_of_rho     :      1.28s CPU      1.32s WALL (       2 calls)
     v_h          :      0.00s CPU      0.00s WALL (       2 calls)
     v_xc         :      8.44s CPU      8.57s WALL (      38 calls)
     newd         :      0.12s CPU      0.14s WALL (       2 calls)
     PAW_pot      :      0.81s CPU      0.81s WALL (       2 calls)
     mix_rho      :      0.00s CPU      0.00s WALL (       2 calls)
     vdW_kernel   :      0.86s CPU      0.86s WALL (       1 calls)

     Called by c_bands:
     init_us_2    :      0.21s CPU      0.21s WALL (      48 calls)
     init_us_2:cp :      0.21s CPU      0.21s WALL (      48 calls)
     cegterg      :     17.32s CPU     17.47s WALL (      16 calls)

     Called by sum_band:
     sum_band:wei :      0.00s CPU      0.00s WALL (       2 calls)
     sum_band:loo :      1.23s CPU      1.25s WALL (       2 calls)
     sum_band:buf :      0.05s CPU      0.06s WALL (      16 calls)
     sum_band:ini :      0.08s CPU      0.08s WALL (      16 calls)
     sum_band:cal :      0.26s CPU      0.27s WALL (      16 calls)
     sum_band:bec :      0.01s CPU      0.01s WALL (      16 calls)
     addusdens    :      0.17s CPU      0.18s WALL (       2 calls)
     addusd:skk   :      0.01s CPU      0.01s WALL (       4 calls)
     addusd:dgemm :      0.11s CPU      0.13s WALL (       4 calls)
     addusd:qvan2 :      0.04s CPU      0.04s WALL (       4 calls)

     Called by *egterg:
     cdiaghg      :      7.66s CPU      7.69s WALL (      74 calls)
     cegterg:over :      1.30s CPU      1.32s WALL (      74 calls)
     cegterg:upda :      0.87s CPU      0.88s WALL (      74 calls)
     cegterg:last :      0.27s CPU      0.27s WALL (      16 calls)
     h_psi        :      5.99s CPU      6.06s WALL (      90 calls)
     s_psi        :      0.69s CPU      0.70s WALL (      90 calls)
     g_psi        :      0.01s CPU      0.01s WALL (      74 calls)

     Called by h_psi:
     h_psi:calbec :      0.90s CPU      0.91s WALL (      90 calls)
     vloc_psi     :      4.28s CPU      4.33s WALL (      90 calls)
     add_vuspsi   :      0.72s CPU      0.73s WALL (      90 calls)

     General routines
     calbec       :      2.30s CPU      2.32s WALL (     146 calls)
     fft          :      3.48s CPU      3.53s WALL (    2232 calls)
     ffts         :      0.01s CPU      0.01s WALL (       4 calls)
     fftw         :      4.78s CPU      4.83s WALL (   16890 calls)
     interpolate  :      0.01s CPU      0.01s WALL (       2 calls)
 
     Parallel routines

     PAW routines
     PAW_pot      :      0.81s CPU      0.81s WALL (       2 calls)
     PAW_symme    :      0.00s CPU      0.00s WALL (       3 calls)
 
     PWSCF        :     38.78s CPU     43.98s WALL

 
   This run was terminated on:  22:27:48  27Mar2024            

=------------------------------------------------------------------------------=
   JOB DONE.
=------------------------------------------------------------------------------=
