
     Program PWSCF v.7.1 starts on 19Feb2024 at 16:11:20 

     This program is part of the open-source Quantum ESPRESSO suite
     for quantum simulation of materials; please cite
         "P. Giannozzi et al., J. Phys.:Condens. Matter 21 395502 (2009);
         "P. Giannozzi et al., J. Phys.:Condens. Matter 29 465901 (2017);
         "P. Giannozzi et al., J. Chem. Phys. 152 154105 (2020);
          URL http://www.quantum-espresso.org", 
     in publications or presentations arising from this work. More details at
     http://www.quantum-espresso.org/quote

     Parallel version (MPI & OpenMP), running on     256 processor cores
     Number of MPI processes:               256
     Threads/MPI process:                     1

     MPI processes distributed on     2 nodes
     1960253 MiB available memory on the printing compute node when the environment starts
 
     Reading input from espresso.pwi
Warning: card &CELL ignored
Warning: card    CELL_DYNAMICS    = 'BFGS' ignored
Warning: card / ignored

     Current dimensions of program PWSCF are:
     Max number of different atomic species (ntypx) = 10
     Max number of k-points (npk) =  40000
     Max angular momentum in pseudopotentials (lmaxx) =  4
     file C.pbe-n-kjpaw_psl.1.0.0.UPF: wavefunction(s)  2S 2P renormalized

     **************************************************************************
     Initializing libbeef V0.1.2 with the BEEF-vdW functional.
     Citation: Wellendorff et al., PRB 85, 235149 (2012).
     **************************************************************************


     IMPORTANT: XC functional enforced from input :
     Exchange-correlation= BEEF-VDW
                           (   1   4  43  14   2   0   0)
     Any further DFT definition will be discarded
     Please, verify this is what you really want

     Found identity + (  0.0000  0.0000  0.3333) symmetry
     This is a supercell, fractional translations are disabled
 
     K-points division:     npool     =       4
     R & G space division:  proc/nbgrp/npool/nimage =      64
     Subspace diagonalization in iterative solution of the eigenvalue problem:
     a serial algorithm will be used

 
     Parallelization info
     --------------------
     sticks:   dense  smooth     PW     G-vecs:    dense   smooth      PW
     Min         178     142     38                14350    10258    1410
     Max         179     143     39                14357    10265    1416
     Sum       11433    9133   2433               918657   656775   90447
 
     Using Slab Decomposition
 


     bravais-lattice index     =            1
     lattice parameter (alat)  =      20.2520  a.u.
     unit-cell volume          =    8306.2556 (a.u.)^3
     number of atoms/cell      =          216
     number of atomic types    =            1
     number of electrons       =       864.00
     number of Kohn-Sham states=          518
     kinetic-energy cutoff     =      70.0000  Ry
     charge density cutoff     =     350.0000  Ry
     scf convergence threshold =      1.0E-07
     mixing beta               =       0.7000
     number of iterations used =            8  plain     mixing
     Exchange-correlation= BEEF-VDW
                           (   1   4  43  14   2   0   0)

     celldm(1)=  20.252024  celldm(2)=   0.000000  celldm(3)=   0.000000
     celldm(4)=   0.000000  celldm(5)=   0.000000  celldm(6)=   0.000000

     crystal axes: (cart. coord. in units of alat)
               a(1) = (   1.000000   0.000000   0.000000 )  
               a(2) = (   0.000000   1.000000   0.000000 )  
               a(3) = (   0.000000   0.000000   1.000000 )  

     reciprocal axes: (cart. coord. in units 2 pi/alat)
               b(1) = (  1.000000  0.000000  0.000000 )  
               b(2) = (  0.000000  1.000000  0.000000 )  
               b(3) = (  0.000000  0.000000  1.000000 )  


     PseudoPot. # 1 for C  read from file:
     /trace/group/acmegroup/atimmins/packages/espresso/pseudo/psl_1.0.0/pslibrary.1.0.0/pbe/PSEUDOPOTENTIALS/C.pbe-n-kjpaw_psl.1.0.0.UPF
     MD5 check sum: 5459cf7f2c8c37df2f7cde8914797f4d
     Pseudo is Projector augmented-wave + core cor, Zval =  4.0
     Generated using 'atomic' code by A. Dal Corso  v.7.1
     Shape of augmentation charge: PSQ
     Using radial grid of 1073 points,  4 beta functions with: 
                l(1) =   0
                l(2) =   0
                l(3) =   1
                l(4) =   1
     Q(r) pseudized with 0 coefficients 


     atomic species   valence    mass     pseudopotential
        C              4.00    12.01100     C ( 1.00)

     24 Sym. Ops. (no inversion) found


                                    s                        frac. trans.

      isym =  1     identity                                     

 cryst.   s( 1) = (     1          0          0      )
                  (     0          1          0      )
                  (     0          0          1      )

 cart.    s( 1) = (  1.0000000  0.0000000  0.0000000 )
                  (  0.0000000  1.0000000  0.0000000 )
                  (  0.0000000  0.0000000  1.0000000 )


      isym =  2     180 deg rotation - cart. axis [0,0,1]        

 cryst.   s( 2) = (    -1          0          0      )
                  (     0         -1          0      )
                  (     0          0          1      )

 cart.    s( 2) = ( -1.0000000  0.0000000  0.0000000 )
                  (  0.0000000 -1.0000000  0.0000000 )
                  (  0.0000000  0.0000000  1.0000000 )


      isym =  3     180 deg rotation - cart. axis [0,1,0]        

 cryst.   s( 3) = (    -1          0          0      )
                  (     0          1          0      )
                  (     0          0         -1      )

 cart.    s( 3) = ( -1.0000000  0.0000000  0.0000000 )
                  (  0.0000000  1.0000000  0.0000000 )
                  (  0.0000000  0.0000000 -1.0000000 )


      isym =  4     180 deg rotation - cart. axis [1,0,0]        

 cryst.   s( 4) = (     1          0          0      )
                  (     0         -1          0      )
                  (     0          0         -1      )

 cart.    s( 4) = (  1.0000000  0.0000000  0.0000000 )
                  (  0.0000000 -1.0000000  0.0000000 )
                  (  0.0000000  0.0000000 -1.0000000 )


      isym =  5     120 deg rotation - cart. axis [-1,-1,-1]     

 cryst.   s( 5) = (     0          0          1      )
                  (     1          0          0      )
                  (     0          1          0      )

 cart.    s( 5) = (  0.0000000  1.0000000  0.0000000 )
                  (  0.0000000  0.0000000  1.0000000 )
                  (  1.0000000  0.0000000  0.0000000 )


      isym =  6     120 deg rotation - cart. axis [-1,1,1]       

 cryst.   s( 6) = (     0          0         -1      )
                  (    -1          0          0      )
                  (     0          1          0      )

 cart.    s( 6) = (  0.0000000 -1.0000000  0.0000000 )
                  (  0.0000000  0.0000000  1.0000000 )
                  ( -1.0000000  0.0000000  0.0000000 )


      isym =  7     120 deg rotation - cart. axis [1,1,-1]       

 cryst.   s( 7) = (     0          0         -1      )
                  (     1          0          0      )
                  (     0         -1          0      )

 cart.    s( 7) = (  0.0000000  1.0000000  0.0000000 )
                  (  0.0000000  0.0000000 -1.0000000 )
                  ( -1.0000000  0.0000000  0.0000000 )


      isym =  8     120 deg rotation - cart. axis [1,-1,1]       

 cryst.   s( 8) = (     0          0          1      )
                  (    -1          0          0      )
                  (     0         -1          0      )

 cart.    s( 8) = (  0.0000000 -1.0000000  0.0000000 )
                  (  0.0000000  0.0000000 -1.0000000 )
                  (  1.0000000  0.0000000  0.0000000 )


      isym =  9     120 deg rotation - cart. axis [1,1,1]        

 cryst.   s( 9) = (     0          1          0      )
                  (     0          0          1      )
                  (     1          0          0      )

 cart.    s( 9) = (  0.0000000  0.0000000  1.0000000 )
                  (  1.0000000  0.0000000  0.0000000 )
                  (  0.0000000  1.0000000  0.0000000 )


      isym = 10     120 deg rotation - cart. axis [-1,1,-1]      

 cryst.   s(10) = (     0         -1          0      )
                  (     0          0         -1      )
                  (     1          0          0      )

 cart.    s(10) = (  0.0000000  0.0000000  1.0000000 )
                  ( -1.0000000  0.0000000  0.0000000 )
                  (  0.0000000 -1.0000000  0.0000000 )


      isym = 11     120 deg rotation - cart. axis [1,-1,-1]      

 cryst.   s(11) = (     0         -1          0      )
                  (     0          0          1      )
                  (    -1          0          0      )

 cart.    s(11) = (  0.0000000  0.0000000 -1.0000000 )
                  ( -1.0000000  0.0000000  0.0000000 )
                  (  0.0000000  1.0000000  0.0000000 )


      isym = 12     120 deg rotation - cart. axis [-1,-1,1]      

 cryst.   s(12) = (     0          1          0      )
                  (     0          0         -1      )
                  (    -1          0          0      )

 cart.    s(12) = (  0.0000000  0.0000000 -1.0000000 )
                  (  1.0000000  0.0000000  0.0000000 )
                  (  0.0000000 -1.0000000  0.0000000 )


      isym = 13     inv. 180 deg rotation - cart. axis [1,1,0]   

 cryst.   s(13) = (     0         -1          0      )
                  (    -1          0          0      )
                  (     0          0          1      )

 cart.    s(13) = (  0.0000000 -1.0000000  0.0000000 )
                  ( -1.0000000  0.0000000  0.0000000 )
                  (  0.0000000  0.0000000  1.0000000 )


      isym = 14     inv. 180 deg rotation - cart. axis [1,-1,0]  

 cryst.   s(14) = (     0          1          0      )
                  (     1          0          0      )
                  (     0          0          1      )

 cart.    s(14) = (  0.0000000  1.0000000  0.0000000 )
                  (  1.0000000  0.0000000  0.0000000 )
                  (  0.0000000  0.0000000  1.0000000 )


      isym = 15     inv.  90 deg rotation - cart. axis [0,0,-1]  

 cryst.   s(15) = (     0          1          0      )
                  (    -1          0          0      )
                  (     0          0         -1      )

 cart.    s(15) = (  0.0000000 -1.0000000  0.0000000 )
                  (  1.0000000  0.0000000  0.0000000 )
                  (  0.0000000  0.0000000 -1.0000000 )


      isym = 16     inv.  90 deg rotation - cart. axis [0,0,1]   

 cryst.   s(16) = (     0         -1          0      )
                  (     1          0          0      )
                  (     0          0         -1      )

 cart.    s(16) = (  0.0000000  1.0000000  0.0000000 )
                  ( -1.0000000  0.0000000  0.0000000 )
                  (  0.0000000  0.0000000 -1.0000000 )


      isym = 17     inv. 180 deg rotation - cart. axis [1,0,1]   

 cryst.   s(17) = (     0          0         -1      )
                  (     0          1          0      )
                  (    -1          0          0      )

 cart.    s(17) = (  0.0000000  0.0000000 -1.0000000 )
                  (  0.0000000  1.0000000  0.0000000 )
                  ( -1.0000000  0.0000000  0.0000000 )


      isym = 18     inv. 180 deg rotation - cart. axis [-1,0,1]  

 cryst.   s(18) = (     0          0          1      )
                  (     0          1          0      )
                  (     1          0          0      )

 cart.    s(18) = (  0.0000000  0.0000000  1.0000000 )
                  (  0.0000000  1.0000000  0.0000000 )
                  (  1.0000000  0.0000000  0.0000000 )


      isym = 19     inv.  90 deg rotation - cart. axis [0,1,0]   

 cryst.   s(19) = (     0          0          1      )
                  (     0         -1          0      )
                  (    -1          0          0      )

 cart.    s(19) = (  0.0000000  0.0000000 -1.0000000 )
                  (  0.0000000 -1.0000000  0.0000000 )
                  (  1.0000000  0.0000000  0.0000000 )


      isym = 20     inv.  90 deg rotation - cart. axis [0,-1,0]  

 cryst.   s(20) = (     0          0         -1      )
                  (     0         -1          0      )
                  (     1          0          0      )

 cart.    s(20) = (  0.0000000  0.0000000  1.0000000 )
                  (  0.0000000 -1.0000000  0.0000000 )
                  ( -1.0000000  0.0000000  0.0000000 )


      isym = 21     inv. 180 deg rotation - cart. axis [0,1,1]   

 cryst.   s(21) = (     1          0          0      )
                  (     0          0         -1      )
                  (     0         -1          0      )

 cart.    s(21) = (  1.0000000  0.0000000  0.0000000 )
                  (  0.0000000  0.0000000 -1.0000000 )
                  (  0.0000000 -1.0000000  0.0000000 )


      isym = 22     inv. 180 deg rotation - cart. axis [0,1,-1]  

 cryst.   s(22) = (     1          0          0      )
                  (     0          0          1      )
                  (     0          1          0      )

 cart.    s(22) = (  1.0000000  0.0000000  0.0000000 )
                  (  0.0000000  0.0000000  1.0000000 )
                  (  0.0000000  1.0000000  0.0000000 )


      isym = 23     inv.  90 deg rotation - cart. axis [-1,0,0]  

 cryst.   s(23) = (    -1          0          0      )
                  (     0          0          1      )
                  (     0         -1          0      )

 cart.    s(23) = ( -1.0000000  0.0000000  0.0000000 )
                  (  0.0000000  0.0000000 -1.0000000 )
                  (  0.0000000  1.0000000  0.0000000 )


      isym = 24     inv.  90 deg rotation - cart. axis [1,0,0]   

 cryst.   s(24) = (    -1          0          0      )
                  (     0          0         -1      )
                  (     0          1          0      )

 cart.    s(24) = ( -1.0000000  0.0000000  0.0000000 )
                  (  0.0000000  0.0000000  1.0000000 )
                  (  0.0000000 -1.0000000  0.0000000 )


     point group T_d (-43m) 
     there are  5 classes
     the character table:

       E     8C3   3C2   6S4   6s_d 
A_1    1.00  1.00  1.00  1.00  1.00
A_2    1.00  1.00  1.00 -1.00 -1.00
E      2.00 -1.00  2.00  0.00  0.00
T_1    3.00  0.00 -1.00  1.00 -1.00
T_2    3.00  0.00 -1.00 -1.00  1.00

     the symmetry operations in each class and the name of the first element:

     E        1
          identity                                               
     8C3      5    7    8    6   12    9   10   11
          120 deg rotation - cart. axis [-1,-1,-1]               
     3C2      2    3    4
          180 deg rotation - cart. axis [0,0,1]                  
     6S4     15   16   20   19   23   24
          inv.  90 deg rotation - cart. axis [0,0,-1]            
     6s_d    13   14   17   18   21   22
          inv. 180 deg rotation - cart. axis [1,1,0]             

   Cartesian axes

     site n.     atom                  positions (alat units)
         1           C   tau(   1) = (   0.0833353   0.2499980   0.0833353  )
         2           C   tau(   2) = (   0.0833353   0.2499980   0.4166687  )
         3           C   tau(   3) = (   0.0833353   0.2499980   0.7500020  )
         4           C   tau(   4) = (   0.0833353   0.5833313   0.0833353  )
         5           C   tau(   5) = (   0.0833353   0.5833313   0.4166687  )
         6           C   tau(   6) = (   0.0833353   0.5833313   0.7500020  )
         7           C   tau(   7) = (   0.0833353   0.9166647   0.0833353  )
         8           C   tau(   8) = (   0.0833353   0.9166647   0.4166687  )
         9           C   tau(   9) = (   0.0833353   0.9166647   0.7500020  )
        10           C   tau(  10) = (   0.4166687   0.2499980   0.0833353  )
        11           C   tau(  11) = (   0.4166687   0.2499980   0.4166687  )
        12           C   tau(  12) = (   0.4166687   0.2499980   0.7500020  )
        13           C   tau(  13) = (   0.4166687   0.5833313   0.0833353  )
        14           C   tau(  14) = (   0.4166687   0.5833313   0.4166687  )
        15           C   tau(  15) = (   0.4166687   0.5833313   0.7500020  )
        16           C   tau(  16) = (   0.4166687   0.9166647   0.0833353  )
        17           C   tau(  17) = (   0.4166687   0.9166647   0.4166687  )
        18           C   tau(  18) = (   0.4166687   0.9166647   0.7500020  )
        19           C   tau(  19) = (   0.7500020   0.2499980   0.0833353  )
        20           C   tau(  20) = (   0.7500020   0.2499980   0.4166687  )
        21           C   tau(  21) = (   0.7500020   0.2499980   0.7500020  )
        22           C   tau(  22) = (   0.7500020   0.5833313   0.0833353  )
        23           C   tau(  23) = (   0.7500020   0.5833313   0.4166687  )
        24           C   tau(  24) = (   0.7500020   0.5833313   0.7500020  )
        25           C   tau(  25) = (   0.7500020   0.9166647   0.0833353  )
        26           C   tau(  26) = (   0.7500020   0.9166647   0.4166687  )
        27           C   tau(  27) = (   0.7500020   0.9166647   0.7500020  )
        28           C   tau(  28) = (   0.0000000   0.0000000   0.1666667  )
        29           C   tau(  29) = (   0.0000000   0.0000000   0.5000000  )
        30           C   tau(  30) = (   0.0000000   0.0000000   0.8333333  )
        31           C   tau(  31) = (   0.0000000   0.3333333   0.1666667  )
        32           C   tau(  32) = (   0.0000000   0.3333333   0.5000000  )
        33           C   tau(  33) = (   0.0000000   0.3333333   0.8333333  )
        34           C   tau(  34) = (   0.0000000   0.6666667   0.1666667  )
        35           C   tau(  35) = (   0.0000000   0.6666667   0.5000000  )
        36           C   tau(  36) = (   0.0000000   0.6666667   0.8333333  )
        37           C   tau(  37) = (   0.3333333   0.0000000   0.1666667  )
        38           C   tau(  38) = (   0.3333333   0.0000000   0.5000000  )
        39           C   tau(  39) = (   0.3333333   0.0000000   0.8333333  )
        40           C   tau(  40) = (   0.3333333   0.3333333   0.1666667  )
        41           C   tau(  41) = (   0.3333333   0.3333333   0.5000000  )
        42           C   tau(  42) = (   0.3333333   0.3333333   0.8333333  )
        43           C   tau(  43) = (   0.3333333   0.6666667   0.1666667  )
        44           C   tau(  44) = (   0.3333333   0.6666667   0.5000000  )
        45           C   tau(  45) = (   0.3333333   0.6666667   0.8333333  )
        46           C   tau(  46) = (   0.6666667   0.0000000   0.1666667  )
        47           C   tau(  47) = (   0.6666667   0.0000000   0.5000000  )
        48           C   tau(  48) = (   0.6666667   0.0000000   0.8333333  )
        49           C   tau(  49) = (   0.6666667   0.3333333   0.1666667  )
        50           C   tau(  50) = (   0.6666667   0.3333333   0.5000000  )
        51           C   tau(  51) = (   0.6666667   0.3333333   0.8333333  )
        52           C   tau(  52) = (   0.6666667   0.6666667   0.1666667  )
        53           C   tau(  53) = (   0.6666667   0.6666667   0.5000000  )
        54           C   tau(  54) = (   0.6666667   0.6666667   0.8333333  )
        55           C   tau(  55) = (   0.0833353   0.0833353   0.2499980  )
        56           C   tau(  56) = (   0.0833353   0.0833353   0.5833313  )
        57           C   tau(  57) = (   0.0833353   0.0833353   0.9166647  )
        58           C   tau(  58) = (   0.0833353   0.4166687   0.2499980  )
        59           C   tau(  59) = (   0.0833353   0.4166687   0.5833313  )
        60           C   tau(  60) = (   0.0833353   0.4166687   0.9166647  )
        61           C   tau(  61) = (   0.0833353   0.7500020   0.2499980  )
        62           C   tau(  62) = (   0.0833353   0.7500020   0.5833313  )
        63           C   tau(  63) = (   0.0833353   0.7500020   0.9166647  )
        64           C   tau(  64) = (   0.4166687   0.0833353   0.2499980  )
        65           C   tau(  65) = (   0.4166687   0.0833353   0.5833313  )
        66           C   tau(  66) = (   0.4166687   0.0833353   0.9166647  )
        67           C   tau(  67) = (   0.4166687   0.4166687   0.2499980  )
        68           C   tau(  68) = (   0.4166687   0.4166687   0.5833313  )
        69           C   tau(  69) = (   0.4166687   0.4166687   0.9166647  )
        70           C   tau(  70) = (   0.4166687   0.7500020   0.2499980  )
        71           C   tau(  71) = (   0.4166687   0.7500020   0.5833313  )
        72           C   tau(  72) = (   0.4166687   0.7500020   0.9166647  )
        73           C   tau(  73) = (   0.7500020   0.0833353   0.2499980  )
        74           C   tau(  74) = (   0.7500020   0.0833353   0.5833313  )
        75           C   tau(  75) = (   0.7500020   0.0833353   0.9166647  )
        76           C   tau(  76) = (   0.7500020   0.4166687   0.2499980  )
        77           C   tau(  77) = (   0.7500020   0.4166687   0.5833313  )
        78           C   tau(  78) = (   0.7500020   0.4166687   0.9166647  )
        79           C   tau(  79) = (   0.7500020   0.7500020   0.2499980  )
        80           C   tau(  80) = (   0.7500020   0.7500020   0.5833313  )
        81           C   tau(  81) = (   0.7500020   0.7500020   0.9166647  )
        82           C   tau(  82) = (   0.0000000   0.1666667   0.0000000  )
        83           C   tau(  83) = (   0.0000000   0.1666667   0.3333333  )
        84           C   tau(  84) = (   0.0000000   0.1666667   0.6666667  )
        85           C   tau(  85) = (   0.0000000   0.5000000   0.0000000  )
        86           C   tau(  86) = (   0.0000000   0.5000000   0.3333333  )
        87           C   tau(  87) = (   0.0000000   0.5000000   0.6666667  )
        88           C   tau(  88) = (   0.0000000   0.8333333   0.0000000  )
        89           C   tau(  89) = (   0.0000000   0.8333333   0.3333333  )
        90           C   tau(  90) = (   0.0000000   0.8333333   0.6666667  )
        91           C   tau(  91) = (   0.3333333   0.1666667   0.0000000  )
        92           C   tau(  92) = (   0.3333333   0.1666667   0.3333333  )
        93           C   tau(  93) = (   0.3333333   0.1666667   0.6666667  )
        94           C   tau(  94) = (   0.3333333   0.5000000   0.0000000  )
        95           C   tau(  95) = (   0.3333333   0.5000000   0.3333333  )
        96           C   tau(  96) = (   0.3333333   0.5000000   0.6666667  )
        97           C   tau(  97) = (   0.3333333   0.8333333   0.0000000  )
        98           C   tau(  98) = (   0.3333333   0.8333333   0.3333333  )
        99           C   tau(  99) = (   0.3333333   0.8333333   0.6666667  )
       100           C   tau( 100) = (   0.6666667   0.1666667   0.0000000  )
       101           C   tau( 101) = (   0.6666667   0.1666667   0.3333333  )
       102           C   tau( 102) = (   0.6666667   0.1666667   0.6666667  )
       103           C   tau( 103) = (   0.6666667   0.5000000   0.0000000  )
       104           C   tau( 104) = (   0.6666667   0.5000000   0.3333333  )
       105           C   tau( 105) = (   0.6666667   0.5000000   0.6666667  )
       106           C   tau( 106) = (   0.6666667   0.8333333   0.0000000  )
       107           C   tau( 107) = (   0.6666667   0.8333333   0.3333333  )
       108           C   tau( 108) = (   0.6666667   0.8333333   0.6666667  )
       109           C   tau( 109) = (   0.2499980   0.2499980   0.2499980  )
       110           C   tau( 110) = (   0.2499980   0.2499980   0.5833313  )
       111           C   tau( 111) = (   0.2499980   0.2499980   0.9166647  )
       112           C   tau( 112) = (   0.2499980   0.5833313   0.2499980  )
       113           C   tau( 113) = (   0.2499980   0.5833313   0.5833313  )
       114           C   tau( 114) = (   0.2499980   0.5833313   0.9166647  )
       115           C   tau( 115) = (   0.2499980   0.9166647   0.2499980  )
       116           C   tau( 116) = (   0.2499980   0.9166647   0.5833313  )
       117           C   tau( 117) = (   0.2499980   0.9166647   0.9166647  )
       118           C   tau( 118) = (   0.5833313   0.2499980   0.2499980  )
       119           C   tau( 119) = (   0.5833313   0.2499980   0.5833313  )
       120           C   tau( 120) = (   0.5833313   0.2499980   0.9166647  )
       121           C   tau( 121) = (   0.5833313   0.5833313   0.2499980  )
       122           C   tau( 122) = (   0.5833313   0.5833313   0.5833313  )
       123           C   tau( 123) = (   0.5833313   0.5833313   0.9166647  )
       124           C   tau( 124) = (   0.5833313   0.9166647   0.2499980  )
       125           C   tau( 125) = (   0.5833313   0.9166647   0.5833313  )
       126           C   tau( 126) = (   0.5833313   0.9166647   0.9166647  )
       127           C   tau( 127) = (   0.9166647   0.2499980   0.2499980  )
       128           C   tau( 128) = (   0.9166647   0.2499980   0.5833313  )
       129           C   tau( 129) = (   0.9166647   0.2499980   0.9166647  )
       130           C   tau( 130) = (   0.9166647   0.5833313   0.2499980  )
       131           C   tau( 131) = (   0.9166647   0.5833313   0.5833313  )
       132           C   tau( 132) = (   0.9166647   0.5833313   0.9166647  )
       133           C   tau( 133) = (   0.9166647   0.9166647   0.2499980  )
       134           C   tau( 134) = (   0.9166647   0.9166647   0.5833313  )
       135           C   tau( 135) = (   0.9166647   0.9166647   0.9166647  )
       136           C   tau( 136) = (   0.1666667   0.0000000   0.0000000  )
       137           C   tau( 137) = (   0.1666667   0.0000000   0.3333333  )
       138           C   tau( 138) = (   0.1666667   0.0000000   0.6666667  )
       139           C   tau( 139) = (   0.1666667   0.3333333   0.0000000  )
       140           C   tau( 140) = (   0.1666667   0.3333333   0.3333333  )
       141           C   tau( 141) = (   0.1666667   0.3333333   0.6666667  )
       142           C   tau( 142) = (   0.1666667   0.6666667   0.0000000  )
       143           C   tau( 143) = (   0.1666667   0.6666667   0.3333333  )
       144           C   tau( 144) = (   0.1666667   0.6666667   0.6666667  )
       145           C   tau( 145) = (   0.5000000   0.0000000   0.0000000  )
       146           C   tau( 146) = (   0.5000000   0.0000000   0.3333333  )
       147           C   tau( 147) = (   0.5000000   0.0000000   0.6666667  )
       148           C   tau( 148) = (   0.5000000   0.3333333   0.0000000  )
       149           C   tau( 149) = (   0.5000000   0.3333333   0.3333333  )
       150           C   tau( 150) = (   0.5000000   0.3333333   0.6666667  )
       151           C   tau( 151) = (   0.5000000   0.6666667   0.0000000  )
       152           C   tau( 152) = (   0.5000000   0.6666667   0.3333333  )
       153           C   tau( 153) = (   0.5000000   0.6666667   0.6666667  )
       154           C   tau( 154) = (   0.8333333   0.0000000   0.0000000  )
       155           C   tau( 155) = (   0.8333333   0.0000000   0.3333333  )
       156           C   tau( 156) = (   0.8333333   0.0000000   0.6666667  )
       157           C   tau( 157) = (   0.8333333   0.3333333   0.0000000  )
       158           C   tau( 158) = (   0.8333333   0.3333333   0.3333333  )
       159           C   tau( 159) = (   0.8333333   0.3333333   0.6666667  )
       160           C   tau( 160) = (   0.8333333   0.6666667   0.0000000  )
       161           C   tau( 161) = (   0.8333333   0.6666667   0.3333333  )
       162           C   tau( 162) = (   0.8333333   0.6666667   0.6666667  )
       163           C   tau( 163) = (   0.2499980   0.0833353   0.0833353  )
       164           C   tau( 164) = (   0.2499980   0.0833353   0.4166687  )
       165           C   tau( 165) = (   0.2499980   0.0833353   0.7500020  )
       166           C   tau( 166) = (   0.2499980   0.4166687   0.0833353  )
       167           C   tau( 167) = (   0.2499980   0.4166687   0.4166687  )
       168           C   tau( 168) = (   0.2499980   0.4166687   0.7500020  )
       169           C   tau( 169) = (   0.2499980   0.7500020   0.0833353  )
       170           C   tau( 170) = (   0.2499980   0.7500020   0.4166687  )
       171           C   tau( 171) = (   0.2499980   0.7500020   0.7500020  )
       172           C   tau( 172) = (   0.5833313   0.0833353   0.0833353  )
       173           C   tau( 173) = (   0.5833313   0.0833353   0.4166687  )
       174           C   tau( 174) = (   0.5833313   0.0833353   0.7500020  )
       175           C   tau( 175) = (   0.5833313   0.4166687   0.0833353  )
       176           C   tau( 176) = (   0.5833313   0.4166687   0.4166687  )
       177           C   tau( 177) = (   0.5833313   0.4166687   0.7500020  )
       178           C   tau( 178) = (   0.5833313   0.7500020   0.0833353  )
       179           C   tau( 179) = (   0.5833313   0.7500020   0.4166687  )
       180           C   tau( 180) = (   0.5833313   0.7500020   0.7500020  )
       181           C   tau( 181) = (   0.9166647   0.0833353   0.0833353  )
       182           C   tau( 182) = (   0.9166647   0.0833353   0.4166687  )
       183           C   tau( 183) = (   0.9166647   0.0833353   0.7500020  )
       184           C   tau( 184) = (   0.9166647   0.4166687   0.0833353  )
       185           C   tau( 185) = (   0.9166647   0.4166687   0.4166687  )
       186           C   tau( 186) = (   0.9166647   0.4166687   0.7500020  )
       187           C   tau( 187) = (   0.9166647   0.7500020   0.0833353  )
       188           C   tau( 188) = (   0.9166647   0.7500020   0.4166687  )
       189           C   tau( 189) = (   0.9166647   0.7500020   0.7500020  )
       190           C   tau( 190) = (   0.1666667   0.1666667   0.1666667  )
       191           C   tau( 191) = (   0.1666667   0.1666667   0.5000000  )
       192           C   tau( 192) = (   0.1666667   0.1666667   0.8333333  )
       193           C   tau( 193) = (   0.1666667   0.5000000   0.1666667  )
       194           C   tau( 194) = (   0.1666667   0.5000000   0.5000000  )
       195           C   tau( 195) = (   0.1666667   0.5000000   0.8333333  )
       196           C   tau( 196) = (   0.1666667   0.8333333   0.1666667  )
       197           C   tau( 197) = (   0.1666667   0.8333333   0.5000000  )
       198           C   tau( 198) = (   0.1666667   0.8333333   0.8333333  )
       199           C   tau( 199) = (   0.5000000   0.1666667   0.1666667  )
       200           C   tau( 200) = (   0.5000000   0.1666667   0.5000000  )
       201           C   tau( 201) = (   0.5000000   0.1666667   0.8333333  )
       202           C   tau( 202) = (   0.5000000   0.5000000   0.1666667  )
       203           C   tau( 203) = (   0.5000000   0.5000000   0.5000000  )
       204           C   tau( 204) = (   0.5000000   0.5000000   0.8333333  )
       205           C   tau( 205) = (   0.5000000   0.8333333   0.1666667  )
       206           C   tau( 206) = (   0.5000000   0.8333333   0.5000000  )
       207           C   tau( 207) = (   0.5000000   0.8333333   0.8333333  )
       208           C   tau( 208) = (   0.8333333   0.1666667   0.1666667  )
       209           C   tau( 209) = (   0.8333333   0.1666667   0.5000000  )
       210           C   tau( 210) = (   0.8333333   0.1666667   0.8333333  )
       211           C   tau( 211) = (   0.8333333   0.5000000   0.1666667  )
       212           C   tau( 212) = (   0.8333333   0.5000000   0.5000000  )
       213           C   tau( 213) = (   0.8333333   0.5000000   0.8333333  )
       214           C   tau( 214) = (   0.8333333   0.8333333   0.1666667  )
       215           C   tau( 215) = (   0.8333333   0.8333333   0.5000000  )
       216           C   tau( 216) = (   0.8333333   0.8333333   0.8333333  )

   Crystallographic axes

     site n.     atom                  positions (cryst. coord.)
         1           C   tau(   1) = (  0.0833353  0.2499980  0.0833353  )
         2           C   tau(   2) = (  0.0833353  0.2499980  0.4166687  )
         3           C   tau(   3) = (  0.0833353  0.2499980  0.7500020  )
         4           C   tau(   4) = (  0.0833353  0.5833313  0.0833353  )
         5           C   tau(   5) = (  0.0833353  0.5833313  0.4166687  )
         6           C   tau(   6) = (  0.0833353  0.5833313  0.7500020  )
         7           C   tau(   7) = (  0.0833353  0.9166647  0.0833353  )
         8           C   tau(   8) = (  0.0833353  0.9166647  0.4166687  )
         9           C   tau(   9) = (  0.0833353  0.9166647  0.7500020  )
        10           C   tau(  10) = (  0.4166687  0.2499980  0.0833353  )
        11           C   tau(  11) = (  0.4166687  0.2499980  0.4166687  )
        12           C   tau(  12) = (  0.4166687  0.2499980  0.7500020  )
        13           C   tau(  13) = (  0.4166687  0.5833313  0.0833353  )
        14           C   tau(  14) = (  0.4166687  0.5833313  0.4166687  )
        15           C   tau(  15) = (  0.4166687  0.5833313  0.7500020  )
        16           C   tau(  16) = (  0.4166687  0.9166647  0.0833353  )
        17           C   tau(  17) = (  0.4166687  0.9166647  0.4166687  )
        18           C   tau(  18) = (  0.4166687  0.9166647  0.7500020  )
        19           C   tau(  19) = (  0.7500020  0.2499980  0.0833353  )
        20           C   tau(  20) = (  0.7500020  0.2499980  0.4166687  )
        21           C   tau(  21) = (  0.7500020  0.2499980  0.7500020  )
        22           C   tau(  22) = (  0.7500020  0.5833313  0.0833353  )
        23           C   tau(  23) = (  0.7500020  0.5833313  0.4166687  )
        24           C   tau(  24) = (  0.7500020  0.5833313  0.7500020  )
        25           C   tau(  25) = (  0.7500020  0.9166647  0.0833353  )
        26           C   tau(  26) = (  0.7500020  0.9166647  0.4166687  )
        27           C   tau(  27) = (  0.7500020  0.9166647  0.7500020  )
        28           C   tau(  28) = (  0.0000000  0.0000000  0.1666667  )
        29           C   tau(  29) = (  0.0000000  0.0000000  0.5000000  )
        30           C   tau(  30) = (  0.0000000  0.0000000  0.8333333  )
        31           C   tau(  31) = (  0.0000000  0.3333333  0.1666667  )
        32           C   tau(  32) = (  0.0000000  0.3333333  0.5000000  )
        33           C   tau(  33) = (  0.0000000  0.3333333  0.8333333  )
        34           C   tau(  34) = (  0.0000000  0.6666667  0.1666667  )
        35           C   tau(  35) = (  0.0000000  0.6666667  0.5000000  )
        36           C   tau(  36) = (  0.0000000  0.6666667  0.8333333  )
        37           C   tau(  37) = (  0.3333333  0.0000000  0.1666667  )
        38           C   tau(  38) = (  0.3333333  0.0000000  0.5000000  )
        39           C   tau(  39) = (  0.3333333  0.0000000  0.8333333  )
        40           C   tau(  40) = (  0.3333333  0.3333333  0.1666667  )
        41           C   tau(  41) = (  0.3333333  0.3333333  0.5000000  )
        42           C   tau(  42) = (  0.3333333  0.3333333  0.8333333  )
        43           C   tau(  43) = (  0.3333333  0.6666667  0.1666667  )
        44           C   tau(  44) = (  0.3333333  0.6666667  0.5000000  )
        45           C   tau(  45) = (  0.3333333  0.6666667  0.8333333  )
        46           C   tau(  46) = (  0.6666667  0.0000000  0.1666667  )
        47           C   tau(  47) = (  0.6666667  0.0000000  0.5000000  )
        48           C   tau(  48) = (  0.6666667  0.0000000  0.8333333  )
        49           C   tau(  49) = (  0.6666667  0.3333333  0.1666667  )
        50           C   tau(  50) = (  0.6666667  0.3333333  0.5000000  )
        51           C   tau(  51) = (  0.6666667  0.3333333  0.8333333  )
        52           C   tau(  52) = (  0.6666667  0.6666667  0.1666667  )
        53           C   tau(  53) = (  0.6666667  0.6666667  0.5000000  )
        54           C   tau(  54) = (  0.6666667  0.6666667  0.8333333  )
        55           C   tau(  55) = (  0.0833353  0.0833353  0.2499980  )
        56           C   tau(  56) = (  0.0833353  0.0833353  0.5833313  )
        57           C   tau(  57) = (  0.0833353  0.0833353  0.9166647  )
        58           C   tau(  58) = (  0.0833353  0.4166687  0.2499980  )
        59           C   tau(  59) = (  0.0833353  0.4166687  0.5833313  )
        60           C   tau(  60) = (  0.0833353  0.4166687  0.9166647  )
        61           C   tau(  61) = (  0.0833353  0.7500020  0.2499980  )
        62           C   tau(  62) = (  0.0833353  0.7500020  0.5833313  )
        63           C   tau(  63) = (  0.0833353  0.7500020  0.9166647  )
        64           C   tau(  64) = (  0.4166687  0.0833353  0.2499980  )
        65           C   tau(  65) = (  0.4166687  0.0833353  0.5833313  )
        66           C   tau(  66) = (  0.4166687  0.0833353  0.9166647  )
        67           C   tau(  67) = (  0.4166687  0.4166687  0.2499980  )
        68           C   tau(  68) = (  0.4166687  0.4166687  0.5833313  )
        69           C   tau(  69) = (  0.4166687  0.4166687  0.9166647  )
        70           C   tau(  70) = (  0.4166687  0.7500020  0.2499980  )
        71           C   tau(  71) = (  0.4166687  0.7500020  0.5833313  )
        72           C   tau(  72) = (  0.4166687  0.7500020  0.9166647  )
        73           C   tau(  73) = (  0.7500020  0.0833353  0.2499980  )
        74           C   tau(  74) = (  0.7500020  0.0833353  0.5833313  )
        75           C   tau(  75) = (  0.7500020  0.0833353  0.9166647  )
        76           C   tau(  76) = (  0.7500020  0.4166687  0.2499980  )
        77           C   tau(  77) = (  0.7500020  0.4166687  0.5833313  )
        78           C   tau(  78) = (  0.7500020  0.4166687  0.9166647  )
        79           C   tau(  79) = (  0.7500020  0.7500020  0.2499980  )
        80           C   tau(  80) = (  0.7500020  0.7500020  0.5833313  )
        81           C   tau(  81) = (  0.7500020  0.7500020  0.9166647  )
        82           C   tau(  82) = (  0.0000000  0.1666667  0.0000000  )
        83           C   tau(  83) = (  0.0000000  0.1666667  0.3333333  )
        84           C   tau(  84) = (  0.0000000  0.1666667  0.6666667  )
        85           C   tau(  85) = (  0.0000000  0.5000000  0.0000000  )
        86           C   tau(  86) = (  0.0000000  0.5000000  0.3333333  )
        87           C   tau(  87) = (  0.0000000  0.5000000  0.6666667  )
        88           C   tau(  88) = (  0.0000000  0.8333333  0.0000000  )
        89           C   tau(  89) = (  0.0000000  0.8333333  0.3333333  )
        90           C   tau(  90) = (  0.0000000  0.8333333  0.6666667  )
        91           C   tau(  91) = (  0.3333333  0.1666667  0.0000000  )
        92           C   tau(  92) = (  0.3333333  0.1666667  0.3333333  )
        93           C   tau(  93) = (  0.3333333  0.1666667  0.6666667  )
        94           C   tau(  94) = (  0.3333333  0.5000000  0.0000000  )
        95           C   tau(  95) = (  0.3333333  0.5000000  0.3333333  )
        96           C   tau(  96) = (  0.3333333  0.5000000  0.6666667  )
        97           C   tau(  97) = (  0.3333333  0.8333333  0.0000000  )
        98           C   tau(  98) = (  0.3333333  0.8333333  0.3333333  )
        99           C   tau(  99) = (  0.3333333  0.8333333  0.6666667  )
       100           C   tau( 100) = (  0.6666667  0.1666667  0.0000000  )
       101           C   tau( 101) = (  0.6666667  0.1666667  0.3333333  )
       102           C   tau( 102) = (  0.6666667  0.1666667  0.6666667  )
       103           C   tau( 103) = (  0.6666667  0.5000000  0.0000000  )
       104           C   tau( 104) = (  0.6666667  0.5000000  0.3333333  )
       105           C   tau( 105) = (  0.6666667  0.5000000  0.6666667  )
       106           C   tau( 106) = (  0.6666667  0.8333333  0.0000000  )
       107           C   tau( 107) = (  0.6666667  0.8333333  0.3333333  )
       108           C   tau( 108) = (  0.6666667  0.8333333  0.6666667  )
       109           C   tau( 109) = (  0.2499980  0.2499980  0.2499980  )
       110           C   tau( 110) = (  0.2499980  0.2499980  0.5833313  )
       111           C   tau( 111) = (  0.2499980  0.2499980  0.9166647  )
       112           C   tau( 112) = (  0.2499980  0.5833313  0.2499980  )
       113           C   tau( 113) = (  0.2499980  0.5833313  0.5833313  )
       114           C   tau( 114) = (  0.2499980  0.5833313  0.9166647  )
       115           C   tau( 115) = (  0.2499980  0.9166647  0.2499980  )
       116           C   tau( 116) = (  0.2499980  0.9166647  0.5833313  )
       117           C   tau( 117) = (  0.2499980  0.9166647  0.9166647  )
       118           C   tau( 118) = (  0.5833313  0.2499980  0.2499980  )
       119           C   tau( 119) = (  0.5833313  0.2499980  0.5833313  )
       120           C   tau( 120) = (  0.5833313  0.2499980  0.9166647  )
       121           C   tau( 121) = (  0.5833313  0.5833313  0.2499980  )
       122           C   tau( 122) = (  0.5833313  0.5833313  0.5833313  )
       123           C   tau( 123) = (  0.5833313  0.5833313  0.9166647  )
       124           C   tau( 124) = (  0.5833313  0.9166647  0.2499980  )
       125           C   tau( 125) = (  0.5833313  0.9166647  0.5833313  )
       126           C   tau( 126) = (  0.5833313  0.9166647  0.9166647  )
       127           C   tau( 127) = (  0.9166647  0.2499980  0.2499980  )
       128           C   tau( 128) = (  0.9166647  0.2499980  0.5833313  )
       129           C   tau( 129) = (  0.9166647  0.2499980  0.9166647  )
       130           C   tau( 130) = (  0.9166647  0.5833313  0.2499980  )
       131           C   tau( 131) = (  0.9166647  0.5833313  0.5833313  )
       132           C   tau( 132) = (  0.9166647  0.5833313  0.9166647  )
       133           C   tau( 133) = (  0.9166647  0.9166647  0.2499980  )
       134           C   tau( 134) = (  0.9166647  0.9166647  0.5833313  )
       135           C   tau( 135) = (  0.9166647  0.9166647  0.9166647  )
       136           C   tau( 136) = (  0.1666667  0.0000000  0.0000000  )
       137           C   tau( 137) = (  0.1666667  0.0000000  0.3333333  )
       138           C   tau( 138) = (  0.1666667  0.0000000  0.6666667  )
       139           C   tau( 139) = (  0.1666667  0.3333333  0.0000000  )
       140           C   tau( 140) = (  0.1666667  0.3333333  0.3333333  )
       141           C   tau( 141) = (  0.1666667  0.3333333  0.6666667  )
       142           C   tau( 142) = (  0.1666667  0.6666667  0.0000000  )
       143           C   tau( 143) = (  0.1666667  0.6666667  0.3333333  )
       144           C   tau( 144) = (  0.1666667  0.6666667  0.6666667  )
       145           C   tau( 145) = (  0.5000000  0.0000000  0.0000000  )
       146           C   tau( 146) = (  0.5000000  0.0000000  0.3333333  )
       147           C   tau( 147) = (  0.5000000  0.0000000  0.6666667  )
       148           C   tau( 148) = (  0.5000000  0.3333333  0.0000000  )
       149           C   tau( 149) = (  0.5000000  0.3333333  0.3333333  )
       150           C   tau( 150) = (  0.5000000  0.3333333  0.6666667  )
       151           C   tau( 151) = (  0.5000000  0.6666667  0.0000000  )
       152           C   tau( 152) = (  0.5000000  0.6666667  0.3333333  )
       153           C   tau( 153) = (  0.5000000  0.6666667  0.6666667  )
       154           C   tau( 154) = (  0.8333333  0.0000000  0.0000000  )
       155           C   tau( 155) = (  0.8333333  0.0000000  0.3333333  )
       156           C   tau( 156) = (  0.8333333  0.0000000  0.6666667  )
       157           C   tau( 157) = (  0.8333333  0.3333333  0.0000000  )
       158           C   tau( 158) = (  0.8333333  0.3333333  0.3333333  )
       159           C   tau( 159) = (  0.8333333  0.3333333  0.6666667  )
       160           C   tau( 160) = (  0.8333333  0.6666667  0.0000000  )
       161           C   tau( 161) = (  0.8333333  0.6666667  0.3333333  )
       162           C   tau( 162) = (  0.8333333  0.6666667  0.6666667  )
       163           C   tau( 163) = (  0.2499980  0.0833353  0.0833353  )
       164           C   tau( 164) = (  0.2499980  0.0833353  0.4166687  )
       165           C   tau( 165) = (  0.2499980  0.0833353  0.7500020  )
       166           C   tau( 166) = (  0.2499980  0.4166687  0.0833353  )
       167           C   tau( 167) = (  0.2499980  0.4166687  0.4166687  )
       168           C   tau( 168) = (  0.2499980  0.4166687  0.7500020  )
       169           C   tau( 169) = (  0.2499980  0.7500020  0.0833353  )
       170           C   tau( 170) = (  0.2499980  0.7500020  0.4166687  )
       171           C   tau( 171) = (  0.2499980  0.7500020  0.7500020  )
       172           C   tau( 172) = (  0.5833313  0.0833353  0.0833353  )
       173           C   tau( 173) = (  0.5833313  0.0833353  0.4166687  )
       174           C   tau( 174) = (  0.5833313  0.0833353  0.7500020  )
       175           C   tau( 175) = (  0.5833313  0.4166687  0.0833353  )
       176           C   tau( 176) = (  0.5833313  0.4166687  0.4166687  )
       177           C   tau( 177) = (  0.5833313  0.4166687  0.7500020  )
       178           C   tau( 178) = (  0.5833313  0.7500020  0.0833353  )
       179           C   tau( 179) = (  0.5833313  0.7500020  0.4166687  )
       180           C   tau( 180) = (  0.5833313  0.7500020  0.7500020  )
       181           C   tau( 181) = (  0.9166647  0.0833353  0.0833353  )
       182           C   tau( 182) = (  0.9166647  0.0833353  0.4166687  )
       183           C   tau( 183) = (  0.9166647  0.0833353  0.7500020  )
       184           C   tau( 184) = (  0.9166647  0.4166687  0.0833353  )
       185           C   tau( 185) = (  0.9166647  0.4166687  0.4166687  )
       186           C   tau( 186) = (  0.9166647  0.4166687  0.7500020  )
       187           C   tau( 187) = (  0.9166647  0.7500020  0.0833353  )
       188           C   tau( 188) = (  0.9166647  0.7500020  0.4166687  )
       189           C   tau( 189) = (  0.9166647  0.7500020  0.7500020  )
       190           C   tau( 190) = (  0.1666667  0.1666667  0.1666667  )
       191           C   tau( 191) = (  0.1666667  0.1666667  0.5000000  )
       192           C   tau( 192) = (  0.1666667  0.1666667  0.8333333  )
       193           C   tau( 193) = (  0.1666667  0.5000000  0.1666667  )
       194           C   tau( 194) = (  0.1666667  0.5000000  0.5000000  )
       195           C   tau( 195) = (  0.1666667  0.5000000  0.8333333  )
       196           C   tau( 196) = (  0.1666667  0.8333333  0.1666667  )
       197           C   tau( 197) = (  0.1666667  0.8333333  0.5000000  )
       198           C   tau( 198) = (  0.1666667  0.8333333  0.8333333  )
       199           C   tau( 199) = (  0.5000000  0.1666667  0.1666667  )
       200           C   tau( 200) = (  0.5000000  0.1666667  0.5000000  )
       201           C   tau( 201) = (  0.5000000  0.1666667  0.8333333  )
       202           C   tau( 202) = (  0.5000000  0.5000000  0.1666667  )
       203           C   tau( 203) = (  0.5000000  0.5000000  0.5000000  )
       204           C   tau( 204) = (  0.5000000  0.5000000  0.8333333  )
       205           C   tau( 205) = (  0.5000000  0.8333333  0.1666667  )
       206           C   tau( 206) = (  0.5000000  0.8333333  0.5000000  )
       207           C   tau( 207) = (  0.5000000  0.8333333  0.8333333  )
       208           C   tau( 208) = (  0.8333333  0.1666667  0.1666667  )
       209           C   tau( 209) = (  0.8333333  0.1666667  0.5000000  )
       210           C   tau( 210) = (  0.8333333  0.1666667  0.8333333  )
       211           C   tau( 211) = (  0.8333333  0.5000000  0.1666667  )
       212           C   tau( 212) = (  0.8333333  0.5000000  0.5000000  )
       213           C   tau( 213) = (  0.8333333  0.5000000  0.8333333  )
       214           C   tau( 214) = (  0.8333333  0.8333333  0.1666667  )
       215           C   tau( 215) = (  0.8333333  0.8333333  0.5000000  )
       216           C   tau( 216) = (  0.8333333  0.8333333  0.8333333  )

     number of k points=     4  Gaussian smearing, width (Ry)=  0.0100
                       cart. coord. in units 2pi/alat
        k(    1) = (   0.0000000   0.0000000   0.0000000), wk =   0.2500000
        k(    2) = (   0.0000000   0.0000000  -0.5000000), wk =   0.7500000
        k(    3) = (   0.0000000  -0.5000000  -0.5000000), wk =   0.7500000
        k(    4) = (  -0.5000000  -0.5000000  -0.5000000), wk =   0.2500000

                       cryst. coord.
        k(    1) = (   0.0000000   0.0000000   0.0000000), wk =   0.2500000
        k(    2) = (   0.0000000   0.0000000  -0.5000000), wk =   0.7500000
        k(    3) = (   0.0000000  -0.5000000  -0.5000000), wk =   0.7500000
        k(    4) = (  -0.5000000  -0.5000000  -0.5000000), wk =   0.2500000

     Dense  grid:   918657 G-vectors     FFT dimensions: ( 125, 125, 125)

     Smooth grid:   656775 G-vectors     FFT dimensions: ( 108, 108, 108)

     Dynamical RAM for                 wfc:      10.14 MB

     Dynamical RAM for     wfc (w. buffer):      10.14 MB

     Dynamical RAM for           str. fact:       0.22 MB

     Dynamical RAM for           local pot:       0.00 MB

     Dynamical RAM for          nlocal pot:      33.83 MB

     Dynamical RAM for                qrad:       0.43 MB

     Dynamical RAM for          rho,v,vnew:       1.37 MB

     Dynamical RAM for               rhoin:       0.46 MB

     Dynamical RAM for            rho*nmix:       3.50 MB

     Dynamical RAM for           G-vectors:       0.90 MB

     Dynamical RAM for          h,s,v(r/c):     196.53 MB

     Dynamical RAM for          <psi|beta>:      13.66 MB

     Dynamical RAM for                 psi:      40.56 MB

     Dynamical RAM for                hpsi:      40.56 MB

     Dynamical RAM for                spsi:      40.56 MB

     Dynamical RAM for      wfcinit/wfcrot:      26.43 MB

     Dynamical RAM for           addusdens:      14.34 MB

     Dynamical RAM for          addusforce:      38.01 MB

     Dynamical RAM for         addusstress:       2.82 MB

     Estimated static dynamical RAM per process >      48.98 MB

     Estimated max dynamical RAM per process >     384.36 MB

     Estimated total dynamical RAM >      95.43 GB

     Atomic positions and unit cell read from directory:
     ./diamond.save/
 

     Check: negative core charge=   -0.000014

     The initial density is read from file :
     ./diamond.save/charge-density



     %%%%%%%%%%%%%%%%%%%%%%%%%%%%%%%%%%%%%%%%%%%%%%%%%%%%%%%%%%%%%%%%%%%%%%%%
     %                                                                      %
     % You are using vdW-DF, which was implemented by the Thonhauser group. %
     % Please cite the following two papers that made this development      %
     % possible and the two reviews that describe the various versions:     %
     %                                                                      %
     %   T. Thonhauser et al., PRL 115, 136402 (2015).                      %
     %   T. Thonhauser et al., PRB 76, 125112 (2007).                       %
     %   K. Berland et al., Rep. Prog. Phys. 78, 066501 (2015).             %
     %   D.C. Langreth et al., J. Phys.: Condens. Matter 21, 084203 (2009). %
     %                                                                      %
     % If you are calculating stress with vdW-DF, please also cite:         %
     %                                                                      %
     %   R. Sabatini et al., J. Phys.: Condens. Matter 24, 424209 (2012).   %
     %                                                                      %
     %%%%%%%%%%%%%%%%%%%%%%%%%%%%%%%%%%%%%%%%%%%%%%%%%%%%%%%%%%%%%%%%%%%%%%%%

     %%%%%%%%%%%%%%%%%%%%%%%%%%%%%%%%%%%%%%%%%%%%%%%%%%%%%%%%%%%%%%%%%%%%%%%%
     %                                                                      %
     %  vdW-DF NEWS:                                                        %
     %                                                                      %
     %  * vdW-DF3 is now available. DOI: 10.1021/acs.jctc.0c00471           %
     %    use with input_dft = 'vdW-DF3-opt1' or 'vdW-DF3-opt2'             %
     %                                                                      %
     %  * Unscreened and range-separated vdW-DF hybrid functionals          %
     %    DOI: 10.1063/1.4986522 and 10.1088/1361-648X/ac2ad2               %
     %    use with input_dft = 'vdW-DF-cx0' (etc) and 'vdW-DF-ahcx'         %
     %                                                                      %
     %%%%%%%%%%%%%%%%%%%%%%%%%%%%%%%%%%%%%%%%%%%%%%%%%%%%%%%%%%%%%%%%%%%%%%%%


     Carrying out vdW-DF run using the following parameters:
     Nqs    =  20  Npoints =  1024  r_max =  100.000
     q_mesh =  0.00001000  0.04494208  0.09755937  0.15916263
               0.23128650  0.31572767  0.41458969  0.53033537
               0.66584808  0.82450364  1.01025438  1.22772762
               1.48234092  1.78043706  2.12944203  2.53805004
               3.01644009  3.57652955  4.23227104  5.00000000


     -----------------------------------------------
     Non-local corr. energy    =       7.38316210 Ry
     -----------------------------------------------

     Starting wfcs from file
     Checking if some PAW data can be deallocated... 

     total cpu time spent up to now is        5.6 secs

     Self-consistent Calculation

     iteration #  1     ecut=    70.00 Ry     beta= 0.70
     Davidson diagonalization with overlap

---- Real-time Memory Report at c_bands before calling an iterative solver
           227 MiB given to the printing process from OS
             0 MiB allocation reported by mallinfo(arena+hblkhd)
       1949295 MiB available memory on the node where the printing process lives
------------------
     ethr =  1.00E-05,  avg # of iterations =  1.0

     Threshold (ethr) on eigenvalues was too large:
     Diagonalizing with lowered threshold

     Davidson diagonalization with overlap

---- Real-time Memory Report at c_bands before calling an iterative solver
           441 MiB given to the printing process from OS
             0 MiB allocation reported by mallinfo(arena+hblkhd)
       1945618 MiB available memory on the node where the printing process lives
------------------
     c_bands:  4 eigenvalues not converged
     ethr =  1.54E-12,  avg # of iterations = 23.0


     -----------------------------------------------
     Non-local corr. energy    =       7.38315585 Ry
     -----------------------------------------------


     total cpu time spent up to now is      114.2 secs

     End of self-consistent calculation

          k = 0.0000 0.0000 0.0000 ( 82057 PWs)   bands (ev):

    -8.4626  -7.4479  -7.4478  -7.4478  -7.4478  -7.4478  -7.4478  -6.4483
    -6.4482  -6.4482  -6.4482  -6.4482  -6.4482  -6.4482  -6.4481  -6.4481
    -6.4481  -6.4481  -6.4481  -5.4727  -5.4727  -5.4727  -5.4727  -5.4727
    -5.4727  -5.4727  -5.4727  -4.4713  -4.4713  -4.4713  -4.4713  -4.4713
    -4.4713  -3.5495  -3.5495  -3.5495  -3.5495  -3.5495  -3.5495  -3.5494
    -3.5494  -3.5494  -3.5494  -3.5494  -3.5494  -3.5494  -3.5494  -3.5494
    -3.5493  -3.5493  -3.5493  -3.5493  -3.5493  -3.5493  -3.5493  -3.5493
    -3.5493  -2.7843  -2.7842  -2.7842  -2.7842  -2.7842  -2.7842  -2.7842
    -2.7842  -2.7840  -2.7840  -2.7840  -2.7840  -2.7840  -2.7840  -2.7840
    -2.7840  -2.7839  -2.7839  -2.7839  -2.7838  -2.7838  -2.7838  -2.7838
    -2.7838  -1.1380  -1.1379  -1.1379  -1.1379  -1.1379  -1.1379  -1.1379
    -1.1379  -1.1379  -1.1378  -1.1378  -1.1378   0.1810   0.1813   0.1813
     0.1813   0.1814   0.1814   0.6940   0.6940   0.6940   0.6940   0.6940
     0.6940   0.6941   0.6941   0.6941   0.6941   0.6941   0.6941   0.6942
     0.6942   0.6942   0.6942   0.6942   0.6942   0.6943   0.6943   0.6944
     0.6944   0.6944   0.6944   1.0297   1.0297   1.0297   1.0298   1.0298
     1.0298   1.0298   1.0298   1.0298   1.0299   1.0299   1.0299   1.0299
     1.0299   1.0299   1.0299   1.0299   1.0300   1.0300   1.0300   1.0300
     1.0300   1.0300   1.0302   2.0096   2.0096   2.0096   2.0096   2.0096
     2.0096   2.0096   2.0096   2.0096   2.0097   2.0097   2.0097   3.6390
     3.6390   3.6390   3.6390   3.6391   3.6391   3.6391   3.6391   3.7315
     3.7315   3.7315   3.7315   3.7315   3.7315   3.7315   3.7315   3.7315
     3.7315   3.7315   3.7316   4.2356   4.2356   4.2356   4.2356   4.2356
     4.2356   4.2356   4.2356   4.2356   4.2356   4.2356   4.2356   4.2357
     4.2357   4.2357   4.2357   4.2357   4.2357   4.2357   4.2357   4.2357
     4.2357   4.2357   4.2357   5.2662   5.2662   5.2662   5.2663   5.2663
     5.2663   5.2663   5.2663   5.2663   5.2663   5.2663   5.2663   5.2666
     5.2666   5.2666   5.2667   5.2667   5.2667   5.2667   5.2667   5.2667
     5.2667   5.2667   5.2667   5.7269   5.7269   5.7269   5.7269   5.7269
     5.7269   5.7372   5.7372   5.7372   5.7373   5.7373   5.7373   5.7373
     5.7373   5.7373   5.7373   5.7373   5.7373   5.7374   5.7374   5.7374
     5.7374   5.7374   5.7374   5.7374   5.7374   5.7374   5.7375   5.7375
     5.7375   6.7168   6.7168   6.7168   6.7170   6.7170   6.7170   7.2581
     7.2581   7.2581   7.2581   7.2581   7.2582   7.2582   7.2582   7.2583
     7.2583   7.2583   7.2583   7.6984   7.6984   7.6984   7.6984   7.6984
     7.6984   7.6984   7.6984   7.6984   7.6984   7.6984   7.6984   7.9907
     7.9907   7.9907   7.9910   7.9910   7.9910   7.9910   7.9911   7.9911
     7.9911   7.9911   7.9911   7.9911   7.9914   7.9914   7.9914   7.9914
     7.9914   7.9914   7.9914   7.9914   7.9915   7.9915   7.9915   8.2083
     8.2083   8.2083   8.2084   8.2084   8.2084   8.2084   8.2084   8.2084
     8.2084   8.2084   8.2084   8.2088   8.2088   8.2088   8.2088   8.2088
     8.2088   8.2088   8.2088   8.2088   8.2089   8.2089   8.2089   8.2117
     8.2117   8.2117   8.2117   8.2117   8.2117   8.2117   8.2117   8.2118
     8.2118   8.2118   8.2118   8.3124   8.3124   8.3124   8.3124   8.3124
     8.3124   8.3124   8.3126   8.3126   8.3126   8.3126   8.3126   9.0236
     9.0236   9.0236   9.0237   9.0237   9.0237   9.0237   9.0237   9.0238
     9.0238   9.0238   9.0238   9.0239   9.0239   9.0239   9.0239   9.0239
     9.0240   9.0240   9.0240   9.0240   9.0240   9.0240   9.0241  10.4172
    10.4172  10.4172  10.4172  10.4172  10.4172  10.4172  10.4172  10.4172
    10.4172  10.4172  10.4172  10.6513  10.6513  10.6513  10.6513  10.6513
    10.6513  10.6513  10.6513  10.6513  10.6513  10.6513  10.6513  10.6513
    10.6514  10.6514  10.6514  10.6792  10.6792  10.6793  10.6793  10.6793
    10.6796  11.5853  11.5853  11.5853  11.5853  11.5853  11.5853  11.5853
    11.5853  11.5853  11.5854  11.5854  11.5854  12.9567  12.9567  12.9567
    17.2699  17.2699  17.2699  17.2699  17.2699  17.2699  17.9331  17.9331
    17.9335  17.9335  17.9335  17.9341  17.9906  17.9906  17.9907  17.9907
    17.9907  17.9910  18.6201  18.6201  18.6201  19.5014  19.5014  19.5014
    19.5014  19.5014  19.5014  19.5014  19.5014  19.5014  19.5014  19.5014
    19.5014  20.2091  20.2091  20.2091  20.2091  20.2091  20.2092  20.2092
    20.2093  20.2093  20.2093  20.2093  20.2093  20.2093  20.2093  20.2093
    20.2093  20.2096  20.2096  20.2096  20.2097  20.2097  20.2097  20.2098
    20.2098  20.6510  20.6510  20.6510  20.6510  20.6510  20.6510  20.6510
    20.6510  20.6510  20.6510  20.6511  20.6511  20.7732  20.7732  20.7732
    20.7732  20.7732  20.7733  20.7734  20.7734  20.7734  20.7734  20.7734
    20.7734  20.7735  20.7735  20.7735  20.7735  20.7735

     occupation numbers 
     1.0000   1.0000   1.0000   1.0000   1.0000   1.0000   1.0000   1.0000
     1.0000   1.0000   1.0000   1.0000   1.0000   1.0000   1.0000   1.0000
     1.0000   1.0000   1.0000   1.0000   1.0000   1.0000   1.0000   1.0000
     1.0000   1.0000   1.0000   1.0000   1.0000   1.0000   1.0000   1.0000
     1.0000   1.0000   1.0000   1.0000   1.0000   1.0000   1.0000   1.0000
     1.0000   1.0000   1.0000   1.0000   1.0000   1.0000   1.0000   1.0000
     1.0000   1.0000   1.0000   1.0000   1.0000   1.0000   1.0000   1.0000
     1.0000   1.0000   1.0000   1.0000   1.0000   1.0000   1.0000   1.0000
     1.0000   1.0000   1.0000   1.0000   1.0000   1.0000   1.0000   1.0000
     1.0000   1.0000   1.0000   1.0000   1.0000   1.0000   1.0000   1.0000
     1.0000   1.0000   1.0000   1.0000   1.0000   1.0000   1.0000   1.0000
     1.0000   1.0000   1.0000   1.0000   1.0000   1.0000   1.0000   1.0000
     1.0000   1.0000   1.0000   1.0000   1.0000   1.0000   1.0000   1.0000
     1.0000   1.0000   1.0000   1.0000   1.0000   1.0000   1.0000   1.0000
     1.0000   1.0000   1.0000   1.0000   1.0000   1.0000   1.0000   1.0000
     1.0000   1.0000   1.0000   1.0000   1.0000   1.0000   1.0000   1.0000
     1.0000   1.0000   1.0000   1.0000   1.0000   1.0000   1.0000   1.0000
     1.0000   1.0000   1.0000   1.0000   1.0000   1.0000   1.0000   1.0000
     1.0000   1.0000   1.0000   1.0000   1.0000   1.0000   1.0000   1.0000
     1.0000   1.0000   1.0000   1.0000   1.0000   1.0000   1.0000   1.0000
     1.0000   1.0000   1.0000   1.0000   1.0000   1.0000   1.0000   1.0000
     1.0000   1.0000   1.0000   1.0000   1.0000   1.0000   1.0000   1.0000
     1.0000   1.0000   1.0000   1.0000   1.0000   1.0000   1.0000   1.0000
     1.0000   1.0000   1.0000   1.0000   1.0000   1.0000   1.0000   1.0000
     1.0000   1.0000   1.0000   1.0000   1.0000   1.0000   1.0000   1.0000
     1.0000   1.0000   1.0000   1.0000   1.0000   1.0000   1.0000   1.0000
     1.0000   1.0000   1.0000   1.0000   1.0000   1.0000   1.0000   1.0000
     1.0000   1.0000   1.0000   1.0000   1.0000   1.0000   1.0000   1.0000
     1.0000   1.0000   1.0000   1.0000   1.0000   1.0000   1.0000   1.0000
     1.0000   1.0000   1.0000   1.0000   1.0000   1.0000   1.0000   1.0000
     1.0000   1.0000   1.0000   1.0000   1.0000   1.0000   1.0000   1.0000
     1.0000   1.0000   1.0000   1.0000   1.0000   1.0000   1.0000   1.0000
     1.0000   1.0000   1.0000   1.0000   1.0000   1.0000   1.0000   1.0000
     1.0000   1.0000   1.0000   1.0000   1.0000   1.0000   1.0000   1.0000
     1.0000   1.0000   1.0000   1.0000   1.0000   1.0000   1.0000   1.0000
     1.0000   1.0000   1.0000   1.0000   1.0000   1.0000   1.0000   1.0000
     1.0000   1.0000   1.0000   1.0000   1.0000   1.0000   1.0000   1.0000
     1.0000   1.0000   1.0000   1.0000   1.0000   1.0000   1.0000   1.0000
     1.0000   1.0000   1.0000   1.0000   1.0000   1.0000   1.0000   1.0000
     1.0000   1.0000   1.0000   1.0000   1.0000   1.0000   1.0000   1.0000
     1.0000   1.0000   1.0000   1.0000   1.0000   1.0000   1.0000   1.0000
     1.0000   1.0000   1.0000   1.0000   1.0000   1.0000   1.0000   1.0000
     1.0000   1.0000   1.0000   1.0000   1.0000   1.0000   1.0000   1.0000
     1.0000   1.0000   1.0000   1.0000   1.0000   1.0000   1.0000   1.0000
     1.0000   1.0000   1.0000   1.0000   1.0000   1.0000   1.0000   1.0000
     1.0000   1.0000   1.0000   1.0000   1.0000   1.0000   1.0000   1.0000
     1.0000   1.0000   1.0000   1.0000   1.0000   1.0000   1.0000   1.0000
     1.0000   1.0000   1.0000   1.0000   1.0000   1.0000   1.0000   1.0000
     1.0000   1.0000   1.0000   1.0000   1.0000   1.0000   1.0000   1.0000
     1.0000   1.0000   1.0000   1.0000   1.0000   1.0000   1.0000   1.0000
     1.0000   1.0000   1.0000   1.0000   1.0000   1.0000   1.0000   1.0000
     1.0000   1.0000   1.0000   1.0000   1.0000   1.0000   1.0000   1.0000
     1.0000   1.0000   1.0000   1.0000   1.0000   1.0000   1.0000   1.0000
     1.0000   1.0000   1.0000   1.0000   1.0000   1.0000   1.0000   1.0000
     0.0000   0.0000   0.0000   0.0000   0.0000   0.0000   0.0000   0.0000
     0.0000   0.0000   0.0000   0.0000   0.0000   0.0000   0.0000   0.0000
     0.0000   0.0000   0.0000   0.0000   0.0000   0.0000   0.0000   0.0000
     0.0000   0.0000   0.0000   0.0000   0.0000   0.0000   0.0000   0.0000
     0.0000   0.0000   0.0000   0.0000   0.0000   0.0000   0.0000   0.0000
     0.0000   0.0000   0.0000   0.0000   0.0000   0.0000   0.0000   0.0000
     0.0000   0.0000   0.0000   0.0000   0.0000   0.0000   0.0000   0.0000
     0.0000   0.0000   0.0000   0.0000   0.0000   0.0000   0.0000   0.0000
     0.0000   0.0000   0.0000   0.0000   0.0000   0.0000   0.0000   0.0000
     0.0000   0.0000   0.0000   0.0000   0.0000   0.0000   0.0000   0.0000
     0.0000   0.0000   0.0000   0.0000   0.0000   0.0000

          k = 0.0000 0.0000-0.5000 ( 81982 PWs)   bands (ev):

    -8.2080  -8.2079  -7.1967  -7.1967  -7.1967  -7.1966  -7.1966  -7.1965
    -7.1965  -7.1965  -6.2022  -6.2022  -6.2022  -6.2021  -6.2021  -6.2021
    -6.2021  -6.2021  -6.1944  -6.1940  -5.2201  -5.2200  -5.2200  -5.2200
    -5.2197  -5.2197  -5.2197  -5.2197  -4.2949  -4.2949  -4.2949  -4.2949
    -4.2946  -4.2946  -4.2946  -4.2946  -4.2373  -4.2373  -4.2373  -4.2373
    -4.2373  -4.2372  -4.2372  -4.2372  -3.3406  -3.3406  -3.3406  -3.3406
    -3.3406  -3.3406  -3.3405  -3.3405  -3.3405  -3.3405  -3.3405  -3.3405
    -3.3404  -3.3404  -3.3404  -3.3403  -2.4636  -2.4636  -2.4636  -2.4636
    -2.4633  -2.4633  -2.4633  -2.4632  -2.3463  -2.3463  -2.3463  -2.3463
    -2.3461  -2.3461  -2.3460  -2.3460  -2.3220  -2.3219  -1.5168  -1.5168
    -1.5168  -1.5168  -1.5168  -1.5168  -1.5168  -1.5167  -1.4598  -1.4598
    -1.4598  -1.4598  -1.4598  -1.4598  -1.4598  -1.4597   0.0259   0.0259
     0.0259   0.0259   0.0259   0.0259   0.0259   0.0259   0.1760   0.1760
     0.1760   0.1760   0.1762   0.1762   0.1762   0.1762   0.3324   0.3324
     0.3325   0.3325   0.3326   0.3326   0.3327   0.3327   0.9210   0.9212
     0.9212   0.9214   0.9780   0.9780   0.9780   0.9780   0.9780   0.9781
     0.9781   0.9781   1.2439   1.2439   1.2439   1.2439   1.2440   1.2440
     1.2440   1.2440   2.0710   2.0710   2.0710   2.0710   2.0713   2.0713
     2.0714   2.0714   2.6942   2.6942   2.6942   2.6942   2.6945   2.6945
     2.6945   2.6945   2.7652   2.7652   2.7652   2.7652   2.7652   2.7652
     2.7652   2.7652   2.7653   2.7653   2.7653   2.7653   2.7653   2.7653
     2.7654   2.7654   2.9210   2.9215   3.0448   3.0448   3.0448   3.0448
     3.0448   3.0448   3.0448   3.0448   3.9188   3.9188   3.9188   3.9188
     3.9190   3.9190   3.9190   3.9190   4.4853   4.4853   4.4853   4.4854
     4.4854   4.4855   4.4855   4.4855   4.7803   4.7803   4.7803   4.7803
     5.1764   5.1765   5.1765   5.1765   5.1765   5.1765   5.1765   5.1766
     5.2856   5.2856   5.2856   5.2856   5.2856   5.2856   5.2856   5.2856
     5.5259   5.5259   5.5259   5.5259   5.5264   5.5264   5.5264   5.5264
     5.5586   5.5586   5.5586   5.5586   5.5588   5.5588   5.5588   5.5588
     5.6738   5.6738   5.6738   5.6738   5.6739   5.6739   5.6739   5.6739
     6.2194   6.2194   6.2194   6.2195   6.2197   6.2198   6.2198   6.2199
     6.2759   6.2759   6.2759   6.2760   6.2761   6.2761   6.2761   6.2763
     6.7970   6.7971   6.7971   6.7971   6.7972   6.7972   6.7972   6.7972
     6.9649   6.9649   6.9650   6.9650   7.0088   7.0088   7.0088   7.0088
     7.0089   7.0089   7.0089   7.0089   7.0091   7.0091   7.0091   7.0091
     7.0092   7.0092   7.0092   7.0092   7.0562   7.0562   7.0562   7.0562
     7.0567   7.0567   7.0567   7.0567   7.0584   7.0584   7.0584   7.0584
     7.0584   7.0584   7.0584   7.0584   7.8399   7.8399   7.8399   7.8399
     7.8399   7.8399   7.8399   7.8399   8.2713   8.2713   8.2714   8.2714
     8.2717   8.2717   8.2719   8.2719   8.3875   8.3876   8.4273   8.4273
     8.4275   8.4275   8.4276   8.4276   8.4276   8.4276   8.4276   8.4276
     8.4278   8.4278   8.4279   8.4279   8.4280   8.4280   8.4973   8.4973
     8.4973   8.4973   8.4974   8.4974   8.4974   8.4974   8.5508   8.5509
     8.5509   8.5509   8.5511   8.5511   8.5511   8.5511   8.8791   8.8791
     8.8796   8.8796   8.9538   8.9538   8.9539   8.9539   8.9540   8.9540
     8.9540   8.9540   9.3157   9.3157   9.3157   9.3157   9.3157   9.3157
     9.3158   9.3158   9.6791   9.6791   9.6791   9.6791   9.6791   9.6792
     9.6792   9.6792   9.7070   9.7070   9.7070   9.7070   9.7075   9.7075
     9.7075   9.7075   9.7996   9.7996   9.7996   9.7996   9.8001   9.8001
     9.8001   9.8001   9.9685   9.9685   9.9685   9.9686   9.9686   9.9687
     9.9687   9.9687  10.2759  10.2759  10.2759  10.2759  10.2761  10.2761
    10.2761  10.2761  11.3270  11.3270  11.3270  11.3270  11.3272  11.3272
    11.3272  11.3272  11.6121  11.6121  11.6121  11.6122  11.6122  11.6122
    11.6122  11.6123  12.0608  12.0608  12.0610  12.0610  12.3293  12.3293
    17.3623  17.3627  17.5314  17.5316  18.3085  18.3085  18.3085  18.3085
    18.3086  18.3086  18.3086  18.3086  18.4334  18.4335  18.9234  18.9235
    18.9237  18.9237  18.9238  18.9238  18.9240  18.9241  18.9711  18.9712
    18.9712  18.9712  18.9712  18.9712  18.9713  18.9714  19.0969  19.0971
    19.6848  19.6848  19.6848  19.6848  19.6848  19.6848  19.6848  19.6848
    19.6939  19.6939  19.6939  19.6939  19.6943  19.6943  19.6943  19.6943
    19.7383  19.7383  19.7384  19.7384  20.2014  20.2014  20.2015  20.2015
    20.2016  20.2016  20.2016  20.2016  20.2017  20.2017  20.2018  20.2018
    20.2018  20.2018  20.2019  20.2019  20.7931  20.7931  20.7931  20.7931
    20.7932  20.7932  20.7932  20.7932  20.8434  20.8434  20.8435  20.8435
    20.8437  20.8437  20.8438  20.8438  20.8732  20.8732

     occupation numbers 
     1.0000   1.0000   1.0000   1.0000   1.0000   1.0000   1.0000   1.0000
     1.0000   1.0000   1.0000   1.0000   1.0000   1.0000   1.0000   1.0000
     1.0000   1.0000   1.0000   1.0000   1.0000   1.0000   1.0000   1.0000
     1.0000   1.0000   1.0000   1.0000   1.0000   1.0000   1.0000   1.0000
     1.0000   1.0000   1.0000   1.0000   1.0000   1.0000   1.0000   1.0000
     1.0000   1.0000   1.0000   1.0000   1.0000   1.0000   1.0000   1.0000
     1.0000   1.0000   1.0000   1.0000   1.0000   1.0000   1.0000   1.0000
     1.0000   1.0000   1.0000   1.0000   1.0000   1.0000   1.0000   1.0000
     1.0000   1.0000   1.0000   1.0000   1.0000   1.0000   1.0000   1.0000
     1.0000   1.0000   1.0000   1.0000   1.0000   1.0000   1.0000   1.0000
     1.0000   1.0000   1.0000   1.0000   1.0000   1.0000   1.0000   1.0000
     1.0000   1.0000   1.0000   1.0000   1.0000   1.0000   1.0000   1.0000
     1.0000   1.0000   1.0000   1.0000   1.0000   1.0000   1.0000   1.0000
     1.0000   1.0000   1.0000   1.0000   1.0000   1.0000   1.0000   1.0000
     1.0000   1.0000   1.0000   1.0000   1.0000   1.0000   1.0000   1.0000
     1.0000   1.0000   1.0000   1.0000   1.0000   1.0000   1.0000   1.0000
     1.0000   1.0000   1.0000   1.0000   1.0000   1.0000   1.0000   1.0000
     1.0000   1.0000   1.0000   1.0000   1.0000   1.0000   1.0000   1.0000
     1.0000   1.0000   1.0000   1.0000   1.0000   1.0000   1.0000   1.0000
     1.0000   1.0000   1.0000   1.0000   1.0000   1.0000   1.0000   1.0000
     1.0000   1.0000   1.0000   1.0000   1.0000   1.0000   1.0000   1.0000
     1.0000   1.0000   1.0000   1.0000   1.0000   1.0000   1.0000   1.0000
     1.0000   1.0000   1.0000   1.0000   1.0000   1.0000   1.0000   1.0000
     1.0000   1.0000   1.0000   1.0000   1.0000   1.0000   1.0000   1.0000
     1.0000   1.0000   1.0000   1.0000   1.0000   1.0000   1.0000   1.0000
     1.0000   1.0000   1.0000   1.0000   1.0000   1.0000   1.0000   1.0000
     1.0000   1.0000   1.0000   1.0000   1.0000   1.0000   1.0000   1.0000
     1.0000   1.0000   1.0000   1.0000   1.0000   1.0000   1.0000   1.0000
     1.0000   1.0000   1.0000   1.0000   1.0000   1.0000   1.0000   1.0000
     1.0000   1.0000   1.0000   1.0000   1.0000   1.0000   1.0000   1.0000
     1.0000   1.0000   1.0000   1.0000   1.0000   1.0000   1.0000   1.0000
     1.0000   1.0000   1.0000   1.0000   1.0000   1.0000   1.0000   1.0000
     1.0000   1.0000   1.0000   1.0000   1.0000   1.0000   1.0000   1.0000
     1.0000   1.0000   1.0000   1.0000   1.0000   1.0000   1.0000   1.0000
     1.0000   1.0000   1.0000   1.0000   1.0000   1.0000   1.0000   1.0000
     1.0000   1.0000   1.0000   1.0000   1.0000   1.0000   1.0000   1.0000
     1.0000   1.0000   1.0000   1.0000   1.0000   1.0000   1.0000   1.0000
     1.0000   1.0000   1.0000   1.0000   1.0000   1.0000   1.0000   1.0000
     1.0000   1.0000   1.0000   1.0000   1.0000   1.0000   1.0000   1.0000
     1.0000   1.0000   1.0000   1.0000   1.0000   1.0000   1.0000   1.0000
     1.0000   1.0000   1.0000   1.0000   1.0000   1.0000   1.0000   1.0000
     1.0000   1.0000   1.0000   1.0000   1.0000   1.0000   1.0000   1.0000
     1.0000   1.0000   1.0000   1.0000   1.0000   1.0000   1.0000   1.0000
     1.0000   1.0000   1.0000   1.0000   1.0000   1.0000   1.0000   1.0000
     1.0000   1.0000   1.0000   1.0000   1.0000   1.0000   1.0000   1.0000
     1.0000   1.0000   1.0000   1.0000   1.0000   1.0000   1.0000   1.0000
     1.0000   1.0000   1.0000   1.0000   1.0000   1.0000   1.0000   1.0000
     1.0000   1.0000   1.0000   1.0000   1.0000   1.0000   1.0000   1.0000
     1.0000   1.0000   1.0000   1.0000   1.0000   1.0000   1.0000   1.0000
     1.0000   1.0000   1.0000   1.0000   1.0000   1.0000   1.0000   1.0000
     1.0000   1.0000   1.0000   1.0000   1.0000   1.0000   1.0000   1.0000
     1.0000   1.0000   1.0000   1.0000   1.0000   1.0000   1.0000   1.0000
     1.0000   1.0000   1.0000   1.0000   1.0000   1.0000   1.0000   1.0000
     1.0000   1.0000   1.0000   1.0000   1.0000   1.0000   1.0000   1.0000
     0.0000   0.0000   0.0000   0.0000   0.0000   0.0000   0.0000   0.0000
     0.0000   0.0000   0.0000   0.0000   0.0000   0.0000   0.0000   0.0000
     0.0000   0.0000   0.0000   0.0000   0.0000   0.0000   0.0000   0.0000
     0.0000   0.0000   0.0000   0.0000   0.0000   0.0000   0.0000   0.0000
     0.0000   0.0000   0.0000   0.0000   0.0000   0.0000   0.0000   0.0000
     0.0000   0.0000   0.0000   0.0000   0.0000   0.0000   0.0000   0.0000
     0.0000   0.0000   0.0000   0.0000   0.0000   0.0000   0.0000   0.0000
     0.0000   0.0000   0.0000   0.0000   0.0000   0.0000   0.0000   0.0000
     0.0000   0.0000   0.0000   0.0000   0.0000   0.0000   0.0000   0.0000
     0.0000   0.0000   0.0000   0.0000   0.0000   0.0000   0.0000   0.0000
     0.0000   0.0000   0.0000   0.0000   0.0000   0.0000

          k = 0.0000-0.5000-0.5000 ( 82212 PWs)   bands (ev):

    -7.9542  -7.9541  -7.9541  -7.9541  -6.9466  -6.9466  -6.9465  -6.9465
    -6.9465  -6.9465  -6.9465  -6.9465  -5.9489  -5.9489  -5.9488  -5.9488
    -5.9485  -5.9485  -5.9485  -5.9485  -4.9840  -4.9840  -4.9840  -4.9840
    -4.9839  -4.9839  -4.9839  -4.9839  -4.9836  -4.9836  -4.9836  -4.9836
    -4.9836  -4.9836  -4.9836  -4.9835  -4.0359  -4.0354  -4.0354  -4.0352
    -4.0078  -4.0078  -4.0077  -4.0077  -4.0077  -4.0077  -4.0077  -4.0077
    -3.2525  -3.2525  -3.2520  -3.2520  -3.2520  -3.2520  -3.2519  -3.2518
    -2.3399  -2.3398  -2.3398  -2.3398  -2.3398  -2.3398  -2.3398  -2.3398
    -2.3395  -2.3395  -2.3395  -2.3395  -2.3395  -2.3395  -2.3395  -2.3394
    -2.1125  -2.1125  -2.1125  -2.1124  -2.1124  -2.1123  -2.1123  -2.1123
    -1.4090  -1.4090  -1.4090  -1.4090  -1.4089  -1.4089  -1.4089  -1.4089
    -1.4088  -1.4088  -1.4088  -1.4088  -1.4087  -1.4087  -1.4087  -1.4087
    -0.6766  -0.6765  -0.6765  -0.6765  -0.6763  -0.6762  -0.6762  -0.6762
     0.2441   0.2441   0.2441   0.2442   0.6212   0.6213   0.6214   0.6214
     0.6215   0.6215   0.6218   0.6219   0.6410   0.6410   0.6410   0.6410
     1.4519   1.4519   1.4519   1.4520   1.4520   1.4520   1.4521   1.4521
     1.4522   1.4522   1.4522   1.4522   1.4523   1.4523   1.4523   1.4524
     1.8995   1.8995   1.8995   1.8995   1.8996   1.8996   1.8996   1.8996
     1.8997   1.8997   1.8997   1.8997   1.8997   1.8998   1.8998   1.8998
     2.0357   2.0357   2.0358   2.0358   2.0358   2.0358   2.0359   2.0359
     2.9147   2.9148   2.9148   2.9149   2.9153   2.9153   2.9153   2.9154
     3.9779   3.9779   3.9780   3.9780   3.9781   3.9781   3.9781   3.9781
     3.9783   3.9783   3.9783   3.9783   3.9784   3.9785   3.9785   3.9785
     4.1453   4.1453   4.1453   4.1454   4.1454   4.1454   4.1455   4.1455
     4.2486   4.2487   4.2487   4.2487   4.3262   4.3262   4.3262   4.3262
     4.3262   4.3262   4.3264   4.3264   4.8227   4.8230   4.8230   4.8234
     5.0885   5.0886   5.0886   5.0887   5.0888   5.0888   5.0888   5.0889
     5.0889   5.0890   5.0890   5.0890   5.0891   5.0891   5.0891   5.0892
     5.4474   5.4474   5.4475   5.4477   6.2815   6.2815   6.2817   6.2817
     6.2819   6.2819   6.2819   6.2819   6.2821   6.2821   6.2821   6.2821
     6.2824   6.2824   6.2825   6.2825   6.3796   6.3796   6.3796   6.3796
     6.3796   6.3797   6.3797   6.3797   6.5051   6.5052   6.5053   6.5053
     6.5056   6.5056   6.5057   6.5057   6.6542   6.6542   6.6542   6.6542
     6.6545   6.6545   6.6545   6.6545   7.1357   7.1362   7.1362   7.1368
     7.1932   7.1932   7.1932   7.1932   7.1932   7.1932   7.1932   7.1932
     7.2504   7.2504   7.2506   7.2506   7.2506   7.2506   7.2507   7.2507
     7.3521   7.3521   7.3522   7.3522   7.3522   7.3522   7.3523   7.3523
     7.3526   7.3526   7.3527   7.3527   7.3527   7.3527   7.3527   7.3528
     7.3971   7.3971   7.3972   7.3972   7.3972   7.3972   7.3976   7.3976
     8.0625   8.0625   8.0630   8.0630   8.0630   8.0630   8.0635   8.0636
     8.1936   8.1936   8.1936   8.1936   8.1937   8.1937   8.1937   8.1938
     8.4167   8.4167   8.4168   8.4168   8.4171   8.4171   8.4171   8.4171
     8.4173   8.4173   8.4173   8.4173   8.4176   8.4176   8.4177   8.4177
     8.7314   8.7314   8.7314   8.7315   8.7315   8.7315   8.7315   8.7315
     8.7316   8.7316   8.7316   8.7316   8.7317   8.7317   8.7317   8.7317
     9.3169   9.3170   9.3172   9.3172   9.3173   9.3173   9.3177   9.3177
     9.7365   9.7365   9.7365   9.7366   9.7367   9.7367   9.7367   9.7368
     9.9667   9.9667   9.9669   9.9674  10.1175  10.1175  10.1176  10.1176
    10.1178  10.1179  10.1181  10.1182  10.1939  10.1940  10.1940  10.1940
    10.1940  10.1940  10.1941  10.1941  10.1942  10.1942  10.1942  10.1942
    10.1943  10.1943  10.1943  10.1943  10.5491  10.5491  10.5496  10.5496
    10.5496  10.5496  10.5501  10.5501  10.7179  10.7179  10.7180  10.7181
    11.2421  11.2421  11.2421  11.2422  11.3492  11.3492  11.3493  11.3493
    11.3494  11.3494  11.3494  11.3495  12.6302  12.6302  12.6302  12.6302
    18.3434  18.3435  18.3435  18.3435  18.3888  18.3890  18.3890  18.3891
    18.3893  18.3894  18.3894  18.3896  18.5579  18.5579  18.5579  18.5580
    18.5581  18.5582  18.5582  18.5582  18.6678  18.6678  18.6680  18.6680
    18.6680  18.6680  18.6680  18.6681  19.1373  19.1373  19.1373  19.1373
    19.5830  19.5830  19.5832  19.5832  19.5832  19.5832  19.5834  19.5834
    19.8254  19.8254  19.8255  19.8255  19.8255  19.8255  19.8257  19.8257
    19.8258  19.8259  19.8260  19.8260  19.8260  19.8260  19.8261  19.8262
    19.9349  19.9349  19.9350  19.9351  20.0219  20.0219  20.0219  20.0220
    20.0223  20.0224  20.0224  20.0224  20.2594  20.2594  20.2594  20.2595
    20.6718  20.6718  20.6719  20.6719  20.6719  20.6719  20.6720  20.6720
    20.6721  20.6721  20.6722  20.6722  20.6722  20.6722

     occupation numbers 
     1.0000   1.0000   1.0000   1.0000   1.0000   1.0000   1.0000   1.0000
     1.0000   1.0000   1.0000   1.0000   1.0000   1.0000   1.0000   1.0000
     1.0000   1.0000   1.0000   1.0000   1.0000   1.0000   1.0000   1.0000
     1.0000   1.0000   1.0000   1.0000   1.0000   1.0000   1.0000   1.0000
     1.0000   1.0000   1.0000   1.0000   1.0000   1.0000   1.0000   1.0000
[...]
              0.391533320929464E+02
              0.849593992308170E+01
              0.121205010141039E+03
              0.155738452352110E+02
             -0.209709476545560E+02
              0.225559814794357E+02
             -0.200953210548973E+02
              0.923102404687726E+02
              0.573820597654478E+01
              0.145748656116791E+02
              0.667473910496509E+02
              0.218867646621336E+02
             -0.417687028249264E+02
             -0.782358192656669E+02
              0.439432743754537E+00
             -0.917842612958425E+02
              0.313015124007745E+02
             -0.103033533925153E+02
             -0.315753209197105E+02
              0.288917490045619E+02
              0.139533558907765E+02
              0.329643294214603E+02
             -0.916155891686344E+00
              0.485826881202311E+02
             -0.886649940178409E+02
             -0.416888618202461E+01
             -0.804968447987793E+02
              0.258309114939999E+02
              0.393360551827789E+02
             -0.752301463015004E+01
             -0.234089553784753E+02
              0.686743538165138E+02
             -0.309793176377747E+02
              0.216193267220185E+02
             -0.144779835968106E+02
              0.540532965531051E+02
              0.448949895480150E+02
             -0.204022247446833E+02
              0.463346486163806E+02
              0.173453519662959E+02
             -0.475604685738951E+02
             -0.236815561615878E+02
              0.727370722422863E+02
              0.344746016618987E+02
              0.205786661369842E+00
             -0.950272373941073E+01
              0.115259910293449E+03
              0.660589276669392E+02
              0.213338571960730E+02
             -0.820257771709842E+02
              0.113966664239114E+03
             -0.599953376970753E+02
             -0.704525646313711E+02
             -0.957534793389832E+02
              0.475702295288499E+02
             -0.846126493484612E+02
              0.378721737495851E+02
              0.739182113011042E+02
              0.469288829906333E+02
              0.231276136488782E+02
              0.297933067035704E+02
             -0.753088492718751E+02
             -0.250355177371562E+02
             -0.212077409413457E+02
              0.405527777404221E+02
              0.686952098735772E+02
              0.799778715144812E+02
              0.668463277915941E+02
             -0.163555388906321E+02
              0.161886639221647E+02
             -0.641473658827016E+01
             -0.244707817595271E+02
              0.265209593589325E+02
              0.277284246813001E+02
             -0.388797977992033E+02
             -0.522103244718099E+02
             -0.183784223380267E+02
              0.662652615310491E+02
              0.329638606276126E+02
             -0.429940426332311E+02
             -0.570285192950328E+02
             -0.744143652904530E+02
             -0.330946952587468E+01
              0.159751161591976E+02
             -0.313769706443226E+02
              0.112288491720560E+03
              0.965594758122990E+01
             -0.134146660303210E+03
              0.300235304622020E+02
              0.653758752376289E+02
             -0.282803267724607E+02
              0.617532048041673E+01
             -0.430057994912481E+02
              0.528045898658540E+02
              0.200384098933151E+02
             -0.676391175926302E+02
              0.826868552977843E+02
             -0.740062853053587E+01
             -0.449190263042920E+02
             -0.430092449677499E+02
              0.155959888991620E+03
              0.754649632344648E+02
             -0.166507100058944E+02
              0.446353215622693E+02
             -0.588791185497986E+02
             -0.907838961954042E+01
             -0.703942909951659E+02
              0.303353206561310E+02
              0.403375961296800E+02
              0.547156667965592E+02
             -0.234198036540243E+02
              0.697654017499849E+01
              0.606515204597519E+02
              0.301355487906053E+02
              0.394686875071316E+02
              0.183949804172785E+02
             -0.149628175675111E+02
             -0.164934675781245E+01
             -0.105714578256774E+02
              0.156341442669103E+02
              0.627034169886059E+01
             -0.497932778499320E+02
              0.926606356308590E+02
              0.392865639601142E+02
             -0.602754879642906E+02
             -0.412796438966649E+02
             -0.675594283383499E+02
             -0.343149304415606E+02
             -0.216617942824388E+02
             -0.530442447435641E+02
             -0.537092901294116E+02
              0.828451357496613E+02
              0.561066888620922E+02
             -0.131592292403388E+02
              0.732223232607940E+02
              0.197401927167077E+02
             -0.127345786630850E+03
              0.655553267777269E+02
              0.193586454196210E+02
              0.598615959681717E+02
              0.154082864436680E+02
              0.161901620028605E+02
              0.139372553534264E+02
              0.364720063579267E+02
             -0.472545293843940E+02
             -0.271771024772700E+02
             -0.413121611143506E+02
             -0.291146544082388E+02
              0.175726842392122E+02
             -0.452950225261220E+02
              0.177191957048253E+02
              0.258006973416672E+02
             -0.308895227817493E+02
             -0.124566853266000E+02
             -0.344388549053500E+01
              0.798346159362227E+02
              0.607810267997820E+01
              0.864658994253174E+02
              0.224045067923872E+02
             -0.986572903128422E+02
             -0.382497756719588E+02
              0.335127067001988E+02
              0.653210322087679E+02
              0.245810747140599E+02
              0.256987045098705E+02
              0.694578537042171E+02
             -0.473877369562725E+02
             -0.735950296495193E+02
              0.863005873661550E+02
             -0.886959591209450E+01
             -0.983115181348854E+02
              0.330257362275526E+02
              0.636812790250322E+02
             -0.100914031474665E+02
             -0.500855152307431E+02
             -0.250100971617906E+01
              0.787514506594266E+01
             -0.301780029962759E+02
              0.163700984754493E+02
             -0.118181334779296E+02
              0.130696286983897E+03
              0.297171348125913E+02
             -0.655242168072630E+02
              0.191139644437878E+02
              0.874450977731346E+02
             -0.488049056639578E+02
             -0.258080794767338E+02
             -0.471998987361619E+02
              0.307782306453504E+02
              0.211069964864923E+02
              0.193563640451225E+02
             -0.811669813884521E+00
              0.932732634015080E+02
             -0.609947200546410E+02
             -0.463164470577459E+02
             -0.442749692564077E+02
              0.459642764617921E+02
              0.886616943576136E+02
             -0.280733336133986E+01
              0.380993224076816E+02
             -0.472644726972615E+02
             -0.456034151550909E+01
             -0.128731672038586E+02
             -0.189596552897357E+02
             -0.234948277673536E+02
             -0.244224419516899E+02
             -0.157851863141536E+02
              0.239376205690072E+02
              0.234239939162521E+02
             -0.663922421127853E+02
              0.464600051501385E+02
             -0.737979149143497E+02
              0.534972154215166E+02
             -0.727723449855930E+02
              0.109348558255592E+03
              0.540138236126758E+02
              0.535676147886573E+02
              0.112356289030600E+02
              0.653140253070899E+01
             -0.137200011986018E+03
              0.267264229792577E+02
              0.770544372966788E+01
              0.293861177516510E+01
             -0.171154160953409E+02
              0.981687327063528E+02
             -0.444580059228604E+02
             -0.355106770578736E+02
             -0.107319928996393E+03
             -0.363934944298289E+02
             -0.427711217124669E+02
             -0.451792568199383E+02
             -0.108643302673282E+02
             -0.193993205674609E+02
             -0.281009996334591E+02
             -0.453420103297162E+02
              0.341334078452423E+02
              0.107419100110586E+03
              0.932193177069516E+02
             -0.311382747136142E+02
             -0.116224926227492E+03
             -0.460311746318451E+02
              0.294175666446384E+02
              0.205060854924735E+02
              0.280829312695288E+02
              0.292349689660742E+02
              0.901876364330548E+01
              0.945840856600851E+02
             -0.248816955371385E+02
              0.562740137046832E+02
              0.182527712451891E+02
             -0.353085991848490E+02
             -0.247117847293113E+02
              0.476666427909277E+02
             -0.203847722386878E+02
             -0.236902596956821E+02
             -0.128291489913587E+02
              0.608126392884831E+02
             -0.758879410614294E+02
             -0.175490677130573E+02
             -0.662513029798856E+02
             -0.143833375173595E+03
              0.685074459682147E+01
             -0.147098125346536E+02
              0.504322880235097E+02
              0.538160193766752E+02
              0.815623910741410E+02
             -0.497445404406499E+02
              0.846716272027950E+02
              0.198643142107319E+02
             -0.160635490417726E+02
              0.176578195301373E+02
             -0.335934538417244E+02
             -0.217727894942586E+02
              0.413945441893186E+02
             -0.462637296392034E+02
              0.106437095583355E+03
             -0.262324983987448E+02
             -0.581009475920612E+02
              0.105099386297256E+03
             -0.614239291194849E+02
             -0.145125221831491E+02
              0.108633874568098E+02
              0.304911725740828E+02
             -0.489894672590299E+02
             -0.379444533034964E+02
              0.496313649425664E+02
             -0.948831948878499E+02
              0.627101113640549E+02
              0.112669782108703E+02
              0.495344909176503E+02
              0.683943716502409E+02
              0.909953351795360E+01
             -0.804362394828016E+02
             -0.403576909223719E+02
             -0.683684426205847E+02
             -0.404327888655378E+02
             -0.260887744452249E+02
              0.106938115646662E+02
             -0.223296795545124E+02
              0.596783523772626E+01
             -0.116640313002261E+03
             -0.417238134266591E+01
             -0.680763224693046E+02
              0.620916201446013E+02
             -0.264909918741278E+02
             -0.825822761967475E+01
              0.472646105400078E+02
              0.234096754941167E+01
              0.514801543413837E+02
             -0.801557098203660E+02
              0.198228832442946E+02
              0.112194277449268E+02
              0.265259208135779E+02
              0.644702147791120E+02
             -0.498850631392327E+01
             -0.753644436834863E+02
             -0.376381086072340E+02
             -0.270691423374407E+02
             -0.151095236734318E+02
              0.621888664036222E+02
              0.417926242235619E+02
             -0.326057706839604E+02
             -0.421407601736367E+02
              0.350496890255482E+02
              0.316772500268171E+02
             -0.805167646228884E+02
              0.254291301758067E+02
              0.605067152835472E+02
             -0.473528136315201E+01
              0.685877761619103E+02
              0.403064739567049E+02
              0.525428844027308E+02
              0.746935168757253E+02
              0.271647565804075E+01
             -0.122676661124966E+03
              0.111724598470034E+02
              0.133235860920298E+03
              0.887503576804004E+02
             -0.625705349286839E+02
              0.469901045767291E+01
              0.738957081523686E+02
              0.682325685303312E+02
              0.291480160905954E+02
             -0.209533534545169E+02
              0.323757397144275E+02
              0.801672625168826E+02
             -0.274925831948748E+02
             -0.264694936213135E+02
              0.459923946378825E+02
             -0.695373833485422E+01
              0.371045674280008E+02
              0.106777049799248E+00
              0.882898891593372E+02
             -0.298244345175259E+02
              0.123384659230238E+02
             -0.478311581582530E+02
              0.430573870399284E+02
             -0.533200227401068E+01
              0.687372086499988E+02
              0.481472265256593E+01
              0.191250273158330E+02
             -0.458840084984105E+02
             -0.251018041921306E+02
             -0.140687763117888E+02
             -0.576425738811349E+01
              0.724495912890145E+02
              0.206515427242154E+02
              0.957326473546665E+02
              0.565849541737721E+02
              0.890607032236392E+01
             -0.327847245379189E-01
              0.869362294370549E+02
              0.454988099033305E+02
              0.566871789936084E+01
              0.803733898521895E+02
             -0.715483475970244E+02
              0.299394781832663E+02
             -0.380562652932761E+02
             -0.288970665295064E+02
              0.104280621476001E+03
             -0.169451044588889E+02
              0.997122371997875E+00
             -0.165654773852312E+02
              0.870862089246914E+02
             -0.243714293505817E+02
             -0.245033151114362E+01
              0.180488213804539E+03
             -0.649773964802536E+02
             -0.528229773639289E+02
             -0.677612832900632E+02
             -0.318937496325630E+02
              0.370803561118327E+02
             -0.169261574176461E+02
              0.156718540601851E+02
              0.651034741467015E+00
              0.226903469708749E+02
              0.365592110793139E+02
              0.345529356270848E+02
              0.735364793697782E+02
              0.300855807116285E+02
              0.512725075802235E+02
             -0.734136136129400E+02
             -0.572203008578563E+02
             -0.232788618787148E+02
             -0.629243686667926E+02
              0.113395905526413E+03
              0.972626769551195E+02
              0.422738479802735E+02
              0.114679408715065E+03
             -0.615177381825447E+02
             -0.295855962572183E+02
             -0.305456231878987E+02
              0.904846087713033E+02
 
 BEEF-vdW xc energy contributions
            1 :    -884.4063725924291     
            2 :     780.3822126703275     
            3 :    -600.9886657362704     
            4 :     392.7251504829045     
            5 :    -203.0746160531951     
            6 :     64.82024916104729     
            7 :     12.17425594597944     
            8 :    -39.20010222169867     
            9 :     39.06662278991348     
           10 :    -33.93209441935937     
           11 :     36.33671854518593     
           12 :    -46.82143415664927     
           13 :     57.86580316227924     
           14 :    -60.88365000497538     
           15 :     52.09013809243606     
           16 :    -34.39116610821407     
           17 :     15.04263745398316     
           18 :    -1.143925925745634     
           19 :    -4.128286323654834     
           20 :     2.519080296142874     
           21 :     1.223946359111778     
           22 :    -2.650609854730305     
           23 :    0.1765004277721118     
           24 :     4.471903490372029     
           25 :    -7.892654633417351     
           26 :     7.456366893494760     
           27 :    -2.975629563799771     
           28 :    -3.332137295710822     
           29 :     8.373528906312572     
           30 :    -10.09938029981095     
           31 :    -115.6979869612305     
           32 :    -83.96326195105235     

     Writing all to output data dir ./diamond.save/
 
     init_run     :      2.62s CPU      4.42s WALL (       1 calls)
     electrons    :    106.54s CPU    108.79s WALL (       1 calls)
     forces       :      2.28s CPU      2.39s WALL (       1 calls)
     stress       :     29.26s CPU     29.60s WALL (       1 calls)

     Called by init_run:
     wfcinit      :      0.97s CPU      2.63s WALL (       1 calls)
     potinit      :      0.44s CPU      0.53s WALL (       1 calls)
     hinit0       :      0.55s CPU      0.59s WALL (       1 calls)

     Called by electrons:
     c_bands      :    104.03s CPU    106.10s WALL (       2 calls)
     sum_band     :      1.61s CPU      1.64s WALL (       2 calls)
     v_of_rho     :      0.55s CPU      0.57s WALL (       2 calls)
     v_h          :      0.00s CPU      0.00s WALL (       2 calls)
     v_xc         :      7.09s CPU      7.24s WALL (      38 calls)
     newd         :      0.07s CPU      0.08s WALL (       2 calls)
     PAW_pot      :      0.13s CPU      0.13s WALL (       2 calls)
     mix_rho      :      0.00s CPU      0.00s WALL (       2 calls)
     vdW_kernel   :      0.16s CPU      0.17s WALL (       1 calls)

     Called by c_bands:
     init_us_2    :      0.08s CPU      0.09s WALL (       4 calls)
     init_us_2:cp :      0.08s CPU      0.09s WALL (       4 calls)
     cegterg      :     94.98s CPU     95.86s WALL (       2 calls)

     Called by sum_band:
     sum_band:wei :      0.00s CPU      0.00s WALL (       2 calls)
     sum_band:loo :      1.38s CPU      1.41s WALL (       2 calls)
     sum_band:buf :      0.00s CPU      0.00s WALL (       2 calls)
     sum_band:ini :      0.07s CPU      0.08s WALL (       2 calls)
     sum_band:cal :      0.76s CPU      0.77s WALL (       2 calls)
     sum_band:bec :      0.02s CPU      0.02s WALL (       2 calls)
     addusdens    :      0.08s CPU      0.08s WALL (       2 calls)
     addusd:skk   :      0.02s CPU      0.02s WALL (       2 calls)
     addusd:dgemm :      0.03s CPU      0.03s WALL (       2 calls)
     addusd:qvan2 :      0.00s CPU      0.00s WALL (       2 calls)

     Called by *egterg:
     cdiaghg      :     78.19s CPU     78.62s WALL (      21 calls)
     cegterg:over :      3.31s CPU      3.41s WALL (      21 calls)
     cegterg:upda :      1.89s CPU      1.95s WALL (      21 calls)
     cegterg:last :      0.60s CPU      0.60s WALL (       2 calls)
     h_psi        :      7.70s CPU      7.87s WALL (      23 calls)
     s_psi        :      2.20s CPU      2.22s WALL (      23 calls)
     g_psi        :      0.01s CPU      0.01s WALL (      21 calls)

     Called by h_psi:
     h_psi:calbec :      2.52s CPU      2.56s WALL (      23 calls)
     vloc_psi     :      2.89s CPU      2.94s WALL (      23 calls)
     add_vuspsi   :      2.23s CPU      2.27s WALL (      23 calls)

     General routines
     calbec       :      5.21s CPU      5.27s WALL (      30 calls)
     fft          :      3.77s CPU      3.83s WALL (    2232 calls)
     ffts         :      0.01s CPU      0.01s WALL (       4 calls)
     fftw         :      3.23s CPU      3.28s WALL (    7180 calls)
     interpolate  :      0.01s CPU      0.01s WALL (       2 calls)
 
     Parallel routines

     PAW routines
     PAW_pot      :      0.13s CPU      0.13s WALL (       2 calls)
     PAW_symme    :      0.01s CPU      0.01s WALL (       3 calls)
 
     PWSCF        :   2m27.84s CPU   2m35.20s WALL

 
   This run was terminated on:  16:13:55  19Feb2024            

=------------------------------------------------------------------------------=
   JOB DONE.
=------------------------------------------------------------------------------=
