
     Program PWSCF v.7.1 starts on 27Apr2024 at  7:52:57 

     This program is part of the open-source Quantum ESPRESSO suite
     for quantum simulation of materials; please cite
         "P. Giannozzi et al., J. Phys.:Condens. Matter 21 395502 (2009);
         "P. Giannozzi et al., J. Phys.:Condens. Matter 29 465901 (2017);
         "P. Giannozzi et al., J. Chem. Phys. 152 154105 (2020);
          URL http://www.quantum-espresso.org", 
     in publications or presentations arising from this work. More details at
     http://www.quantum-espresso.org/quote

     Parallel version (MPI & OpenMP), running on     128 processor cores
     Number of MPI processes:               128
     Threads/MPI process:                     1

     MPI processes distributed on     1 nodes
     2010533 MiB available memory on the printing compute node when the environment starts
 
     Reading input from espresso.pwi
Warning: card &CELL ignored
Warning: card    CELL_DYNAMICS    = 'BFGS' ignored
Warning: card / ignored

     Current dimensions of program PWSCF are:
     Max number of different atomic species (ntypx) = 10
     Max number of k-points (npk) =  40000
     Max angular momentum in pseudopotentials (lmaxx) =  4
     file Ga.pbe-dn-kjpaw_psl.1.0.0.UPF: wavefunction(s)  4S renormalized
     file N.pbe-n-kjpaw_psl.1.0.0.UPF: wavefunction(s)  2S renormalized

     **************************************************************************
     Initializing libbeef V0.1.2 with the BEEF-vdW functional.
     Citation: Wellendorff et al., PRB 85, 235149 (2012).
     **************************************************************************


     IMPORTANT: XC functional enforced from input :
     Exchange-correlation= BEEF-VDW
                           (   1   4  43  14   2   0   0)
     Any further DFT definition will be discarded
     Please, verify this is what you really want

 
     K-points division:     npool     =       2
     R & G space division:  proc/nbgrp/npool/nimage =      64
     Subspace diagonalization in iterative solution of the eigenvalue problem:
     a serial algorithm will be used

 
     Parallelization info
     --------------------
     sticks:   dense  smooth     PW     G-vecs:    dense   smooth      PW
     Min         354     283     73                42160    30167    3987
     Max         356     285     74                42163    30170    3996
     Sum       22693   18145   4705              2698283  1930731  255309
 
     Using Slab Decomposition
 


     bravais-lattice index     =            4
     lattice parameter (alat)  =      30.6565  a.u.
     unit-cell volume          =   24400.9461 (a.u.)^3
     number of atoms/cell      =          299
     number of atomic types    =            2
     number of electrons       =      2696.00
     number of Kohn-Sham states=         1618
     kinetic-energy cutoff     =      70.0000  Ry
     charge density cutoff     =     350.0000  Ry
     scf convergence threshold =      1.0E-07
     mixing beta               =       0.7000
     number of iterations used =            8  plain     mixing
     energy convergence thresh.=      1.0E-04
     force convergence thresh. =      1.0E-03
     Exchange-correlation= BEEF-VDW
                           (   1   4  43  14   2   0   0)
     nstep                     =           50


     celldm(1)=  30.656540  celldm(2)=   0.000000  celldm(3)=   0.977927
     celldm(4)=   0.000000  celldm(5)=   0.000000  celldm(6)=   0.000000

     crystal axes: (cart. coord. in units of alat)
               a(1) = (   1.000000   0.000000   0.000000 )  
               a(2) = (  -0.500000   0.866025   0.000000 )  
               a(3) = (   0.000000   0.000000   0.977927 )  

     reciprocal axes: (cart. coord. in units 2 pi/alat)
               b(1) = (  1.000000  0.577350 -0.000000 )  
               b(2) = (  0.000000  1.154701  0.000000 )  
               b(3) = (  0.000000 -0.000000  1.022571 )  


     PseudoPot. # 1 for Ga read from file:
     //group///packages/espresso/pseudo/psl_1.0.0/pslibrary.1.0.0/pbe/PSEUDOPOTENTIALS/Ga.pbe-dn-kjpaw_psl.1.0.0.UPF
     MD5 check sum: cd2a01e492f15b435d17032472d8505c
     Pseudo is Projector augmented-wave + core cor, Zval = 13.0
     Generated using 'atomic' code by A. Dal Corso  v.7.1
     Shape of augmentation charge: PSQ
     Using radial grid of 1205 points,  6 beta functions with: 
                l(1) =   0
                l(2) =   0
                l(3) =   1
                l(4) =   1
                l(5) =   2
                l(6) =   2
     Q(r) pseudized with 0 coefficients 


     PseudoPot. # 2 for N  read from file:
     //group///packages/espresso/pseudo/psl_1.0.0/pslibrary.1.0.0/pbe/PSEUDOPOTENTIALS/N.pbe-n-kjpaw_psl.1.0.0.UPF
     MD5 check sum: f77f775694dac7e2c3fe1c82443d1a16
     Pseudo is Projector augmented-wave + core cor, Zval =  5.0
     Generated using 'atomic' code by A. Dal Corso  v.7.1
     Shape of augmentation charge: PSQ
     Using radial grid of 1085 points,  4 beta functions with: 
                l(1) =   0
                l(2) =   0
                l(3) =   1
                l(4) =   1
     Q(r) pseudized with 0 coefficients 


     atomic species   valence    mass     pseudopotential
        Ga            13.00    69.72300     Ga( 1.00)
        N              5.00    14.00700     N ( 1.00)

      2 Sym. Ops. (no inversion) found


                                    s                        frac. trans.

      isym =  1     identity                                     

 cryst.   s( 1) = (     1          0          0      )
                  (     0          1          0      )
                  (     0          0          1      )

 cart.    s( 1) = (  1.0000000  0.0000000  0.0000000 )
                  (  0.0000000  1.0000000  0.0000000 )
                  (  0.0000000  0.0000000  1.0000000 )


      isym =  2     inv. 180 deg rotation - cryst. axis [0,1,0]  

 cryst.   s( 2) = (     1          1          0      )
                  (     0         -1          0      )
                  (     0          0          1      )

 cart.    s( 2) = (  0.5000000  0.8660254  0.0000000 )
                  (  0.8660254 -0.5000000  0.0000000 )
                  (  0.0000000  0.0000000  1.0000000 )


     point group C_s (m)    
     there are  2 classes
     the character table:

       E     s    
A'     1.00  1.00
A''    1.00 -1.00

     the symmetry operations in each class and the name of the first element:

     E        1
          identity                                               
     s        2
          inv. 180 deg rotation - cryst. axis [0,1,0]            

   Cartesian axes

     site n.     atom                  positions (alat units)
         1           Ga  tau(   1) = (   0.1000001   0.0577350   0.1627148  )
         2           Ga  tau(   2) = (   0.1000001   0.0577350   0.4886906  )
         3           Ga  tau(   3) = (   0.1000001   0.0577350   0.8146665  )
         4           Ga  tau(   4) = (   0.0000001   0.2309401   0.1627148  )
         5           Ga  tau(   5) = (   0.0000001   0.2309401   0.4886906  )
         6           Ga  tau(   6) = (   0.0000001   0.2309401   0.8146665  )
         7           Ga  tau(   7) = (  -0.0999999   0.4041451   0.1627148  )
         8           Ga  tau(   8) = (  -0.0999999   0.4041451   0.4886906  )
         9           Ga  tau(   9) = (  -0.0999999   0.4041451   0.8146665  )
        10           Ga  tau(  10) = (  -0.1999999   0.5773502   0.1627148  )
        11           Ga  tau(  11) = (  -0.1999999   0.5773502   0.4886906  )
        12           Ga  tau(  12) = (  -0.1999999   0.5773502   0.8146665  )
        13           Ga  tau(  13) = (  -0.2999999   0.7505553   0.1627148  )
        14           Ga  tau(  14) = (  -0.2999999   0.7505553   0.4886906  )
        15           Ga  tau(  15) = (  -0.2999999   0.7505553   0.8146665  )
        16           Ga  tau(  16) = (   0.3000001   0.0577350   0.1627148  )
        17           Ga  tau(  17) = (   0.3000001   0.0577350   0.4886906  )
        18           Ga  tau(  18) = (   0.3000001   0.0577350   0.8146665  )
        19           Ga  tau(  19) = (   0.2000001   0.2309401   0.1627148  )
        20           Ga  tau(  20) = (   0.2000001   0.2309401   0.4886906  )
        21           Ga  tau(  21) = (   0.2000001   0.2309401   0.8146665  )
        22           Ga  tau(  22) = (   0.1000001   0.4041451   0.1627148  )
        23           Ga  tau(  23) = (   0.1000001   0.4041451   0.4886906  )
        24           Ga  tau(  24) = (   0.1000001   0.4041451   0.8146665  )
        25           Ga  tau(  25) = (   0.0000001   0.5773502   0.1627148  )
        26           Ga  tau(  26) = (   0.0000001   0.5773502   0.4886906  )
        27           Ga  tau(  27) = (   0.0000001   0.5773502   0.8146665  )
        28           Ga  tau(  28) = (  -0.0999999   0.7505553   0.1627148  )
        29           Ga  tau(  29) = (  -0.0999999   0.7505553   0.4886906  )
        30           Ga  tau(  30) = (  -0.0999999   0.7505553   0.8146665  )
        31           Ga  tau(  31) = (   0.5000001   0.0577350   0.1627148  )
        32           Ga  tau(  32) = (   0.5000001   0.0577350   0.4886906  )
        33           Ga  tau(  33) = (   0.5000001   0.0577350   0.8146665  )
        34           Ga  tau(  34) = (   0.4000001   0.2309401   0.1627148  )
        35           Ga  tau(  35) = (   0.4000001   0.2309401   0.4886906  )
        36           Ga  tau(  36) = (   0.4000001   0.2309401   0.8146665  )
        37           Ga  tau(  37) = (   0.3000001   0.4041451   0.1627148  )
        38           Ga  tau(  38) = (   0.3000001   0.4041451   0.4886906  )
        39           Ga  tau(  39) = (   0.3000001   0.4041451   0.8146665  )
        40           Ga  tau(  40) = (   0.2000001   0.5773502   0.1627148  )
        41           Ga  tau(  41) = (   0.2000001   0.5773502   0.4886906  )
        42           Ga  tau(  42) = (   0.2000001   0.5773502   0.8146665  )
        43           Ga  tau(  43) = (   0.1000001   0.7505553   0.1627148  )
        44           Ga  tau(  44) = (   0.1000001   0.7505553   0.4886906  )
        45           Ga  tau(  45) = (   0.1000001   0.7505553   0.8146665  )
        46           Ga  tau(  46) = (   0.7000001   0.0577350   0.1627148  )
        47           Ga  tau(  47) = (   0.7000001   0.0577350   0.4886906  )
        48           Ga  tau(  48) = (   0.7000001   0.0577350   0.8146665  )
        49           Ga  tau(  49) = (   0.6000001   0.2309401   0.1627148  )
        50           Ga  tau(  50) = (   0.6000001   0.2309401   0.4886906  )
        51           Ga  tau(  51) = (   0.6000001   0.2309401   0.8146665  )
        52           Ga  tau(  52) = (   0.5000001   0.4041451   0.1627148  )
        53           Ga  tau(  53) = (   0.5000001   0.4041451   0.4886906  )
        54           Ga  tau(  54) = (   0.5000001   0.4041451   0.8146665  )
        55           Ga  tau(  55) = (   0.4000001   0.5773502   0.1627148  )
        56           Ga  tau(  56) = (   0.4000001   0.5773502   0.4886906  )
        57           Ga  tau(  57) = (   0.4000001   0.5773502   0.8146665  )
        58           Ga  tau(  58) = (   0.3000001   0.7505553   0.1627148  )
        59           Ga  tau(  59) = (   0.3000001   0.7505553   0.4886906  )
        60           Ga  tau(  60) = (   0.3000001   0.7505553   0.8146665  )
        61           Ga  tau(  61) = (   0.9000001   0.0577350   0.1627148  )
        62           Ga  tau(  62) = (   0.9000001   0.0577350   0.4886906  )
        63           Ga  tau(  63) = (   0.9000001   0.0577350   0.8146665  )
        64           Ga  tau(  64) = (   0.8000001   0.2309401   0.1627148  )
        65           Ga  tau(  65) = (   0.8000001   0.2309401   0.4886906  )
        66           Ga  tau(  66) = (   0.8000001   0.2309401   0.8146665  )
        67           Ga  tau(  67) = (   0.7000001   0.4041451   0.1627148  )
        68           Ga  tau(  68) = (   0.7000001   0.4041451   0.4886906  )
        69           Ga  tau(  69) = (   0.7000001   0.4041451   0.8146665  )
        70           Ga  tau(  70) = (   0.6000001   0.5773502   0.1627148  )
        71           Ga  tau(  71) = (   0.6000001   0.5773502   0.4886906  )
        72           Ga  tau(  72) = (   0.6000001   0.5773502   0.8146665  )
        73           Ga  tau(  73) = (   0.5000001   0.7505553   0.1627148  )
        74           Ga  tau(  74) = (   0.5000001   0.7505553   0.4886906  )
        75           Ga  tau(  75) = (   0.5000001   0.7505553   0.8146665  )
        76           Ga  tau(  76) = (  -0.0000001   0.1154701   0.3257027  )
        77           Ga  tau(  77) = (  -0.0000001   0.1154701   0.6516786  )
        78           Ga  tau(  78) = (  -0.0000001   0.1154701   0.9776544  )
        79           Ga  tau(  79) = (  -0.1000001   0.2886752   0.3257027  )
        80           Ga  tau(  80) = (  -0.1000001   0.2886752   0.6516786  )
        81           Ga  tau(  81) = (  -0.1000001   0.2886752   0.9776544  )
        82           Ga  tau(  82) = (  -0.2000001   0.4618803   0.3257027  )
        83           Ga  tau(  83) = (  -0.2000001   0.4618803   0.6516786  )
        84           Ga  tau(  84) = (  -0.2000001   0.4618803   0.9776544  )
        85           Ga  tau(  85) = (  -0.3000001   0.6350854   0.3257027  )
        86           Ga  tau(  86) = (  -0.3000001   0.6350854   0.6516786  )
        87           Ga  tau(  87) = (  -0.3000001   0.6350854   0.9776544  )
        88           Ga  tau(  88) = (  -0.4000001   0.8082905   0.3257027  )
        89           Ga  tau(  89) = (  -0.4000001   0.8082905   0.6516786  )
        90           Ga  tau(  90) = (  -0.4000001   0.8082905   0.9776544  )
        91           Ga  tau(  91) = (   0.1999999   0.1154701   0.3257027  )
        92           Ga  tau(  92) = (   0.1999999   0.1154701   0.6516786  )
        93           Ga  tau(  93) = (   0.1999999   0.1154701   0.9776544  )
        94           Ga  tau(  94) = (   0.0999999   0.2886752   0.3257027  )
        95           Ga  tau(  95) = (   0.0999999   0.2886752   0.6516786  )
        96           Ga  tau(  96) = (   0.0999999   0.2886752   0.9776544  )
        97           Ga  tau(  97) = (  -0.0000001   0.4618803   0.3257027  )
        98           Ga  tau(  98) = (  -0.0000001   0.4618803   0.6516786  )
        99           Ga  tau(  99) = (  -0.0000001   0.4618803   0.9776544  )
       100           Ga  tau( 100) = (  -0.1000001   0.6350854   0.3257027  )
       101           Ga  tau( 101) = (  -0.1000001   0.6350854   0.6516786  )
       102           Ga  tau( 102) = (  -0.1000001   0.6350854   0.9776544  )
       103           Ga  tau( 103) = (  -0.2000001   0.8082905   0.3257027  )
       104           Ga  tau( 104) = (  -0.2000001   0.8082905   0.6516786  )
       105           Ga  tau( 105) = (  -0.2000001   0.8082905   0.9776544  )
       106           Ga  tau( 106) = (   0.3999999   0.1154701   0.3257027  )
       107           Ga  tau( 107) = (   0.3999999   0.1154701   0.6516786  )
       108           Ga  tau( 108) = (   0.3999999   0.1154701   0.9776544  )
       109           Ga  tau( 109) = (   0.2999999   0.2886752   0.3257027  )
       110           Ga  tau( 110) = (   0.2999999   0.2886752   0.6516786  )
       111           Ga  tau( 111) = (   0.2999999   0.2886752   0.9776544  )
       112           Ga  tau( 112) = (   0.1999999   0.4618803   0.3257027  )
       113           Ga  tau( 113) = (   0.1999999   0.4618803   0.6516786  )
       114           Ga  tau( 114) = (   0.1999999   0.4618803   0.9776544  )
       115           Ga  tau( 115) = (   0.0999999   0.6350854   0.3257027  )
       116           Ga  tau( 116) = (   0.0999999   0.6350854   0.6516786  )
       117           Ga  tau( 117) = (   0.0999999   0.6350854   0.9776544  )
       118           Ga  tau( 118) = (  -0.0000001   0.8082905   0.3257027  )
       119           Ga  tau( 119) = (  -0.0000001   0.8082905   0.6516786  )
       120           Ga  tau( 120) = (  -0.0000001   0.8082905   0.9776544  )
       121           Ga  tau( 121) = (   0.5999999   0.1154701   0.3257027  )
       122           Ga  tau( 122) = (   0.5999999   0.1154701   0.6516786  )
       123           Ga  tau( 123) = (   0.5999999   0.1154701   0.9776544  )
       124           Ga  tau( 124) = (   0.4999999   0.2886752   0.3257027  )
       125           Ga  tau( 125) = (   0.4999999   0.2886752   0.6516786  )
       126           Ga  tau( 126) = (   0.4999999   0.2886752   0.9776544  )
       127           Ga  tau( 127) = (   0.3999999   0.4618803   0.3257027  )
       128           Ga  tau( 128) = (   0.3999999   0.4618803   0.6516786  )
       129           Ga  tau( 129) = (   0.3999999   0.4618803   0.9776544  )
       130           Ga  tau( 130) = (   0.2999999   0.6350854   0.3257027  )
       131           Ga  tau( 131) = (   0.2999999   0.6350854   0.6516786  )
       132           Ga  tau( 132) = (   0.2999999   0.6350854   0.9776544  )
       133           Ga  tau( 133) = (   0.1999999   0.8082905   0.3257027  )
       134           Ga  tau( 134) = (   0.1999999   0.8082905   0.6516786  )
       135           Ga  tau( 135) = (   0.1999999   0.8082905   0.9776544  )
       136           Ga  tau( 136) = (   0.7999999   0.1154701   0.3257027  )
       137           Ga  tau( 137) = (   0.7999999   0.1154701   0.6516786  )
       138           Ga  tau( 138) = (   0.7999999   0.1154701   0.9776544  )
       139           Ga  tau( 139) = (   0.6999999   0.2886752   0.3257027  )
       140           Ga  tau( 140) = (   0.6999999   0.2886752   0.6516786  )
       141           Ga  tau( 141) = (   0.6999999   0.2886752   0.9776544  )
       142           Ga  tau( 142) = (   0.5999999   0.4618803   0.3257027  )
       143           Ga  tau( 143) = (   0.5999999   0.4618803   0.6516786  )
       144           Ga  tau( 144) = (   0.5999999   0.4618803   0.9776544  )
       145           Ga  tau( 145) = (   0.4999999   0.6350854   0.3257027  )
       146           Ga  tau( 146) = (   0.4999999   0.6350854   0.6516786  )
       147           Ga  tau( 147) = (   0.4999999   0.6350854   0.9776544  )
       148           Ga  tau( 148) = (   0.3999999   0.8082905   0.3257027  )
       149           Ga  tau( 149) = (   0.3999999   0.8082905   0.6516786  )
       150           Ga  tau( 150) = (   0.3999999   0.8082905   0.9776544  )
       151           N   tau( 151) = (   0.1000001   0.0577350   0.6114777  )
       152           N   tau( 152) = (   0.1000001   0.0577350   0.9374535  )
       153           N   tau( 153) = (   0.0000001   0.2309401   0.2855019  )
       154           N   tau( 154) = (   0.0000001   0.2309401   0.6114777  )
       155           N   tau( 155) = (   0.0000001   0.2309401   0.9374535  )
       156           N   tau( 156) = (  -0.0999999   0.4041451   0.2855019  )
       157           N   tau( 157) = (  -0.0999999   0.4041451   0.6114777  )
       158           N   tau( 158) = (  -0.0999999   0.4041451   0.9374535  )
       159           N   tau( 159) = (  -0.1999999   0.5773502   0.2855019  )
       160           N   tau( 160) = (  -0.1999999   0.5773502   0.6114777  )
       161           N   tau( 161) = (  -0.1999999   0.5773502   0.9374535  )
       162           N   tau( 162) = (  -0.2999999   0.7505553   0.2855019  )
       163           N   tau( 163) = (  -0.2999999   0.7505553   0.6114777  )
       164           N   tau( 164) = (  -0.2999999   0.7505553   0.9374535  )
       165           N   tau( 165) = (   0.3000001   0.0577350   0.2855019  )
       166           N   tau( 166) = (   0.3000001   0.0577350   0.6114777  )
       167           N   tau( 167) = (   0.3000001   0.0577350   0.9374535  )
       168           N   tau( 168) = (   0.2000001   0.2309401   0.2855019  )
       169           N   tau( 169) = (   0.2000001   0.2309401   0.6114777  )
       170           N   tau( 170) = (   0.2000001   0.2309401   0.9374535  )
       171           N   tau( 171) = (   0.1000001   0.4041451   0.2855019  )
       172           N   tau( 172) = (   0.1000001   0.4041451   0.6114777  )
       173           N   tau( 173) = (   0.1000001   0.4041451   0.9374535  )
       174           N   tau( 174) = (   0.0000001   0.5773502   0.2855019  )
       175           N   tau( 175) = (   0.0000001   0.5773502   0.6114777  )
       176           N   tau( 176) = (   0.0000001   0.5773502   0.9374535  )
       177           N   tau( 177) = (  -0.0999999   0.7505553   0.2855019  )
       178           N   tau( 178) = (  -0.0999999   0.7505553   0.6114777  )
       179           N   tau( 179) = (  -0.0999999   0.7505553   0.9374535  )
       180           N   tau( 180) = (   0.5000001   0.0577350   0.2855019  )
       181           N   tau( 181) = (   0.5000001   0.0577350   0.6114777  )
       182           N   tau( 182) = (   0.5000001   0.0577350   0.9374535  )
       183           N   tau( 183) = (   0.4000001   0.2309401   0.2855019  )
       184           N   tau( 184) = (   0.4000001   0.2309401   0.6114777  )
       185           N   tau( 185) = (   0.4000001   0.2309401   0.9374535  )
       186           N   tau( 186) = (   0.3000001   0.4041451   0.2855019  )
       187           N   tau( 187) = (   0.3000001   0.4041451   0.6114777  )
       188           N   tau( 188) = (   0.3000001   0.4041451   0.9374535  )
       189           N   tau( 189) = (   0.2000001   0.5773502   0.2855019  )
       190           N   tau( 190) = (   0.2000001   0.5773502   0.6114777  )
       191           N   tau( 191) = (   0.2000001   0.5773502   0.9374535  )
       192           N   tau( 192) = (   0.1000001   0.7505553   0.2855019  )
       193           N   tau( 193) = (   0.1000001   0.7505553   0.6114777  )
       194           N   tau( 194) = (   0.1000001   0.7505553   0.9374535  )
       195           N   tau( 195) = (   0.7000001   0.0577350   0.2855019  )
       196           N   tau( 196) = (   0.7000001   0.0577350   0.6114777  )
       197           N   tau( 197) = (   0.7000001   0.0577350   0.9374535  )
       198           N   tau( 198) = (   0.6000001   0.2309401   0.2855019  )
       199           N   tau( 199) = (   0.6000001   0.2309401   0.6114777  )
       200           N   tau( 200) = (   0.6000001   0.2309401   0.9374535  )
       201           N   tau( 201) = (   0.5000001   0.4041451   0.2855019  )
       202           N   tau( 202) = (   0.5000001   0.4041451   0.6114777  )
       203           N   tau( 203) = (   0.5000001   0.4041451   0.9374535  )
       204           N   tau( 204) = (   0.4000001   0.5773502   0.2855019  )
       205           N   tau( 205) = (   0.4000001   0.5773502   0.6114777  )
       206           N   tau( 206) = (   0.4000001   0.5773502   0.9374535  )
       207           N   tau( 207) = (   0.3000001   0.7505553   0.2855019  )
       208           N   tau( 208) = (   0.3000001   0.7505553   0.6114777  )
       209           N   tau( 209) = (   0.3000001   0.7505553   0.9374535  )
       210           N   tau( 210) = (   0.9000001   0.0577350   0.2855019  )
       211           N   tau( 211) = (   0.9000001   0.0577350   0.6114777  )
       212           N   tau( 212) = (   0.9000001   0.0577350   0.9374535  )
       213           N   tau( 213) = (   0.8000001   0.2309401   0.2855019  )
       214           N   tau( 214) = (   0.8000001   0.2309401   0.6114777  )
       215           N   tau( 215) = (   0.8000001   0.2309401   0.9374535  )
       216           N   tau( 216) = (   0.7000001   0.4041451   0.2855019  )
       217           N   tau( 217) = (   0.7000001   0.4041451   0.6114777  )
       218           N   tau( 218) = (   0.7000001   0.4041451   0.9374535  )
       219           N   tau( 219) = (   0.6000001   0.5773502   0.2855019  )
       220           N   tau( 220) = (   0.6000001   0.5773502   0.6114777  )
       221           N   tau( 221) = (   0.6000001   0.5773502   0.9374535  )
       222           N   tau( 222) = (   0.5000001   0.7505553   0.2855019  )
       223           N   tau( 223) = (   0.5000001   0.7505553   0.6114777  )
       224           N   tau( 224) = (   0.5000001   0.7505553   0.9374535  )
       225           N   tau( 225) = (  -0.0000001   0.1154701   0.1225140  )
       226           N   tau( 226) = (  -0.0000001   0.1154701   0.4484898  )
       227           N   tau( 227) = (  -0.0000001   0.1154701   0.7744656  )
       228           N   tau( 228) = (  -0.1000001   0.2886752   0.1225140  )
       229           N   tau( 229) = (  -0.1000001   0.2886752   0.4484898  )
       230           N   tau( 230) = (  -0.1000001   0.2886752   0.7744656  )
       231           N   tau( 231) = (  -0.2000001   0.4618803   0.1225140  )
       232           N   tau( 232) = (  -0.2000001   0.4618803   0.4484898  )
       233           N   tau( 233) = (  -0.2000001   0.4618803   0.7744656  )
       234           N   tau( 234) = (  -0.3000001   0.6350854   0.1225140  )
       235           N   tau( 235) = (  -0.3000001   0.6350854   0.4484898  )
       236           N   tau( 236) = (  -0.3000001   0.6350854   0.7744656  )
       237           N   tau( 237) = (  -0.4000001   0.8082905   0.1225140  )
       238           N   tau( 238) = (  -0.4000001   0.8082905   0.4484898  )
       239           N   tau( 239) = (  -0.4000001   0.8082905   0.7744656  )
       240           N   tau( 240) = (   0.1999999   0.1154701   0.1225140  )
       241           N   tau( 241) = (   0.1999999   0.1154701   0.4484898  )
       242           N   tau( 242) = (   0.1999999   0.1154701   0.7744656  )
       243           N   tau( 243) = (   0.0999999   0.2886752   0.1225140  )
       244           N   tau( 244) = (   0.0999999   0.2886752   0.4484898  )
       245           N   tau( 245) = (   0.0999999   0.2886752   0.7744656  )
       246           N   tau( 246) = (  -0.0000001   0.4618803   0.1225140  )
       247           N   tau( 247) = (  -0.0000001   0.4618803   0.4484898  )
       248           N   tau( 248) = (  -0.0000001   0.4618803   0.7744656  )
       249           N   tau( 249) = (  -0.1000001   0.6350854   0.1225140  )
       250           N   tau( 250) = (  -0.1000001   0.6350854   0.4484898  )
       251           N   tau( 251) = (  -0.1000001   0.6350854   0.7744656  )
       252           N   tau( 252) = (  -0.2000001   0.8082905   0.1225140  )
       253           N   tau( 253) = (  -0.2000001   0.8082905   0.4484898  )
       254           N   tau( 254) = (  -0.2000001   0.8082905   0.7744656  )
       255           N   tau( 255) = (   0.3999999   0.1154701   0.1225140  )
       256           N   tau( 256) = (   0.3999999   0.1154701   0.4484898  )
       257           N   tau( 257) = (   0.3999999   0.1154701   0.7744656  )
       258           N   tau( 258) = (   0.2999999   0.2886752   0.1225140  )
       259           N   tau( 259) = (   0.2999999   0.2886752   0.4484898  )
       260           N   tau( 260) = (   0.2999999   0.2886752   0.7744656  )
       261           N   tau( 261) = (   0.1999999   0.4618803   0.1225140  )
       262           N   tau( 262) = (   0.1999999   0.4618803   0.4484898  )
       263           N   tau( 263) = (   0.1999999   0.4618803   0.7744656  )
       264           N   tau( 264) = (   0.0999999   0.6350854   0.1225140  )
       265           N   tau( 265) = (   0.0999999   0.6350854   0.4484898  )
       266           N   tau( 266) = (   0.0999999   0.6350854   0.7744656  )
       267           N   tau( 267) = (  -0.0000001   0.8082905   0.1225140  )
       268           N   tau( 268) = (  -0.0000001   0.8082905   0.4484898  )
       269           N   tau( 269) = (  -0.0000001   0.8082905   0.7744656  )
       270           N   tau( 270) = (   0.5999999   0.1154701   0.1225140  )
       271           N   tau( 271) = (   0.5999999   0.1154701   0.4484898  )
       272           N   tau( 272) = (   0.5999999   0.1154701   0.7744656  )
       273           N   tau( 273) = (   0.4999999   0.2886752   0.1225140  )
       274           N   tau( 274) = (   0.4999999   0.2886752   0.4484898  )
       275           N   tau( 275) = (   0.4999999   0.2886752   0.7744656  )
       276           N   tau( 276) = (   0.3999999   0.4618803   0.1225140  )
       277           N   tau( 277) = (   0.3999999   0.4618803   0.4484898  )
       278           N   tau( 278) = (   0.3999999   0.4618803   0.7744656  )
       279           N   tau( 279) = (   0.2999999   0.6350854   0.1225140  )
       280           N   tau( 280) = (   0.2999999   0.6350854   0.4484898  )
       281           N   tau( 281) = (   0.2999999   0.6350854   0.7744656  )
       282           N   tau( 282) = (   0.1999999   0.8082905   0.1225140  )
       283           N   tau( 283) = (   0.1999999   0.8082905   0.4484898  )
       284           N   tau( 284) = (   0.1999999   0.8082905   0.7744656  )
       285           N   tau( 285) = (   0.7999999   0.1154701   0.1225140  )
       286           N   tau( 286) = (   0.7999999   0.1154701   0.4484898  )
       287           N   tau( 287) = (   0.7999999   0.1154701   0.7744656  )
       288           N   tau( 288) = (   0.6999999   0.2886752   0.1225140  )
       289           N   tau( 289) = (   0.6999999   0.2886752   0.4484898  )
       290           N   tau( 290) = (   0.6999999   0.2886752   0.7744656  )
       291           N   tau( 291) = (   0.5999999   0.4618803   0.1225140  )
       292           N   tau( 292) = (   0.5999999   0.4618803   0.4484898  )
       293           N   tau( 293) = (   0.5999999   0.4618803   0.7744656  )
       294           N   tau( 294) = (   0.4999999   0.6350854   0.1225140  )
       295           N   tau( 295) = (   0.4999999   0.6350854   0.4484898  )
       296           N   tau( 296) = (   0.4999999   0.6350854   0.7744656  )
       297           N   tau( 297) = (   0.3999999   0.8082905   0.1225140  )
       298           N   tau( 298) = (   0.3999999   0.8082905   0.4484898  )
       299           N   tau( 299) = (   0.3999999   0.8082905   0.7744656  )

   Crystallographic axes

     site n.     atom                  positions (cryst. coord.)
         1           Ga  tau(   1) = (  0.1333334  0.0666666  0.1663874  )
         2           Ga  tau(   2) = (  0.1333334  0.0666666  0.4997208  )
         3           Ga  tau(   3) = (  0.1333334  0.0666666  0.8330541  )
         4           Ga  tau(   4) = (  0.1333334  0.2666666  0.1663874  )
         5           Ga  tau(   5) = (  0.1333334  0.2666666  0.4997208  )
         6           Ga  tau(   6) = (  0.1333334  0.2666666  0.8330541  )
         7           Ga  tau(   7) = (  0.1333334  0.4666666  0.1663874  )
         8           Ga  tau(   8) = (  0.1333334  0.4666666  0.4997208  )
         9           Ga  tau(   9) = (  0.1333334  0.4666666  0.8330541  )
        10           Ga  tau(  10) = (  0.1333334  0.6666666  0.1663874  )
        11           Ga  tau(  11) = (  0.1333334  0.6666666  0.4997208  )
        12           Ga  tau(  12) = (  0.1333334  0.6666666  0.8330541  )
        13           Ga  tau(  13) = (  0.1333334  0.8666666  0.1663874  )
        14           Ga  tau(  14) = (  0.1333334  0.8666666  0.4997208  )
        15           Ga  tau(  15) = (  0.1333334  0.8666666  0.8330541  )
        16           Ga  tau(  16) = (  0.3333334  0.0666666  0.1663874  )
        17           Ga  tau(  17) = (  0.3333334  0.0666666  0.4997208  )
        18           Ga  tau(  18) = (  0.3333334  0.0666666  0.8330541  )
        19           Ga  tau(  19) = (  0.3333334  0.2666666  0.1663874  )
        20           Ga  tau(  20) = (  0.3333334  0.2666666  0.4997208  )
        21           Ga  tau(  21) = (  0.3333334  0.2666666  0.8330541  )
        22           Ga  tau(  22) = (  0.3333334  0.4666666  0.1663874  )
        23           Ga  tau(  23) = (  0.3333334  0.4666666  0.4997208  )
        24           Ga  tau(  24) = (  0.3333334  0.4666666  0.8330541  )
        25           Ga  tau(  25) = (  0.3333334  0.6666666  0.1663874  )
        26           Ga  tau(  26) = (  0.3333334  0.6666666  0.4997208  )
        27           Ga  tau(  27) = (  0.3333334  0.6666666  0.8330541  )
        28           Ga  tau(  28) = (  0.3333334  0.8666666  0.1663874  )
        29           Ga  tau(  29) = (  0.3333334  0.8666666  0.4997208  )
        30           Ga  tau(  30) = (  0.3333334  0.8666666  0.8330541  )
        31           Ga  tau(  31) = (  0.5333334  0.0666666  0.1663874  )
        32           Ga  tau(  32) = (  0.5333334  0.0666666  0.4997208  )
        33           Ga  tau(  33) = (  0.5333334  0.0666666  0.8330541  )
        34           Ga  tau(  34) = (  0.5333334  0.2666666  0.1663874  )
        35           Ga  tau(  35) = (  0.5333334  0.2666666  0.4997208  )
        36           Ga  tau(  36) = (  0.5333334  0.2666666  0.8330541  )
        37           Ga  tau(  37) = (  0.5333334  0.4666666  0.1663874  )
        38           Ga  tau(  38) = (  0.5333334  0.4666666  0.4997208  )
        39           Ga  tau(  39) = (  0.5333334  0.4666666  0.8330541  )
        40           Ga  tau(  40) = (  0.5333334  0.6666666  0.1663874  )
        41           Ga  tau(  41) = (  0.5333334  0.6666666  0.4997208  )
        42           Ga  tau(  42) = (  0.5333334  0.6666666  0.8330541  )
        43           Ga  tau(  43) = (  0.5333334  0.8666666  0.1663874  )
        44           Ga  tau(  44) = (  0.5333334  0.8666666  0.4997208  )
        45           Ga  tau(  45) = (  0.5333334  0.8666666  0.8330541  )
        46           Ga  tau(  46) = (  0.7333334  0.0666666  0.1663874  )
        47           Ga  tau(  47) = (  0.7333334  0.0666666  0.4997208  )
        48           Ga  tau(  48) = (  0.7333334  0.0666666  0.8330541  )
        49           Ga  tau(  49) = (  0.7333334  0.2666666  0.1663874  )
        50           Ga  tau(  50) = (  0.7333334  0.2666666  0.4997208  )
        51           Ga  tau(  51) = (  0.7333334  0.2666666  0.8330541  )
        52           Ga  tau(  52) = (  0.7333334  0.4666666  0.1663874  )
        53           Ga  tau(  53) = (  0.7333334  0.4666666  0.4997208  )
        54           Ga  tau(  54) = (  0.7333334  0.4666666  0.8330541  )
        55           Ga  tau(  55) = (  0.7333334  0.6666666  0.1663874  )
        56           Ga  tau(  56) = (  0.7333334  0.6666666  0.4997208  )
        57           Ga  tau(  57) = (  0.7333334  0.6666666  0.8330541  )
        58           Ga  tau(  58) = (  0.7333334  0.8666666  0.1663874  )
        59           Ga  tau(  59) = (  0.7333334  0.8666666  0.4997208  )
        60           Ga  tau(  60) = (  0.7333334  0.8666666  0.8330541  )
        61           Ga  tau(  61) = (  0.9333334  0.0666666  0.1663874  )
        62           Ga  tau(  62) = (  0.9333334  0.0666666  0.4997208  )
        63           Ga  tau(  63) = (  0.9333334  0.0666666  0.8330541  )
        64           Ga  tau(  64) = (  0.9333334  0.2666666  0.1663874  )
        65           Ga  tau(  65) = (  0.9333334  0.2666666  0.4997208  )
        66           Ga  tau(  66) = (  0.9333334  0.2666666  0.8330541  )
        67           Ga  tau(  67) = (  0.9333334  0.4666666  0.1663874  )
        68           Ga  tau(  68) = (  0.9333334  0.4666666  0.4997208  )
        69           Ga  tau(  69) = (  0.9333334  0.4666666  0.8330541  )
        70           Ga  tau(  70) = (  0.9333334  0.6666666  0.1663874  )
        71           Ga  tau(  71) = (  0.9333334  0.6666666  0.4997208  )
        72           Ga  tau(  72) = (  0.9333334  0.6666666  0.8330541  )
        73           Ga  tau(  73) = (  0.9333334  0.8666666  0.1663874  )
        74           Ga  tau(  74) = (  0.9333334  0.8666666  0.4997208  )
        75           Ga  tau(  75) = (  0.9333334  0.8666666  0.8330541  )
        76           Ga  tau(  76) = (  0.0666666  0.1333334  0.3330541  )
        77           Ga  tau(  77) = (  0.0666666  0.1333334  0.6663874  )
        78           Ga  tau(  78) = (  0.0666666  0.1333334  0.9997208  )
        79           Ga  tau(  79) = (  0.0666666  0.3333334  0.3330541  )
        80           Ga  tau(  80) = (  0.0666666  0.3333334  0.6663874  )
        81           Ga  tau(  81) = (  0.0666666  0.3333334  0.9997208  )
        82           Ga  tau(  82) = (  0.0666666  0.5333334  0.3330541  )
        83           Ga  tau(  83) = (  0.0666666  0.5333334  0.6663874  )
        84           Ga  tau(  84) = (  0.0666666  0.5333334  0.9997208  )
        85           Ga  tau(  85) = (  0.0666666  0.7333334  0.3330541  )
        86           Ga  tau(  86) = (  0.0666666  0.7333334  0.6663874  )
        87           Ga  tau(  87) = (  0.0666666  0.7333334  0.9997208  )
        88           Ga  tau(  88) = (  0.0666666  0.9333334  0.3330541  )
        89           Ga  tau(  89) = (  0.0666666  0.9333334  0.6663874  )
        90           Ga  tau(  90) = (  0.0666666  0.9333334  0.9997208  )
        91           Ga  tau(  91) = (  0.2666666  0.1333334  0.3330541  )
        92           Ga  tau(  92) = (  0.2666666  0.1333334  0.6663874  )
        93           Ga  tau(  93) = (  0.2666666  0.1333334  0.9997208  )
        94           Ga  tau(  94) = (  0.2666666  0.3333334  0.3330541  )
        95           Ga  tau(  95) = (  0.2666666  0.3333334  0.6663874  )
        96           Ga  tau(  96) = (  0.2666666  0.3333334  0.9997208  )
        97           Ga  tau(  97) = (  0.2666666  0.5333334  0.3330541  )
        98           Ga  tau(  98) = (  0.2666666  0.5333334  0.6663874  )
        99           Ga  tau(  99) = (  0.2666666  0.5333334  0.9997208  )
       100           Ga  tau( 100) = (  0.2666666  0.7333334  0.3330541  )
       101           Ga  tau( 101) = (  0.2666666  0.7333334  0.6663874  )
       102           Ga  tau( 102) = (  0.2666666  0.7333334  0.9997208  )
       103           Ga  tau( 103) = (  0.2666666  0.9333334  0.3330541  )
       104           Ga  tau( 104) = (  0.2666666  0.9333334  0.6663874  )
       105           Ga  tau( 105) = (  0.2666666  0.9333334  0.9997208  )
       106           Ga  tau( 106) = (  0.4666666  0.1333334  0.3330541  )
       107           Ga  tau( 107) = (  0.4666666  0.1333334  0.6663874  )
       108           Ga  tau( 108) = (  0.4666666  0.1333334  0.9997208  )
       109           Ga  tau( 109) = (  0.4666666  0.3333334  0.3330541  )
       110           Ga  tau( 110) = (  0.4666666  0.3333334  0.6663874  )
       111           Ga  tau( 111) = (  0.4666666  0.3333334  0.9997208  )
       112           Ga  tau( 112) = (  0.4666666  0.5333334  0.3330541  )
       113           Ga  tau( 113) = (  0.4666666  0.5333334  0.6663874  )
       114           Ga  tau( 114) = (  0.4666666  0.5333334  0.9997208  )
       115           Ga  tau( 115) = (  0.4666666  0.7333334  0.3330541  )
       116           Ga  tau( 116) = (  0.4666666  0.7333334  0.6663874  )
       117           Ga  tau( 117) = (  0.4666666  0.7333334  0.9997208  )
       118           Ga  tau( 118) = (  0.4666666  0.9333334  0.3330541  )
       119           Ga  tau( 119) = (  0.4666666  0.9333334  0.6663874  )
       120           Ga  tau( 120) = (  0.4666666  0.9333334  0.9997208  )
       121           Ga  tau( 121) = (  0.6666666  0.1333334  0.3330541  )
       122           Ga  tau( 122) = (  0.6666666  0.1333334  0.6663874  )
       123           Ga  tau( 123) = (  0.6666666  0.1333334  0.9997208  )
       124           Ga  tau( 124) = (  0.6666666  0.3333334  0.3330541  )
       125           Ga  tau( 125) = (  0.6666666  0.3333334  0.6663874  )
       126           Ga  tau( 126) = (  0.6666666  0.3333334  0.9997208  )
       127           Ga  tau( 127) = (  0.6666666  0.5333334  0.3330541  )
       128           Ga  tau( 128) = (  0.6666666  0.5333334  0.6663874  )
       129           Ga  tau( 129) = (  0.6666666  0.5333334  0.9997208  )
       130           Ga  tau( 130) = (  0.6666666  0.7333334  0.3330541  )
       131           Ga  tau( 131) = (  0.6666666  0.7333334  0.6663874  )
       132           Ga  tau( 132) = (  0.6666666  0.7333334  0.9997208  )
       133           Ga  tau( 133) = (  0.6666666  0.9333334  0.3330541  )
       134           Ga  tau( 134) = (  0.6666666  0.9333334  0.6663874  )
       135           Ga  tau( 135) = (  0.6666666  0.9333334  0.9997208  )
       136           Ga  tau( 136) = (  0.8666666  0.1333334  0.3330541  )
       137           Ga  tau( 137) = (  0.8666666  0.1333334  0.6663874  )
       138           Ga  tau( 138) = (  0.8666666  0.1333334  0.9997208  )
       139           Ga  tau( 139) = (  0.8666666  0.3333334  0.3330541  )
       140           Ga  tau( 140) = (  0.8666666  0.3333334  0.6663874  )
       141           Ga  tau( 141) = (  0.8666666  0.3333334  0.9997208  )
       142           Ga  tau( 142) = (  0.8666666  0.5333334  0.3330541  )
       143           Ga  tau( 143) = (  0.8666666  0.5333334  0.6663874  )
       144           Ga  tau( 144) = (  0.8666666  0.5333334  0.9997208  )
       145           Ga  tau( 145) = (  0.8666666  0.7333334  0.3330541  )
       146           Ga  tau( 146) = (  0.8666666  0.7333334  0.6663874  )
       147           Ga  tau( 147) = (  0.8666666  0.7333334  0.9997208  )
       148           Ga  tau( 148) = (  0.8666666  0.9333334  0.3330541  )
       149           Ga  tau( 149) = (  0.8666666  0.9333334  0.6663874  )
       150           Ga  tau( 150) = (  0.8666666  0.9333334  0.9997208  )
       151           N   tau( 151) = (  0.1333334  0.0666666  0.6252792  )
       152           N   tau( 152) = (  0.1333334  0.0666666  0.9586126  )
       153           N   tau( 153) = (  0.1333334  0.2666666  0.2919459  )
       154           N   tau( 154) = (  0.1333334  0.2666666  0.6252792  )
       155           N   tau( 155) = (  0.1333334  0.2666666  0.9586126  )
       156           N   tau( 156) = (  0.1333334  0.4666666  0.2919459  )
       157           N   tau( 157) = (  0.1333334  0.4666666  0.6252792  )
       158           N   tau( 158) = (  0.1333334  0.4666666  0.9586126  )
       159           N   tau( 159) = (  0.1333334  0.6666666  0.2919459  )
       160           N   tau( 160) = (  0.1333334  0.6666666  0.6252792  )
       161           N   tau( 161) = (  0.1333334  0.6666666  0.9586126  )
       162           N   tau( 162) = (  0.1333334  0.8666666  0.2919459  )
       163           N   tau( 163) = (  0.1333334  0.8666666  0.6252792  )
       164           N   tau( 164) = (  0.1333334  0.8666666  0.9586126  )
       165           N   tau( 165) = (  0.3333334  0.0666666  0.2919459  )
       166           N   tau( 166) = (  0.3333334  0.0666666  0.6252792  )
       167           N   tau( 167) = (  0.3333334  0.0666666  0.9586126  )
       168           N   tau( 168) = (  0.3333334  0.2666666  0.2919459  )
       169           N   tau( 169) = (  0.3333334  0.2666666  0.6252792  )
       170           N   tau( 170) = (  0.3333334  0.2666666  0.9586126  )
       171           N   tau( 171) = (  0.3333334  0.4666666  0.2919459  )
       172           N   tau( 172) = (  0.3333334  0.4666666  0.6252792  )
       173           N   tau( 173) = (  0.3333334  0.4666666  0.9586126  )
       174           N   tau( 174) = (  0.3333334  0.6666666  0.2919459  )
       175           N   tau( 175) = (  0.3333334  0.6666666  0.6252792  )
       176           N   tau( 176) = (  0.3333334  0.6666666  0.9586126  )
       177           N   tau( 177) = (  0.3333334  0.8666666  0.2919459  )
       178           N   tau( 178) = (  0.3333334  0.8666666  0.6252792  )
       179           N   tau( 179) = (  0.3333334  0.8666666  0.9586126  )
       180           N   tau( 180) = (  0.5333334  0.0666666  0.2919459  )
       181           N   tau( 181) = (  0.5333334  0.0666666  0.6252792  )
       182           N   tau( 182) = (  0.5333334  0.0666666  0.9586126  )
       183           N   tau( 183) = (  0.5333334  0.2666666  0.2919459  )
       184           N   tau( 184) = (  0.5333334  0.2666666  0.6252792  )
       185           N   tau( 185) = (  0.5333334  0.2666666  0.9586126  )
       186           N   tau( 186) = (  0.5333334  0.4666666  0.2919459  )
       187           N   tau( 187) = (  0.5333334  0.4666666  0.6252792  )
       188           N   tau( 188) = (  0.5333334  0.4666666  0.9586126  )
       189           N   tau( 189) = (  0.5333334  0.6666666  0.2919459  )
       190           N   tau( 190) = (  0.5333334  0.6666666  0.6252792  )
       191           N   tau( 191) = (  0.5333334  0.6666666  0.9586126  )
       192           N   tau( 192) = (  0.5333334  0.8666666  0.2919459  )
       193           N   tau( 193) = (  0.5333334  0.8666666  0.6252792  )
       194           N   tau( 194) = (  0.5333334  0.8666666  0.9586126  )
       195           N   tau( 195) = (  0.7333334  0.0666666  0.2919459  )
       196           N   tau( 196) = (  0.7333334  0.0666666  0.6252792  )
       197           N   tau( 197) = (  0.7333334  0.0666666  0.9586126  )
       198           N   tau( 198) = (  0.7333334  0.2666666  0.2919459  )
       199           N   tau( 199) = (  0.7333334  0.2666666  0.6252792  )
       200           N   tau( 200) = (  0.7333334  0.2666666  0.9586126  )
       201           N   tau( 201) = (  0.7333334  0.4666666  0.2919459  )
       202           N   tau( 202) = (  0.7333334  0.4666666  0.6252792  )
       203           N   tau( 203) = (  0.7333334  0.4666666  0.9586126  )
       204           N   tau( 204) = (  0.7333334  0.6666666  0.2919459  )
       205           N   tau( 205) = (  0.7333334  0.6666666  0.6252792  )
       206           N   tau( 206) = (  0.7333334  0.6666666  0.9586126  )
       207           N   tau( 207) = (  0.7333334  0.8666666  0.2919459  )
       208           N   tau( 208) = (  0.7333334  0.8666666  0.6252792  )
       209           N   tau( 209) = (  0.7333334  0.8666666  0.9586126  )
       210           N   tau( 210) = (  0.9333334  0.0666666  0.2919459  )
       211           N   tau( 211) = (  0.9333334  0.0666666  0.6252792  )
       212           N   tau( 212) = (  0.9333334  0.0666666  0.9586126  )
       213           N   tau( 213) = (  0.9333334  0.2666666  0.2919459  )
       214           N   tau( 214) = (  0.9333334  0.2666666  0.6252792  )
       215           N   tau( 215) = (  0.9333334  0.2666666  0.9586126  )
       216           N   tau( 216) = (  0.9333334  0.4666666  0.2919459  )
       217           N   tau( 217) = (  0.9333334  0.4666666  0.6252792  )
       218           N   tau( 218) = (  0.9333334  0.4666666  0.9586126  )
       219           N   tau( 219) = (  0.9333334  0.6666666  0.2919459  )
       220           N   tau( 220) = (  0.9333334  0.6666666  0.6252792  )
       221           N   tau( 221) = (  0.9333334  0.6666666  0.9586126  )
       222           N   tau( 222) = (  0.9333334  0.8666666  0.2919459  )
       223           N   tau( 223) = (  0.9333334  0.8666666  0.6252792  )
       224           N   tau( 224) = (  0.9333334  0.8666666  0.9586126  )
       225           N   tau( 225) = (  0.0666666  0.1333334  0.1252792  )
       226           N   tau( 226) = (  0.0666666  0.1333334  0.4586126  )
       227           N   tau( 227) = (  0.0666666  0.1333334  0.7919459  )
       228           N   tau( 228) = (  0.0666666  0.3333334  0.1252792  )
       229           N   tau( 229) = (  0.0666666  0.3333334  0.4586126  )
       230           N   tau( 230) = (  0.0666666  0.3333334  0.7919459  )
       231           N   tau( 231) = (  0.0666666  0.5333334  0.1252792  )
       232           N   tau( 232) = (  0.0666666  0.5333334  0.4586126  )
       233           N   tau( 233) = (  0.0666666  0.5333334  0.7919459  )
       234           N   tau( 234) = (  0.0666666  0.7333334  0.1252792  )
       235           N   tau( 235) = (  0.0666666  0.7333334  0.4586126  )
       236           N   tau( 236) = (  0.0666666  0.7333334  0.7919459  )
       237           N   tau( 237) = (  0.0666666  0.9333334  0.1252792  )
       238           N   tau( 238) = (  0.0666666  0.9333334  0.4586126  )
       239           N   tau( 239) = (  0.0666666  0.9333334  0.7919459  )
       240           N   tau( 240) = (  0.2666666  0.1333334  0.1252792  )
       241           N   tau( 241) = (  0.2666666  0.1333334  0.4586126  )
       242           N   tau( 242) = (  0.2666666  0.1333334  0.7919459  )
       243           N   tau( 243) = (  0.2666666  0.3333334  0.1252792  )
       244           N   tau( 244) = (  0.2666666  0.3333334  0.4586126  )
       245           N   tau( 245) = (  0.2666666  0.3333334  0.7919459  )
       246           N   tau( 246) = (  0.2666666  0.5333334  0.1252792  )
       247           N   tau( 247) = (  0.2666666  0.5333334  0.4586126  )
       248           N   tau( 248) = (  0.2666666  0.5333334  0.7919459  )
       249           N   tau( 249) = (  0.2666666  0.7333334  0.1252792  )
       250           N   tau( 250) = (  0.2666666  0.7333334  0.4586126  )
       251           N   tau( 251) = (  0.2666666  0.7333334  0.7919459  )
       252           N   tau( 252) = (  0.2666666  0.9333334  0.1252792  )
       253           N   tau( 253) = (  0.2666666  0.9333334  0.4586126  )
       254           N   tau( 254) = (  0.2666666  0.9333334  0.7919459  )
       255           N   tau( 255) = (  0.4666666  0.1333334  0.1252792  )
       256           N   tau( 256) = (  0.4666666  0.1333334  0.4586126  )
       257           N   tau( 257) = (  0.4666666  0.1333334  0.7919459  )
       258           N   tau( 258) = (  0.4666666  0.3333334  0.1252792  )
       259           N   tau( 259) = (  0.4666666  0.3333334  0.4586126  )
       260           N   tau( 260) = (  0.4666666  0.3333334  0.7919459  )
       261           N   tau( 261) = (  0.4666666  0.5333334  0.1252792  )
       262           N   tau( 262) = (  0.4666666  0.5333334  0.4586126  )
       263           N   tau( 263) = (  0.4666666  0.5333334  0.7919459  )
       264           N   tau( 264) = (  0.4666666  0.7333334  0.1252792  )
       265           N   tau( 265) = (  0.4666666  0.7333334  0.4586126  )
       266           N   tau( 266) = (  0.4666666  0.7333334  0.7919459  )
       267           N   tau( 267) = (  0.4666666  0.9333334  0.1252792  )
       268           N   tau( 268) = (  0.4666666  0.9333334  0.4586126  )
       269           N   tau( 269) = (  0.4666666  0.9333334  0.7919459  )
       270           N   tau( 270) = (  0.6666666  0.1333334  0.1252792  )
       271           N   tau( 271) = (  0.6666666  0.1333334  0.4586126  )
       272           N   tau( 272) = (  0.6666666  0.1333334  0.7919459  )
       273           N   tau( 273) = (  0.6666666  0.3333334  0.1252792  )
       274           N   tau( 274) = (  0.6666666  0.3333334  0.4586126  )
       275           N   tau( 275) = (  0.6666666  0.3333334  0.7919459  )
       276           N   tau( 276) = (  0.6666666  0.5333334  0.1252792  )
       277           N   tau( 277) = (  0.6666666  0.5333334  0.4586126  )
       278           N   tau( 278) = (  0.6666666  0.5333334  0.7919459  )
       279           N   tau( 279) = (  0.6666666  0.7333334  0.1252792  )
       280           N   tau( 280) = (  0.6666666  0.7333334  0.4586126  )
       281           N   tau( 281) = (  0.6666666  0.7333334  0.7919459  )
       282           N   tau( 282) = (  0.6666666  0.9333334  0.1252792  )
       283           N   tau( 283) = (  0.6666666  0.9333334  0.4586126  )
       284           N   tau( 284) = (  0.6666666  0.9333334  0.7919459  )
       285           N   tau( 285) = (  0.8666666  0.1333334  0.1252792  )
       286           N   tau( 286) = (  0.8666666  0.1333334  0.4586126  )
       287           N   tau( 287) = (  0.8666666  0.1333334  0.7919459  )
       288           N   tau( 288) = (  0.8666666  0.3333334  0.1252792  )
       289           N   tau( 289) = (  0.8666666  0.3333334  0.4586126  )
       290           N   tau( 290) = (  0.8666666  0.3333334  0.7919459  )
       291           N   tau( 291) = (  0.8666666  0.5333334  0.1252792  )
       292           N   tau( 292) = (  0.8666666  0.5333334  0.4586126  )
       293           N   tau( 293) = (  0.8666666  0.5333334  0.7919459  )
       294           N   tau( 294) = (  0.8666666  0.7333334  0.1252792  )
       295           N   tau( 295) = (  0.8666666  0.7333334  0.4586126  )
       296           N   tau( 296) = (  0.8666666  0.7333334  0.7919459  )
       297           N   tau( 297) = (  0.8666666  0.9333334  0.1252792  )
       298           N   tau( 298) = (  0.8666666  0.9333334  0.4586126  )
       299           N   tau( 299) = (  0.8666666  0.9333334  0.7919459  )

     number of k points=     6  Gaussian smearing, width (Ry)=  0.0100
                       cart. coord. in units 2pi/alat
        k(    1) = (   0.0000000   0.0000000   0.0000000), wk =   0.2500000
        k(    2) = (   0.0000000   0.0000000  -0.5112854), wk =   0.2500000
        k(    3) = (   0.0000000  -0.5773503   0.0000000), wk =   0.5000000
        k(    4) = (   0.0000000  -0.5773503  -0.5112854), wk =   0.5000000
        k(    5) = (  -0.5000000  -0.2886751   0.0000000), wk =   0.2500000
        k(    6) = (  -0.5000000  -0.2886751  -0.5112854), wk =   0.2500000

                       cryst. coord.
        k(    1) = (   0.0000000   0.0000000   0.0000000), wk =   0.2500000
        k(    2) = (   0.0000000   0.0000000  -0.5000000), wk =   0.2500000
        k(    3) = (   0.0000000  -0.5000000   0.0000000), wk =   0.5000000
        k(    4) = (   0.0000000  -0.5000000  -0.5000000), wk =   0.5000000
        k(    5) = (  -0.5000000  -0.0000000   0.0000000), wk =   0.2500000
        k(    6) = (  -0.5000000  -0.0000000  -0.5000000), wk =   0.2500000

     Dense  grid:  2698283 G-vectors     FFT dimensions: ( 192, 192, 180)

     Smooth grid:  1930731 G-vectors     FFT dimensions: ( 180, 180, 160)

     Dynamical RAM for                 wfc:      93.08 MB

     Dynamical RAM for     wfc (w. buffer):     372.31 MB

     Dynamical RAM for           str. fact:       1.29 MB

     Dynamical RAM for           local pot:       0.00 MB

     Dynamical RAM for          nlocal pot:     223.89 MB

     Dynamical RAM for                qrad:       3.00 MB

     Dynamical RAM for          rho,v,vnew:       4.46 MB

     Dynamical RAM for               rhoin:       1.49 MB

     Dynamical RAM for            rho*nmix:      10.29 MB

     Dynamical RAM for           G-vectors:       2.64 MB

     Dynamical RAM for          h,s,v(r/c):    1917.42 MB

     Dynamical RAM for          <psi|beta>:      96.09 MB

     Dynamical RAM for                 psi:     372.31 MB

     Dynamical RAM for                hpsi:     372.31 MB

     Dynamical RAM for                spsi:     372.31 MB

     Dynamical RAM for      wfcinit/wfcrot:     246.08 MB

     Dynamical RAM for           addusdens:     108.40 MB

     Dynamical RAM for          addusforce:     204.85 MB

     Dynamical RAM for         addusstress:      64.82 MB

     Estimated static dynamical RAM per process >     615.22 MB

     Estimated max dynamical RAM per process >       3.67 GB

     Estimated total dynamical RAM >     468.85 GB

     Atomic positions and unit cell read from directory:
     ./GaN.save/
     Atomic positions from file used, from input discarded
 

     Check: negative core charge=   -0.000003

     The initial density is read from file :
     ./GaN.save/charge-density



     %%%%%%%%%%%%%%%%%%%%%%%%%%%%%%%%%%%%%%%%%%%%%%%%%%%%%%%%%%%%%%%%%%%%%%%%
     %                                                                      %
     % You are using vdW-DF, which was implemented by the Thonhauser group. %
     % Please cite the following two papers that made this development      %
     % possible and the two reviews that describe the various versions:     %
     %                                                                      %
     %   T. Thonhauser et al., PRL 115, 136402 (2015).                      %
     %   T. Thonhauser et al., PRB 76, 125112 (2007).                       %
     %   K. Berland et al., Rep. Prog. Phys. 78, 066501 (2015).             %
     %   D.C. Langreth et al., J. Phys.: Condens. Matter 21, 084203 (2009). %
     %                                                                      %
     % If you are calculating stress with vdW-DF, please also cite:         %
     %                                                                      %
     %   R. Sabatini et al., J. Phys.: Condens. Matter 24, 424209 (2012).   %
     %                                                                      %
     %%%%%%%%%%%%%%%%%%%%%%%%%%%%%%%%%%%%%%%%%%%%%%%%%%%%%%%%%%%%%%%%%%%%%%%%

     %%%%%%%%%%%%%%%%%%%%%%%%%%%%%%%%%%%%%%%%%%%%%%%%%%%%%%%%%%%%%%%%%%%%%%%%
     %                                                                      %
     %  vdW-DF NEWS:                                                        %
     %                                                                      %
     %  * vdW-DF3 is now available. DOI: 10.1021/acs.jctc.0c00471           %
     %    use with input_dft = 'vdW-DF3-opt1' or 'vdW-DF3-opt2'             %
     %                                                                      %
     %  * Unscreened and range-separated vdW-DF hybrid functionals          %
     %    DOI: 10.1063/1.4986522 and 10.1088/1361-648X/ac2ad2               %
     %    use with input_dft = 'vdW-DF-cx0' (etc) and 'vdW-DF-ahcx'         %
     %                                                                      %
     %%%%%%%%%%%%%%%%%%%%%%%%%%%%%%%%%%%%%%%%%%%%%%%%%%%%%%%%%%%%%%%%%%%%%%%%


     Carrying out vdW-DF run using the following parameters:
     Nqs    =  20  Npoints =  1024  r_max =  100.000
     q_mesh =  0.00001000  0.04494208  0.09755937  0.15916263
               0.23128650  0.31572767  0.41458969  0.53033537
               0.66584808  0.82450364  1.01025438  1.22772762
               1.48234092  1.78043706  2.12944203  2.53805004
               3.01644009  3.57652955  4.23227104  5.00000000


     -----------------------------------------------
     Non-local corr. energy    =      81.66610673 Ry
     -----------------------------------------------

     Starting wfcs from file
     Checking if some PAW data can be deallocated... 
       PAW data deallocated on   74 nodes for type:  1
       PAW data deallocated on   53 nodes for type:  2
     Calculation restarted from scf iteration #    14

     total cpu time spent up to now is        7.5 secs

     Self-consistent Calculation

     iteration # 14     ecut=    70.00 Ry     beta= 0.70
     Calculation restarted from kpoint #     3
     Davidson diagonalization with overlap

---- Real-time Memory Report at c_bands before calling an iterative solver
           519 MiB given to the printing process from OS
             0 MiB allocation reported by mallinfo(arena+hblkhd)
       1943881 MiB available memory on the node where the printing process lives
------------------
     c_bands:  1 eigenvalues not converged
     ethr =  3.16E-13,  avg # of iterations = 19.2


     -----------------------------------------------
     Non-local corr. energy    =      81.66611030 Ry
     -----------------------------------------------


     total cpu time spent up to now is     1368.9 secs

     End of self-consistent calculation

          k = 0.0000 0.0000 0.0000 (241213 PWs)   bands (ev):

    -6.8647  -6.6653  -6.6568  -6.6441  -6.6440  -6.6381  -6.6247  -6.6245
    -6.6179  -6.5246  -6.5138  -6.5137  -6.5090  -6.5089  -6.5015  -6.4939
    -6.4934  -6.4888  -6.4887  -6.4828  -6.4822  -6.4769  -6.4714  -6.4699
    -6.4523  -6.4482  -6.4477  -6.4437  -6.4310  -6.4297  -6.4296  -6.4265
    -6.4257  -6.4245  -6.4237  -6.4177  -6.4123  -6.4080  -6.4074  -6.4067
    -6.4062  -6.4008  -6.4006  -6.4002  -6.3909  -6.3883  -6.3850  -6.3849
    -6.3798  -6.3797  -6.3777  -6.3751  -6.3751  -6.3742  -6.3741  -6.3714
    -6.3694  -6.3691  -6.3689  -6.3668  -6.3665  -6.3658  -6.3656  -6.3652
    -6.3645  -6.3638  -6.3637  -6.3630  -6.3623  -6.3617  -6.3606  -6.3601
    -6.3597  -6.3580  -6.3576  -6.3575  -6.3572  -6.3532  -6.3530  -6.3523
    -6.3521  -6.3518  -6.3509  -6.3508  -6.3507  -6.3501  -6.3488  -6.3483
    -6.3479  -6.3471  -6.3422  -6.3417  -6.3398  -6.3380  -6.3378  -6.3374
    -6.3357  -6.3329  -6.3325  -6.3320  -6.3310  -6.3303  -6.3297  -6.3292
    -6.3290  -6.3289  -6.3285  -6.3261  -6.3261  -6.3259  -6.3256  -6.3253
    -6.3251  -6.3248  -6.3244  -6.3239  -6.3234  -6.3212  -6.3206  -6.3205
    -6.3200  -6.3199  -6.3187  -6.3182  -6.3174  -6.3169  -6.3167  -6.3167
    -6.3159  -6.3157  -6.3151  -6.3124  -6.3119  -6.3114  -6.3109  -6.3103
    -6.3098  -6.3080  -6.3061  -6.3055  -6.3055  -6.3052  -6.3050  -6.3044
    -6.3024  -6.3024  -6.3019  -6.3014  -6.3010  -5.4897  -5.4572  -5.4571
    -5.4496  -5.4398  -5.4397  -5.4199  -5.4164  -5.4161  -5.3978  -5.3977
    -5.3927  -5.3798  -5.3797  -5.3765  -5.3623  -5.3622  -5.3561  -5.3526
    -5.3525  -5.2776  -5.2682  -5.2682  -5.2649  -5.2649  -5.2602  -5.2602
    -5.2566  -5.2566  -5.2534  -5.2517  -5.2516  -5.2516  -5.2496  -5.2473
    -5.2473  -5.2464  -5.2453  -5.2453  -5.2452  -5.2432  -5.2432  -5.2427
    -5.2406  -5.2406  -5.2399  -5.2377  -5.2377  -5.2355  -5.2355  -5.2352
    -5.2344  -5.2344  -5.2340  -5.2329  -5.2329  -5.2316  -5.2308  -5.2301
    -5.2301  -5.2288  -5.2285  -5.2285  -5.2283  -5.2264  -5.2261  -5.2261
    -5.2239  -5.2239  -5.2236  -5.2231  -5.2231  -5.2223  -5.2223  -5.2219
    -5.2219  -5.2208  -5.2197  -5.2196  -5.2196  -5.2194  -5.2194  -5.2176
    -5.2173  -5.2173  -5.2167  -5.2162  -5.2162  -5.2151  -5.2143  -5.2143
    -5.2139  -5.2138  -5.2113  -5.2110  -5.2107  -5.2106  -5.2105  -5.2105
    -5.2095  -5.2095  -5.2087  -5.2087  -5.2082  -5.2077  -5.2072  -5.2072
    -5.2072  -5.2055  -5.2046  -5.2046  -5.2042  -5.2036  -5.2036  -5.2033
    -5.2033  -5.2024  -5.2020  -5.2020  -5.2018  -5.1999  -5.1994  -5.1994
    -5.1990  -5.1987  -5.1985  -5.1985  -5.1985  -5.1974  -5.1974  -5.1959
    -5.1953  -5.1947  -5.1947  -5.1941  -5.1935  -5.1935  -5.1930  -5.1929
    -5.1921  -5.1919  -5.1919  -5.1908  -5.1907  -5.1907  -5.1906  -5.1901
    -5.1901  -5.1891  -5.1890  -5.1889  -5.1880  -5.1867  -5.1866  -5.1865
    -5.1860  -5.1860  -5.1853  -5.1848  -5.1847  -5.1844  -5.1842  -5.1842
    -5.1837  -5.1830  -5.1829  -5.1825  -5.1820  -5.1815  -5.1815  -5.1810
    -5.1806  -5.1806  -5.1784  -5.1782  -5.1782  -5.1773  -5.1773  -5.1758
    -5.1757  -5.1757  -5.1756  -5.1756  -5.1753  -5.1753  -5.1751  -5.1740
    -5.1740  -5.1740  -5.1734  -5.1734  -5.1721  -5.1721  -5.1706  -5.1706
    -5.1699  -5.1696  -5.1695  -5.1692  -5.1663  -5.1663  -5.1654  -5.1652
    -5.1652  -5.1648  -5.1642  -5.1642  -5.1630  -5.1628  -5.1627  -5.1627
    -5.1619  -5.1619  -5.1606  -5.1599  -5.1598  -5.1598  -5.1586  -5.1586
    -5.1585  -5.1584  -5.1577  -5.1576  -5.1569  -5.1569  -5.1565  -5.1565
    -5.1565  -5.1548  -5.1548  -5.1546  -5.1539  -5.1538  -5.1537  -5.1532
    -5.1532  -5.1531  -5.1524  -5.1523  -5.1518  -5.1507  -5.1482  -5.1482
    -5.1461  -5.1460  -5.1442  -5.1442  -5.1438  -5.1415  -5.1407  -5.1407
    -5.1382  -5.1378  -5.1349  -5.1344  -5.1343  -5.1327  -5.1323  -5.1323
    -5.1320  -5.1316  -5.1304  -5.1304  -5.1296  -5.1296  -5.1260  -5.1245
    -5.1244  -5.1219  -5.1219  -5.1217  -5.1193  -5.1179  -5.1178  -5.1160
    -5.1160  -5.1156  -5.1153  -5.1142  -5.1142  -5.1123  -5.1118  -5.1118
    -5.1101  -5.1101  -5.1095  -5.1086  -5.1085  -5.1080  -5.1068  -5.1068
    -5.1065  -5.1065  -5.1050  -5.1046  -5.1046  -5.1042  -5.1041  -5.1036
    -5.1018  -5.1017  -5.1000  -5.1000  -5.1000  -5.0996  -5.0989  -5.0989
    -5.0984  -5.0978  -5.0977  -5.0977  -5.0973  -5.0973  -5.0968  -5.0968
    -5.0955  -5.0953  -5.0952  -5.0951  -5.0946  -5.0938  -5.0938  -5.0935
    -5.0935  -5.0930  -5.0927  -5.0926  -5.0917  -5.0917  -5.0916  -5.0913
    -5.0908  -5.0907  -5.0907  -5.0905  -5.0889  -5.0889  -5.0884  -5.0883
    -5.0878  -5.0865  -5.0862  -5.0857  -5.0857  -5.0850  -5.0848  -5.0847
    -5.0847  -5.0837  -5.0837  -5.0836  -5.0832  -5.0832  -5.0829  -5.0820
    -5.0819  -5.0809  -5.0809  -5.0804  -5.0804  -5.0788  -5.0775  -5.0774
    -5.0774  -5.0772  -5.0772  -5.0766  -5.0753  -5.0753  -5.0749  -5.0742
    -5.0742  -5.0737  -5.0729  -5.0727  -5.0727  -5.0718  -5.0717  -5.0717
    -5.0715  -5.0714  -5.0702  -5.0702  -5.0700  -5.0696  -5.0696  -5.0695
    -5.0681  -5.0681  -5.0679  -5.0670  -5.0670  -5.0662  -5.0662  -5.0660
    -5.0658  -5.0658  -5.0656  -5.0656  -5.0651  -5.0649  -5.0649  -5.0643
    -5.0642  -5.0638  -5.0636  -5.0626  -5.0626  -5.0625  -5.0620  -5.0616
    -5.0616  -5.0610  -5.0606  -5.0606  -5.0598  -5.0593  -5.0592  -5.0587
    -5.0577  -5.0577  -5.0574  -5.0572  -5.0564  -5.0564  -5.0561  -5.0561
    -5.0555  -5.0555  -5.0544  -5.0539  -5.0536  -5.0535  -5.0531  -5.0531
    -5.0526  -5.0526  -5.0523  -5.0523  -5.0522  -5.0522  -5.0506  -5.0506
    -5.0502  -5.0490  -5.0485  -5.0485  -5.0484  -5.0469  -5.0456  -5.0456
    -5.0448  -5.0444  -5.0444  -5.0427  -5.0426  -5.0421  -5.0404  -5.0404
    -5.0399  -5.0396  -5.0395  -5.0395  -5.0383  -5.0383  -5.0376  -5.0367
    -5.0367  -5.0366  -5.0351  -5.0351  -5.0337  -5.0336  -5.0326  -5.0326
    -5.0320  -5.0319  -5.0317  -5.0317  -5.0312  -5.0299  -5.0299  -5.0283
    -5.0280  -5.0280  -5.0278  -5.0274  -5.0273  -5.0271  -5.0266  -5.0257
    -5.0257  -5.0248  -5.0236  -5.0236  -5.0225  -5.0221  -5.0220  -5.0217
    -5.0217  -5.0216  -5.0193  -5.0193  -5.0170  -5.0167  -5.0166  -5.0161
    -5.0155  -5.0155  -5.0150  -5.0150  -5.0146  -5.0135  -5.0134  -5.0133
    -5.0125  -5.0118  -5.0118  -5.0117  -5.0104  -5.0104  -5.0101  -5.0099
    -5.0099  -5.0096  -5.0087  -5.0077  -5.0076  -5.0073  -5.0073  -5.0072
    -5.0072  -5.0070  -5.0058  -5.0058  -5.0056  -5.0050  -5.0049  -5.0049
    -5.0040  -5.0040  -5.0038  -5.0032  -5.0031  -5.0031  -5.0031  -5.0022
    -5.0015  -5.0015  -5.0012  -5.0011  -5.0003  -5.0003  -4.9999  -4.9999
    -4.9998  -4.9997  -4.9995  -4.9995  -4.9984  -4.9984  -4.9983  -4.9978
    -4.9974  -4.9973  -4.9965  -4.9965  -4.9963  -4.9951  -4.9951  -4.9950
    -4.9947  -4.9945  -4.9945  -4.9942  -4.9942  -4.9931  -4.9912  -4.9912
    -4.9903  -4.9878  -4.9878  -4.9876  -4.9872  -4.9871  -4.9869  -4.9865
    -4.9864  -4.9864  -4.9860  -4.9859  -4.9834  -4.9833  -4.9832  -4.9814
    -4.9811  -4.9811  -4.9809  -4.9803  -4.9795  -4.9785  -4.9785  -4.9772
    -4.9772  -4.9702  -4.9702  -4.9696  -4.9648  -4.9647  -4.9645  -4.7902
    -4.7839  -4.7838  -4.7794  -4.7794  -4.7673  -4.7673  -4.7652  -4.7652
    -4.7607  -4.7602  -4.7242  -4.3309  -4.3307  -4.3280  -4.3272  -4.3270
    -4.3153  -4.2902  -4.2726  -4.0917  -4.0915  -4.0886  -4.0885  -4.0877
    -4.0864  -4.0845  -4.0844  -4.0806  -4.0802  -4.0800  -4.0506  -4.0228
    -4.0224  -4.0131  -4.0105  -4.0101  -4.0054  -3.9689  -3.9618  -3.9617
    -3.9546  -3.9545  -3.9417  -3.9416  -3.9384  -3.9383  -3.9340  -3.9329
    -3.8941  -3.8227  -3.8224  -3.8210  -3.8207  -3.8160  -3.8101  -3.8098
    -3.8069  -3.8061  -3.8059  -3.8055  -3.7039  -3.5126  -3.4062  -3.4061
    -3.4033  -3.4008  -3.4007  -3.3961  -3.3949  -3.3946  -3.3886  -3.3881
    -3.3880  -3.3874  -3.3865  -3.3863  -3.3848  -3.3733  -3.3732  -3.3360
    -3.3005  -3.3004  -3.2974  -3.2914  -3.2914  -3.2884  -3.2834  -3.2813
    -3.2803  -3.2801  -3.2769  -3.2769  -3.2743  -3.2742  -3.2697  -3.2690
    -3.2687  -3.2653  -3.2642  -3.2641  -3.2615  -3.2589  -3.2581  -3.2578
    -3.2556  -3.2555  -3.2402  -3.2402  -3.2339  -3.1144  -3.0746  -3.0674
    -3.0673  -3.0668  -3.0667  -3.0573  -3.0560  -3.0538  -3.0538  -3.0505
    -3.0505  -2.9898  -2.9615  -2.9611  -2.9483  -2.9365  -2.9364  -2.9236
    -2.9224  -2.9222  -2.9165  -2.9163  -2.9108  -2.8990  -2.8973  -2.8971
    -2.8953  -2.8942  -2.8941   2.0762   2.3041   2.5540   2.5542   2.5688
     2.5690   2.5744   2.5801   2.6062   2.6069   2.6082   2.6193   2.6252
     2.6252   2.6271   2.6285   2.6287   2.6307   2.6310   2.6325   2.6326
     2.6331   2.6348   2.6364   2.6378   2.6379   2.6386   2.6388   2.6742
     2.6788   2.6793   2.7131   2.7914   2.7916   2.7964   2.8069   2.8077
     2.8079   2.9408   2.9453   2.9454   2.9549   2.9555   2.9556   2.9922
     2.9939   2.9940   2.9968   3.0010   3.0011   3.0024   3.0036   3.0036
     3.0458   3.0460   3.0554   3.1358   3.1361   3.1364   3.1476   3.1478
     3.1624   3.2385   3.2385   3.2412   3.2424   3.2425   3.2425   3.2426
     3.2427   3.2574   3.2576   3.2621   3.2716   3.2817   3.2824   3.2909
     3.2910   3.2916   3.2945   3.2952   3.2964   3.3230   3.3697   3.3702
     3.4582   3.6125   3.6179   3.6989   3.6996   3.6996   3.7015   3.7035
     3.7036   3.7105   3.7106   3.7159   3.7160   3.7177   3.7178   3.7221
     3.7230   3.7413   3.7414   3.8033   3.8456   3.9350   3.9353   3.9521
     3.9523   3.9525   3.9575   3.9863   3.9863   3.9872   3.9892   3.9893
     3.9899   3.9910   3.9911   4.0365   4.0592   4.0593   4.4355   4.5319
     4.5331   4.5331   4.5494   4.5497   4.5852   4.5855   4.5934   4.6017
     4.6037   4.6039   4.6220   4.6228   4.6229   4.6496   4.6501   4.6671
     4.7180   4.7182   4.7195   4.7448   4.7449   4.7601   4.9864   4.9912
     4.9912   5.0056   5.0056   5.0081   5.0090   5.0115   5.0115   5.0244
     5.0681   5.0681   5.1370   5.4687   5.4715   5.4716   5.4743   5.4808
     5.4808   5.4823   5.4824   5.4910   5.4910   5.4930   5.4931   5.4974
     5.4983   5.5147   5.5148   5.5525   5.6663   5.6849   5.6856   5.6863
     5.7057   5.7063   5.8507   5.8682   5.8686   5.8726   5.8857   5.8859
     5.8919   5.9129   5.9134   5.9229   5.9231   5.9264   5.9265   5.9269
     5.9295   5.9327   5.9329   5.9705   6.0001   6.0006   6.0009   6.0028
     6.0029   6.0047   6.0049   6.0051   6.0067   6.0073   6.0075   6.0100
     6.0104   6.0112   6.0113   6.0118   6.0126   6.0140   6.0142   6.0143
     6.0151   6.0268   6.0269   6.0337   6.0338   6.0440   6.0510   6.0521
     6.0522   6.0526   6.0527   6.0552   6.0552   6.1475   6.1596   6.1600
     6.2770   6.3026   6.3207   6.3213   6.3233   6.3237   6.3242   6.3465
     6.3486   6.3488   6.3566   6.3570   6.3571   6.3593   6.3594   6.3635
     6.3966   6.4263   6.4266   6.4769   6.4916   6.4917   6.4928   6.5004
     6.5032   6.5033   6.5512   6.5581   6.5586   6.5668   6.5763   6.5768
     6.6473   6.6511   6.6513   6.6537   6.6550   6.6555   6.6557   6.6605
     6.6606   6.6621   6.6645   6.6690   6.6691   6.6710   6.6711   6.6760
     6.6763   6.6766   6.6767   6.6771   6.6775   6.7071   6.7075   6.7467
     6.7533   6.7554   6.7555   6.8065   6.8067   6.8218   6.8694   6.8725
     6.8726   6.8734   6.8735   6.8758   6.8761   6.8764   6.8765   6.8790
     7.0142   7.0144   7.1252   7.1253   7.1402   7.1407   7.1408   7.1417
     7.1477   7.1481   7.1553   7.1746   7.1943   7.1944   7.2972   7.3015
     7.3033   7.3034   7.3076   7.3087   7.3087   7.3129   7.3131   7.3166
     7.3166   7.3564   7.3869   7.3996   7.3996   7.4013   7.4014   7.4050
     7.4054   7.4055   7.4068   7.4120   7.4121   7.4128   7.4130   7.4134
     7.4148   7.4150   7.4155   7.4332   7.4350   7.4359   7.4379   7.4412
     7.4414   7.4425   7.4446   7.4460   7.4460   7.4466   7.4469   7.4486
     7.4492   7.4528   7.4544   7.4625   7.4629   7.4635   7.4636   7.4637
     7.4645   7.5025   7.5726   7.5728   7.5785   7.5790   7.5791   7.6088
     7.6136   7.6137   7.6314   7.6401   7.6401   7.6436   7.6437   7.6441
     7.6444   7.6445   7.6454   7.6947   7.6947   7.7001   7.7137   7.7235
     7.7236   7.7347   7.7358   7.7359   7.7368   7.7368   7.7413   7.7704
     7.7706   7.8462   7.8473   7.8897   7.9114   7.9118   7.9123   7.9711
     7.9712   8.0216   8.0217   8.0480   8.0481   8.0818   8.0831   8.0835
     8.0858   8.0896   8.0898   8.0942   8.0944   8.0968   8.0993   8.2184
     8.3292   8.3292   8.3455   8.3455   8.3479   8.3801   8.3802   8.3989
     8.4395   8.4462   8.4464   8.4530   8.5007   8.5007   8.5173   8.5173
     8.7164   8.7613   8.7613  10.3743  11.3054  11.4000  11.4007  12.0325
    12.1134  12.2212  12.2214  12.2285  12.3188  12.3728  12.3730  12.6842
    12.8014  12.8120  12.8986  12.8988  12.9068  12.9070  12.9083  12.9136
    12.9143  12.9146  12.9179  12.9222  12.9225  12.9367  12.9787  12.9789
    12.9880  12.9880  12.9915  12.9916  12.9950  12.9976  13.0794  13.0796
    13.1876  13.2762  13.6654  13.6663  13.6682  13.6875  13.6881  13.6985
    13.8561  13.8592  13.8597  13.8606  13.8612  13.8634  13.8647  13.8661
    13.8665  13.8774  13.8790  13.8798  13.8840  13.8850  13.8944  13.8950
    13.8959  13.8965  13.8969  13.8975  13.9086  13.9090  13.9497  13.9625
    13.9828  13.9864  13.9868  14.0123  14.0137  14.0141  14.0381  14.0385
    14.0385  14.0409  14.0409  14.0412  14.0441  14.0467  14.0467  14.0853
    14.0854  14.0981  14.1084  14.1085  14.1126  14.1184  14.1186  14.1498
    14.1839  14.1840  14.1880  14.1880  14.1917  14.1953  14.1999  14.1999
    14.2012  14.2012  14.2056  14.2080  14.2080  14.2117  14.3266  14.3747
    14.3751  14.4923  14.4945  14.4947  14.5160  14.5162  14.5405  14.7897
    14.8867  14.8881  14.8885  14.8930  14.8933  14.8935  14.8987  14.8992
    14.9303  14.9304  14.9711  15.0057  15.0617  15.0617  15.0624  15.0669
    15.0670  15.0671  15.0691  15.0691  15.0893  15.1041  15.1045  15.1292
    15.1303  15.1354  15.1378  15.1395  15.1529  15.1760  15.1883  15.1883
    15.2705  15.2708  15.2805  15.3806  15.3836  15.3841  15.4080  15.4088
    15.5419  15.6934  15.7076  15.7077  15.7078  15.7288  15.7288  15.8175
    15.8248  15.8329  15.8329  15.8544  15.8544  15.9169  15.9465  15.9466
    15.9507  15.9561  15.9562  15.9592  15.9593  15.9596  15.9922  15.9924
    16.0076  16.0581  16.1232  16.1260  16.1281  16.1282  16.1285  16.1288
    16.1318  16.1321  16.1325  16.1338  16.1339  16.1342  16.1403  16.1413
    16.1415  16.1419  16.1428  16.1429  16.1439  16.1442  16.1586  16.1588
    16.1701  16.1756  16.1762  16.1787  16.1788  16.1809  16.1809  16.1835
    16.1835  16.1858  16.2344  16.2346  16.2505  16.2586  16.2687  16.2693
    16.2954  16.2956  16.3094  16.3434  16.3455  16.3529  16.3529  16.3537
    16.3538  16.3543  16.3585  16.3587  16.3609  16.3757  16.3760  16.3776
    16.3834  16.3867  16.3874  16.3874  16.3890  16.3891  16.3905  16.3907
    16.4016  16.4262  16.4263  16.4303  16.4390  16.4392  16.4421  16.4422
    16.4556  16.4623  16.4704  16.4707  16.4752  16.4755  16.4763  16.4781
    16.4784  16.4792  16.6218  16.6224  16.6531  16.6628  16.6643  16.6700
    16.6702  16.6719

     occupation numbers 
     1.0000   1.0000   1.0000   1.0000   1.0000   1.0000   1.0000   1.0000
     1.0000   1.0000   1.0000   1.0000   1.0000   1.0000   1.0000   1.0000
     1.0000   1.0000   1.0000   1.0000   1.0000   1.0000   1.0000   1.0000
     1.0000   1.0000   1.0000   1.0000   1.0000   1.0000   1.0000   1.0000
     1.0000   1.0000   1.0000   1.0000   1.0000   1.0000   1.0000   1.0000
     1.0000   1.0000   1.0000   1.0000   1.0000   1.0000   1.0000   1.0000
     1.0000   1.0000   1.0000   1.0000   1.0000   1.0000   1.0000   1.0000
     1.0000   1.0000   1.0000   1.0000   1.0000   1.0000   1.0000   1.0000
     1.0000   1.0000   1.0000   1.0000   1.0000   1.0000   1.0000   1.0000
     1.0000   1.0000   1.0000   1.0000   1.0000   1.0000   1.0000   1.0000
     1.0000   1.0000   1.0000   1.0000   1.0000   1.0000   1.0000   1.0000
     1.0000   1.0000   1.0000   1.0000   1.0000   1.0000   1.0000   1.0000
     1.0000   1.0000   1.0000   1.0000   1.0000   1.0000   1.0000   1.0000
     1.0000   1.0000   1.0000   1.0000   1.0000   1.0000   1.0000   1.0000
     1.0000   1.0000   1.0000   1.0000   1.0000   1.0000   1.0000   1.0000
     1.0000   1.0000   1.0000   1.0000   1.0000   1.0000   1.0000   1.0000
     1.0000   1.0000   1.0000   1.0000   1.0000   1.0000   1.0000   1.0000
     1.0000   1.0000   1.0000   1.0000   1.0000   1.0000   1.0000   1.0000
     1.0000   1.0000   1.0000   1.0000   1.0000   1.0000   1.0000   1.0000
     1.0000   1.0000   1.0000   1.0000   1.0000   1.0000   1.0000   1.0000
     1.0000   1.0000   1.0000   1.0000   1.0000   1.0000   1.0000   1.0000
     1.0000   1.0000   1.0000   1.0000   1.0000   1.0000   1.0000   1.0000
     1.0000   1.0000   1.0000   1.0000   1.0000   1.0000   1.0000   1.0000
     1.0000   1.0000   1.0000   1.0000   1.0000   1.0000   1.0000   1.0000
     1.0000   1.0000   1.0000   1.0000   1.0000   1.0000   1.0000   1.0000
     1.0000   1.0000   1.0000   1.0000   1.0000   1.0000   1.0000   1.0000
     1.0000   1.0000   1.0000   1.0000   1.0000   1.0000   1.0000   1.0000
     1.0000   1.0000   1.0000   1.0000   1.0000   1.0000   1.0000   1.0000
     1.0000   1.0000   1.0000   1.0000   1.0000   1.0000   1.0000   1.0000
     1.0000   1.0000   1.0000   1.0000   1.0000   1.0000   1.0000   1.0000
     1.0000   1.0000   1.0000   1.0000   1.0000   1.0000   1.0000   1.0000
     1.0000   1.0000   1.0000   1.0000   1.0000   1.0000   1.0000   1.0000
     1.0000   1.0000   1.0000   1.0000   1.0000   1.0000   1.0000   1.0000
     1.0000   1.0000   1.0000   1.0000   1.0000   1.0000   1.0000   1.0000
     1.0000   1.0000   1.0000   1.0000   1.0000   1.0000   1.0000   1.0000
     1.0000   1.0000   1.0000   1.0000   1.0000   1.0000   1.0000   1.0000
     1.0000   1.0000   1.0000   1.0000   1.0000   1.0000   1.0000   1.0000
     1.0000   1.0000   1.0000   1.0000   1.0000   1.0000   1.0000   1.0000
     1.0000   1.0000   1.0000   1.0000   1.0000   1.0000   1.0000   1.0000
     1.0000   1.0000   1.0000   1.0000   1.0000   1.0000   1.0000   1.0000
     1.0000   1.0000   1.0000   1.0000   1.0000   1.0000   1.0000   1.0000
     1.0000   1.0000   1.0000   1.0000   1.0000   1.0000   1.0000   1.0000
     1.0000   1.0000   1.0000   1.0000   1.0000   1.0000   1.0000   1.0000
     1.0000   1.0000   1.0000   1.0000   1.0000   1.0000   1.0000   1.0000
     1.0000   1.0000   1.0000   1.0000   1.0000   1.0000   1.0000   1.0000
     1.0000   1.0000   1.0000   1.0000   1.0000   1.0000   1.0000   1.0000
     1.0000   1.0000   1.0000   1.0000   1.0000   1.0000   1.0000   1.0000
     1.0000   1.0000   1.0000   1.0000   1.0000   1.0000   1.0000   1.0000
     1.0000   1.0000   1.0000   1.0000   1.0000   1.0000   1.0000   1.0000
     1.0000   1.0000   1.0000   1.0000   1.0000   1.0000   1.0000   1.0000
     1.0000   1.0000   1.0000   1.0000   1.0000   1.0000   1.0000   1.0000
     1.0000   1.0000   1.0000   1.0000   1.0000   1.0000   1.0000   1.0000
     1.0000   1.0000   1.0000   1.0000   1.0000   1.0000   1.0000   1.0000
     1.0000   1.0000   1.0000   1.0000   1.0000   1.0000   1.0000   1.0000
     1.0000   1.0000   1.0000   1.0000   1.0000   1.0000   1.0000   1.0000
     1.0000   1.0000   1.0000   1.0000   1.0000   1.0000   1.0000   1.0000
     1.0000   1.0000   1.0000   1.0000   1.0000   1.0000   1.0000   1.0000
     1.0000   1.0000   1.0000   1.0000   1.0000   1.0000   1.0000   1.0000
     1.0000   1.0000   1.0000   1.0000   1.0000   1.0000   1.0000   1.0000
     1.0000   1.0000   1.0000   1.0000   1.0000   1.0000   1.0000   1.0000
     1.0000   1.0000   1.0000   1.0000   1.0000   1.0000   1.0000   1.0000
     1.0000   1.0000   1.0000   1.0000   1.0000   1.0000   1.0000   1.0000
     1.0000   1.0000   1.0000   1.0000   1.0000   1.0000   1.0000   1.0000
     1.0000   1.0000   1.0000   1.0000   1.0000   1.0000   1.0000   1.0000
     1.0000   1.0000   1.0000   1.0000   1.0000   1.0000   1.0000   1.0000
     1.0000   1.0000   1.0000   1.0000   1.0000   1.0000   1.0000   1.0000
     1.0000   1.0000   1.0000   1.0000   1.0000   1.0000   1.0000   1.0000
     1.0000   1.0000   1.0000   1.0000   1.0000   1.0000   1.0000   1.0000
     1.0000   1.0000   1.0000   1.0000   1.0000   1.0000   1.0000   1.0000
     1.0000   1.0000   1.0000   1.0000   1.0000   1.0000   1.0000   1.0000
     1.0000   1.0000   1.0000   1.0000   1.0000   1.0000   1.0000   1.0000
     1.0000   1.0000   1.0000   1.0000   1.0000   1.0000   1.0000   1.0000
[...]
Ga            9.7336827179        1.8730514038        5.2840452555
Ga            9.7337586035        1.8732521529       10.5726995074
Ga            9.7337557212        1.8731349467       15.8598326442
Ga            8.1123093521        4.6836466672        5.2846310400
Ga            8.1119148228        4.6834188855       10.5730459305
Ga            8.1117644436        4.6833320641       15.8595440534
Ga            6.4889491372        7.4930948228        5.2840452555
Ga            6.4891609338        7.4930601670       10.5726995074
Ga            6.4890579892        7.4931162740       15.8598326442
Ga            4.8664554622       10.3020988892        5.2846575354
Ga            4.8668983922       10.3019049209       10.5729982726
Ga            4.8666227542       10.3018691886       15.8592913052
Ga            3.2437337186       13.1127353958        5.2846575354
Ga            3.2437872021       13.1132159685       10.5729982726
Ga            3.2436184381       13.1129951253       15.8592913052
Ga           12.9796362940        1.8770463880        5.2877233462
Ga           12.9776563725        1.8733300467       10.5728952950
Ga           12.9771297788        1.8741144869       15.8598367017
Ga           11.3553787829        4.6836864659        5.2847825679
Ga           11.3557689033        4.6834543205       10.5732079088
Ga           11.3558816163        4.6833825424       15.8596862678
Ga            9.7338785342        7.4922072813        5.2847825679
Ga            9.7338725506        7.4926612082       10.5732079088
Ga            9.7338667455        7.4927947095       15.8596862678
Ga            8.1153856831       10.3021755870        5.2877233462
Ga            8.1111772764       10.3023190954       10.5728952950
Ga            8.1115933247       10.3014708318       15.8598367017
Ga            6.4865305352       13.1112073398        5.2866313483
Ga            6.4891033062       13.1126927299       10.5727943270
Ga            6.4873418863       13.1116757736       15.8581811151
N             1.6222783051        0.9366213452        9.9264288776
N             1.6223159261        0.9366430657       15.2067298304
N             0.0099341143        3.7354487646        4.6290835810
N             0.0003024805        3.7454003299        9.9182886979
N             0.0003578294        3.7462847676       15.2097719757
N            -1.6198941901        6.5527367772        4.6312562943
N            -1.6221821623        6.5561877174        9.9195782337
N            -1.6221941379        6.5561924205       15.2076173034
N            -3.2464803506        9.3700666502        4.6312562943
N            -3.2446357349        9.3663597380        9.9195782337
N            -3.2446376496        9.3663470154       15.2076173034
N            -4.8714091870       12.1901833719        4.6290835810
N            -4.8676066956       12.1768663498        9.9182886979
N            -4.8668130756       12.1764720644       15.2097719757
N             4.8517369157        0.9338408729        4.6290080162
N             4.8657786022        0.9369226577        9.9180773084
N             4.8664126933        0.9364951657       15.2095551005
N             3.2345996507        3.7348047787        4.6290080162
N             3.2442893979        3.7454243435        9.9180773084
N             3.2442362245        3.7461872285       15.2095551005
N             1.6223069877        6.5562030507        4.6307345572
N             1.6223050429        6.5565040614        9.9205403541
N             1.6222988726        6.5573666118       15.2068619038
N            -0.0002538661        9.3660564696        4.6308818101
N             0.0000112462        9.3662095322        9.9198127314
N             0.0001442860        9.3662863428       15.2070889247
N            -1.6223778808       12.1761620977        4.6307345572
N            -1.6221181704       12.1760099081        9.9205403541
N            -1.6213742649       12.1755732893       15.2068619038
N             8.1070124858        0.9363420642        4.6311099534
N             8.1111488730        0.9366395168        9.9194712651
N             8.1111419355        0.9366480535       15.2075006907
N             6.4877590987        3.7457079912        4.6311618518
N             6.4888889327        3.7463603012        9.9209304675
N             6.4890346244        3.7464444163       15.2075445533
N             4.8644035311        6.5527055233        4.6311099534
N             4.8667293262        6.5561390134        9.9194712651
N             4.8667332504        6.5561287370       15.2075006907
N             3.2447157357        9.3660387410        4.6310148743
N             3.2445042075        9.3661569182        9.9199612981
N             3.2443671175        9.3662461292       15.2072278928
N             1.6222155814       12.1762914437        4.6310148743
N             1.6222121618       12.1760491663        9.9199612981
N             1.6222208757       12.1758858374       15.2072278928
N            11.3601208791        0.9363473509        4.6311116565
N            11.3561458424        0.9367006075        9.9195116909
N            11.3561582733        0.9367174168       15.2075267516
N             9.7337451614        3.7461141441        4.6312805397
N             9.7337468152        3.7464133864        9.9200523861
N             9.7337317905        3.7463806494       15.2077413671
N             8.1111038687        6.5566113056        4.6312805397
N             8.1113638470        6.5564631166        9.9200523861
N             8.1113279836        6.5564664733       15.2077413671
N             6.4909623061        9.3699773897        4.6311116565
N             6.4892807169        9.3663582787        9.9195116909
N             6.4893014896        9.3663606395       15.2075267516
N             4.8671807232       12.1762711401        4.6309563918
N             4.8667260180       12.1760086159        9.9207043957
N             4.8660850121       12.1756385310       15.2070616389
N            14.6155810355        0.9340491298        4.6290379860
N            14.6014800806        0.9368718217        9.9179797182
N            14.6008321918        0.9364920783       15.2094803114
N            12.9793658688        3.7455825298        4.6309632589
N            12.9783251544        3.7463343875        9.9207873680
N            12.9781487053        3.7464357236       15.2073678330
N            11.3562638912        6.5565405438        4.6310902048
N            11.3559868434        6.5563805902        9.9198667809
N            11.3560170361        6.5563980220       15.2075525554
N             9.7334538310        9.3676670964        4.6309632589
N             9.7335846017        9.3663898825        9.9207873680
N             9.7335841367        9.3661864050       15.2073678330
N             8.1167020664       12.1904376968        4.6290379860
N             8.1120961118       12.1768145657        9.9179797182
N             8.1114433000       12.1764433493       15.2094803114
N             0.0004763577        1.8729102666        1.9953512924
N             0.0066575750        1.8694284159        7.2710733918
N            -0.0005161537        1.8735929848       12.5652014702
N            -1.6221344388        4.6829496659        1.9873890619
N            -1.6215407006        4.6818578243        7.2756897967
N            -1.6218794558        4.6830187868       12.5637175054
N            -3.2444850024        7.4930028996        1.9870303831
N            -3.2445152287        7.4929854484        7.2750902375
N            -3.2445053295        7.4929911637       12.5636230150
N            -4.8668872069       10.3030263182        1.9873890619
N            -4.8675359003       10.3040864314        7.2756897967
N            -4.8666998549       10.3032125795       12.5637175054
N            -6.4891473139       13.1132681882        1.9953512924
N            -6.4890720764       13.1203622048        7.2710733918
N            -6.4890523183       13.1120672890       12.5652014702
N             3.2436881097        1.8727468822        1.9959613594
N             3.2379208592        1.8694171585        7.2717743583
N             3.2450854838        1.8735536565       12.5654799082
N             1.6221994918        4.6848795511        1.9852484936
N             1.6221572565        4.6854919165        7.2756091683
N             1.6222248399        4.6828271402       12.5641047782
N            -0.0001440304        7.4930822127        1.9865176465
N            -0.0000411086        7.4929676633        7.2759194971
N            -0.0001319079        7.4929951240       12.5638570657
N            -1.6222458292       10.3026449432        1.9865176465
N            -1.6222935709       10.3027913509        7.2759194971
N            -1.6223151889       10.3026989861       12.5638570657
N            -3.2430489119       13.1117369781        1.9852484936
N            -3.2425397056       13.1113942185        7.2756091683
N            -3.2448136779       13.1127851356       12.5641047782
N             6.4889478034        1.8732737735        1.9874603801
N             6.4877134820        1.8732350310        7.2757771814
N             6.4889120170        1.8730510191       12.5638191344
N             4.8667742578        4.6829607733        1.9874603801
N             4.8661235451        4.6819111909        7.2757771814
N             4.8665634536        4.6830411585       12.5638191344
N             3.2447811873        7.4931637332        1.9863026994
N             3.2446850363        7.4930558394        7.2756999739
N             3.2447310073        7.4930682995       12.5636798525
N             1.6223438666       10.3028678572        1.9868535357
N             1.6223503640       10.3028716085        7.2756599074
N             1.6223588602       10.3028765138       12.5637041707
N             0.0002873785       13.1127918550        1.9863026994
N             0.0001458642       13.1127625327        7.2756999739
N             0.0001796404       13.1127961147       12.5636798525
N             9.7335561858        1.8732231678        1.9871244730
N             9.7335528855        1.8732423970        7.2752025318
N             9.7335958188        1.8732259262       12.5637400769
N             8.1110112158        4.6828971878        1.9869302429
N             8.1106378504        4.6826816252        7.2757307608
N             8.1114351780        4.6831419625       12.5638789889
N             6.4890346231        7.4928993608        1.9871244730
N             6.4890496260        7.4928868880        7.2752025318
N             6.4890568285        7.4929323047       12.5637400769
N             4.8666464302       10.3025754670        1.9863282019
N             4.8667014309       10.3027170528        7.2757262573
N             4.8667648959       10.3026959583       12.5637087576
N             3.2442419311       13.1126624900        1.9863282019
N             3.2443920484       13.1126393291        7.2757262573
N             3.2444055125       13.1127048387       12.5637087576
N            12.9783424368        1.8731996109        1.9876466682
N            12.9795476072        1.8731886404        7.2759755812
N            12.9784776009        1.8730098197       12.5639824392
N            11.3562361078        4.6829489640        1.9870561826
N            11.3566054180        4.6827317321        7.2758757754
N            11.3558322534        4.6831861336       12.5640254848
N             9.7336685013        7.4933184974        1.9870561826
N             9.7336650280        7.4937469453        7.2758757754
N             9.7336719690        7.4928501644       12.5640254848
N             8.1114073479       10.3029784623        1.9876466682
N             8.1120004323       10.3040276558        7.2759755812
N             8.1113105659       10.3031904136       12.5639824392
N             6.4874365068       13.1117304027        1.9852216379
N             6.4869401357       13.1114438228        7.2755718781
N             6.4893324884       13.1128250482       12.5640857330



     Writing config-only to output data dir ./GaN.save/
     NEW-OLD atomic charge density approx. for the potential

     Check: negative core charge=   -0.000003


     -----------------------------------------------
     Non-local corr. energy    =      81.66612862 Ry
     -----------------------------------------------


     total cpu time spent up to now is   140689.9 secs

     Self-consistent Calculation

     iteration #  1     ecut=    70.00 Ry     beta= 0.70
     Davidson diagonalization with overlap

---- Real-time Memory Report at c_bands before calling an iterative solver
          3486 MiB given to the printing process from OS
             0 MiB allocation reported by mallinfo(arena+hblkhd)
       1868912 MiB available memory on the node where the printing process lives
------------------
     ethr =  1.00E-06,  avg # of iterations =  3.0

     Threshold (ethr) on eigenvalues was too large:
     Diagonalizing with lowered threshold

     Davidson diagonalization with overlap

---- Real-time Memory Report at c_bands before calling an iterative solver
          3486 MiB given to the printing process from OS
             0 MiB allocation reported by mallinfo(arena+hblkhd)
       1869375 MiB available memory on the node where the printing process lives
------------------
     c_bands:  1 eigenvalues not converged
     c_bands:  1 eigenvalues not converged
     ethr =  2.55E-08,  avg # of iterations = 18.8


     -----------------------------------------------
     Non-local corr. energy    =      81.66605849 Ry
     -----------------------------------------------


     total cpu time spent up to now is   143438.6 secs

     total energy              =  -46813.58761449 Ry
     estimated scf accuracy    <       0.00070431 Ry

     iteration #  2     ecut=    70.00 Ry     beta= 0.70
     Davidson diagonalization with overlap

---- Real-time Memory Report at c_bands before calling an iterative solver
          3486 MiB given to the printing process from OS
             0 MiB allocation reported by mallinfo(arena+hblkhd)
       1859185 MiB available memory on the node where the printing process lives
------------------
     c_bands:  2 eigenvalues not converged
     ethr =  2.61E-08,  avg # of iterations = 18.3


     -----------------------------------------------
     Non-local corr. energy    =      81.66604524 Ry
     -----------------------------------------------


     total cpu time spent up to now is   147055.5 secs

     total energy              =  -46813.58762917 Ry
     estimated scf accuracy    <       0.00052318 Ry

     iteration #  3     ecut=    70.00 Ry     beta= 0.70
     Davidson diagonalization with overlap

---- Real-time Memory Report at c_bands before calling an iterative solver
          3486 MiB given to the printing process from OS
             0 MiB allocation reported by mallinfo(arena+hblkhd)
       1859163 MiB available memory on the node where the printing process lives
------------------
     c_bands:  1 eigenvalues not converged
     c_bands:  1 eigenvalues not converged
     ethr =  1.94E-08,  avg # of iterations = 18.7


     -----------------------------------------------
     Non-local corr. energy    =      81.66603274 Ry
     -----------------------------------------------


     total cpu time spent up to now is   151789.6 secs

     total energy              =  -46813.58756360 Ry
     estimated scf accuracy    <       0.00310718 Ry

     iteration #  4     ecut=    70.00 Ry     beta= 0.70
     Davidson diagonalization with overlap

---- Real-time Memory Report at c_bands before calling an iterative solver
          3486 MiB given to the printing process from OS
             0 MiB allocation reported by mallinfo(arena+hblkhd)
       1859164 MiB available memory on the node where the printing process lives
------------------
     c_bands:  1 eigenvalues not converged
     c_bands:  1 eigenvalues not converged

     Maximum CPU time exceeded

     max_seconds     =  154800.00
     elapsed seconds =  155920.12
     Calculation stopped in k-point loop, point #     3
     Calculation stopped in scf loop at iteration #     3

     Writing config to output data dir ./GaN.save/
 
     init_run     :      5.45s CPU      6.14s WALL (       1 calls)
     electrons    : 146587.01s CPU 147806.31s WALL (       5 calls)
     update_pot   :     11.64s CPU     11.86s WALL (       4 calls)
     forces       :    382.18s CPU    387.60s WALL (       4 calls)
     stress       :   7538.87s CPU   7606.98s WALL (       4 calls)

     Called by init_run:
     wfcinit      :      0.60s CPU      0.68s WALL (       1 calls)
     potinit      :      2.00s CPU      2.27s WALL (       1 calls)
     hinit0       :      1.19s CPU      1.32s WALL (       1 calls)

     Called by electrons:
     c_bands      : 144965.45s CPU 146164.19s WALL (      50 calls)
     sum_band     :   1521.68s CPU   1543.16s WALL (      49 calls)
     v_of_rho     :     46.60s CPU     49.02s WALL (      51 calls)
     v_h          :      0.44s CPU      0.44s WALL (      51 calls)
     v_xc         :     53.25s CPU     56.10s WALL (      59 calls)
     newd         :     14.02s CPU     18.84s WALL (      51 calls)
     PAW_pot      :     44.00s CPU     44.35s WALL (      55 calls)
     mix_rho      :      2.37s CPU      2.52s WALL (      49 calls)
     vdW_kernel   :      0.25s CPU      0.25s WALL (       1 calls)

     Called by c_bands:
     init_us_2    :     76.66s CPU     77.61s WALL (     331 calls)
     init_us_2:cp :     76.66s CPU     77.61s WALL (     331 calls)
     cegterg      : 128949.75s CPU 130014.68s WALL (     148 calls)

     Called by sum_band:
     sum_band:wei :      0.20s CPU      0.21s WALL (      49 calls)
     sum_band:loo :   1503.71s CPU   1515.24s WALL (      49 calls)
     sum_band:buf :     18.10s CPU     18.33s WALL (     147 calls)
     sum_band:ini :     38.19s CPU     38.63s WALL (     147 calls)
     sum_band:cal :   1123.68s CPU   1131.05s WALL (     159 calls)
     sum_band:bec :      8.93s CPU      9.05s WALL (     159 calls)
     addusdens    :     13.12s CPU     17.96s WALL (      49 calls)
     addusd:skk   :      1.91s CPU      4.10s WALL (      98 calls)
     addusd:dgemm :      7.64s CPU     10.08s WALL (      98 calls)
     addusd:qvan2 :      2.46s CPU      2.49s WALL (      98 calls)

     Called by *egterg:
     cdiaghg      : 109964.17s CPU 110643.61s WALL (    2167 calls)
     cegterg:over :   3813.64s CPU   3906.14s WALL (    2040 calls)
     cegterg:upda :   2354.80s CPU   2391.36s WALL (    2040 calls)
     cegterg:last :   1092.07s CPU   1099.67s WALL (     148 calls)
     h_psi        :   7801.14s CPU   7915.98s WALL (    2188 calls)
     s_psi        :   2786.01s CPU   2828.99s WALL (    2188 calls)
     g_psi        :      5.99s CPU      6.08s WALL (    2040 calls)

     Called by h_psi:
     h_psi:calbec :   2961.18s CPU   2982.06s WALL (    2188 calls)
     vloc_psi     :   2021.91s CPU   2042.14s WALL (    2188 calls)
     add_vuspsi   :   2784.99s CPU   2832.73s WALL (    2188 calls)

     General routines
     calbec       :   4813.79s CPU   4846.53s WALL (    2407 calls)
     fft          :     24.11s CPU     24.41s WALL (    3888 calls)
     ffts         :      0.61s CPU      0.63s WALL (     100 calls)
     fftw         :   2224.63s CPU   2247.66s WALL ( 1498676 calls)
     interpolate  :      0.64s CPU      0.65s WALL (      51 calls)
     davcio       :      0.01s CPU      3.40s WALL (      12 calls)
 
     Parallel routines

     PAW routines
     PAW_pot      :     44.00s CPU     44.35s WALL (      55 calls)
     PAW_symme    :      0.23s CPU      0.24s WALL (     103 calls)
 
     PWSCF        :   1d18h57m CPU   1d19h18m WALL

 
   This run was terminated on:   3:11:54  29Apr2024            

=------------------------------------------------------------------------------=
   JOB DONE.
=------------------------------------------------------------------------------=
