
     Program PWSCF v.7.1 starts on 20May2024 at 10:42:18 

     This program is part of the open-source Quantum ESPRESSO suite
     for quantum simulation of materials; please cite
         "P. Giannozzi et al., J. Phys.:Condens. Matter 21 395502 (2009);
         "P. Giannozzi et al., J. Phys.:Condens. Matter 29 465901 (2017);
         "P. Giannozzi et al., J. Chem. Phys. 152 154105 (2020);
          URL http://www.quantum-espresso.org", 
     in publications or presentations arising from this work. More details at
     http://www.quantum-espresso.org/quote

     Parallel version (MPI & OpenMP), running on     128 processor cores
     Number of MPI processes:               128
     Threads/MPI process:                     1

     MPI processes distributed on     1 nodes
     1987280 MiB available memory on the printing compute node when the environment starts
 
     Reading input from espresso.pwi
Warning: card &CELL ignored
Warning: card    CELL_DYNAMICS    = 'BFGS' ignored
Warning: card / ignored

     Current dimensions of program PWSCF are:
     Max number of different atomic species (ntypx) = 10
     Max number of k-points (npk) =  40000
     Max angular momentum in pseudopotentials (lmaxx) =  4
     file Ga.pbe-dn-kjpaw_psl.1.0.0.UPF: wavefunction(s)  4S renormalized
     file N.pbe-n-kjpaw_psl.1.0.0.UPF: wavefunction(s)  2S renormalized

     **************************************************************************
     Initializing libbeef V0.1.2 with the BEEF-vdW functional.
     Citation: Wellendorff et al., PRB 85, 235149 (2012).
     **************************************************************************


     IMPORTANT: XC functional enforced from input :
     Exchange-correlation= BEEF-VDW
                           (   1   4  43  14   2   0   0)
     Any further DFT definition will be discarded
     Please, verify this is what you really want

 
     K-points division:     npool     =       2
     R & G space division:  proc/nbgrp/npool/nimage =      64
     Subspace diagonalization in iterative solution of the eigenvalue problem:
     a serial algorithm will be used

 
     Parallelization info
     --------------------
     sticks:   dense  smooth     PW     G-vecs:    dense   smooth      PW
     Min         354     283     73                42160    30167    3987
     Max         356     285     74                42163    30170    3996
     Sum       22693   18145   4705              2698283  1930731  255309
 
     Using Slab Decomposition
 


     bravais-lattice index     =            4
     lattice parameter (alat)  =      30.6565  a.u.
     unit-cell volume          =   24400.9461 (a.u.)^3
     number of atoms/cell      =          299
     number of atomic types    =            2
     number of electrons       =      2697.00
     number of Kohn-Sham states=         1619
     kinetic-energy cutoff     =      70.0000  Ry
     charge density cutoff     =     350.0000  Ry
     scf convergence threshold =      1.0E-07
     mixing beta               =       0.7000
     number of iterations used =            8  plain     mixing
     energy convergence thresh.=      1.0E-04
     force convergence thresh. =      1.0E-03
     Exchange-correlation= BEEF-VDW
                           (   1   4  43  14   2   0   0)
     nstep                     =           50


     celldm(1)=  30.656540  celldm(2)=   0.000000  celldm(3)=   0.977927
     celldm(4)=   0.000000  celldm(5)=   0.000000  celldm(6)=   0.000000

     crystal axes: (cart. coord. in units of alat)
               a(1) = (   1.000000   0.000000   0.000000 )  
               a(2) = (  -0.500000   0.866025   0.000000 )  
               a(3) = (   0.000000   0.000000   0.977927 )  

     reciprocal axes: (cart. coord. in units 2 pi/alat)
               b(1) = (  1.000000  0.577350 -0.000000 )  
               b(2) = (  0.000000  1.154701  0.000000 )  
               b(3) = (  0.000000 -0.000000  1.022571 )  


     PseudoPot. # 1 for Ga read from file:
     //group///packages/espresso/pseudo/psl_1.0.0/pslibrary.1.0.0/pbe/PSEUDOPOTENTIALS/Ga.pbe-dn-kjpaw_psl.1.0.0.UPF
     MD5 check sum: cd2a01e492f15b435d17032472d8505c
     Pseudo is Projector augmented-wave + core cor, Zval = 13.0
     Generated using 'atomic' code by A. Dal Corso  v.7.1
     Shape of augmentation charge: PSQ
     Using radial grid of 1205 points,  6 beta functions with: 
                l(1) =   0
                l(2) =   0
                l(3) =   1
                l(4) =   1
                l(5) =   2
                l(6) =   2
     Q(r) pseudized with 0 coefficients 


     PseudoPot. # 2 for N  read from file:
     //group///packages/espresso/pseudo/psl_1.0.0/pslibrary.1.0.0/pbe/PSEUDOPOTENTIALS/N.pbe-n-kjpaw_psl.1.0.0.UPF
     MD5 check sum: f77f775694dac7e2c3fe1c82443d1a16
     Pseudo is Projector augmented-wave + core cor, Zval =  5.0
     Generated using 'atomic' code by A. Dal Corso  v.7.1
     Shape of augmentation charge: PSQ
     Using radial grid of 1085 points,  4 beta functions with: 
                l(1) =   0
                l(2) =   0
                l(3) =   1
                l(4) =   1
     Q(r) pseudized with 0 coefficients 


     atomic species   valence    mass     pseudopotential
        Ga            13.00    69.72300     Ga( 1.00)
        N              5.00    14.00700     N ( 1.00)

      2 Sym. Ops. (no inversion) found


                                    s                        frac. trans.

      isym =  1     identity                                     

 cryst.   s( 1) = (     1          0          0      )
                  (     0          1          0      )
                  (     0          0          1      )

 cart.    s( 1) = (  1.0000000  0.0000000  0.0000000 )
                  (  0.0000000  1.0000000  0.0000000 )
                  (  0.0000000  0.0000000  1.0000000 )


      isym =  2     inv. 180 deg rotation - cryst. axis [0,1,0]  

 cryst.   s( 2) = (     1          1          0      )
                  (     0         -1          0      )
                  (     0          0          1      )

 cart.    s( 2) = (  0.5000000  0.8660254  0.0000000 )
                  (  0.8660254 -0.5000000  0.0000000 )
                  (  0.0000000  0.0000000  1.0000000 )


     point group C_s (m)    
     there are  2 classes
     the character table:

       E     s    
A'     1.00  1.00
A''    1.00 -1.00

     the symmetry operations in each class and the name of the first element:

     E        1
          identity                                               
     s        2
          inv. 180 deg rotation - cryst. axis [0,1,0]            

   Cartesian axes

     site n.     atom                  positions (alat units)
         1           Ga  tau(   1) = (   0.1000001   0.0577350   0.1627148  )
         2           Ga  tau(   2) = (   0.1000001   0.0577350   0.4886906  )
         3           Ga  tau(   3) = (   0.1000001   0.0577350   0.8146665  )
         4           Ga  tau(   4) = (   0.0000001   0.2309401   0.1627148  )
         5           Ga  tau(   5) = (   0.0000001   0.2309401   0.4886906  )
         6           Ga  tau(   6) = (   0.0000001   0.2309401   0.8146665  )
         7           Ga  tau(   7) = (  -0.0999999   0.4041451   0.1627148  )
         8           Ga  tau(   8) = (  -0.0999999   0.4041451   0.4886906  )
         9           Ga  tau(   9) = (  -0.0999999   0.4041451   0.8146665  )
        10           Ga  tau(  10) = (  -0.1999999   0.5773502   0.1627148  )
        11           Ga  tau(  11) = (  -0.1999999   0.5773502   0.4886906  )
        12           Ga  tau(  12) = (  -0.1999999   0.5773502   0.8146665  )
        13           Ga  tau(  13) = (  -0.2999999   0.7505553   0.1627148  )
        14           Ga  tau(  14) = (  -0.2999999   0.7505553   0.4886906  )
        15           Ga  tau(  15) = (  -0.2999999   0.7505553   0.8146665  )
        16           Ga  tau(  16) = (   0.3000001   0.0577350   0.1627148  )
        17           Ga  tau(  17) = (   0.3000001   0.0577350   0.4886906  )
        18           Ga  tau(  18) = (   0.3000001   0.0577350   0.8146665  )
        19           Ga  tau(  19) = (   0.2000001   0.2309401   0.1627148  )
        20           Ga  tau(  20) = (   0.2000001   0.2309401   0.4886906  )
        21           Ga  tau(  21) = (   0.2000001   0.2309401   0.8146665  )
        22           Ga  tau(  22) = (   0.1000001   0.4041451   0.1627148  )
        23           Ga  tau(  23) = (   0.1000001   0.4041451   0.4886906  )
        24           Ga  tau(  24) = (   0.1000001   0.4041451   0.8146665  )
        25           Ga  tau(  25) = (   0.0000001   0.5773502   0.1627148  )
        26           Ga  tau(  26) = (   0.0000001   0.5773502   0.4886906  )
        27           Ga  tau(  27) = (   0.0000001   0.5773502   0.8146665  )
        28           Ga  tau(  28) = (  -0.0999999   0.7505553   0.1627148  )
        29           Ga  tau(  29) = (  -0.0999999   0.7505553   0.4886906  )
        30           Ga  tau(  30) = (  -0.0999999   0.7505553   0.8146665  )
        31           Ga  tau(  31) = (   0.5000001   0.0577350   0.1627148  )
        32           Ga  tau(  32) = (   0.5000001   0.0577350   0.4886906  )
        33           Ga  tau(  33) = (   0.5000001   0.0577350   0.8146665  )
        34           Ga  tau(  34) = (   0.4000001   0.2309401   0.1627148  )
        35           Ga  tau(  35) = (   0.4000001   0.2309401   0.4886906  )
        36           Ga  tau(  36) = (   0.4000001   0.2309401   0.8146665  )
        37           Ga  tau(  37) = (   0.3000001   0.4041451   0.1627148  )
        38           Ga  tau(  38) = (   0.3000001   0.4041451   0.4886906  )
        39           Ga  tau(  39) = (   0.3000001   0.4041451   0.8146665  )
        40           Ga  tau(  40) = (   0.2000001   0.5773502   0.1627148  )
        41           Ga  tau(  41) = (   0.2000001   0.5773502   0.4886906  )
        42           Ga  tau(  42) = (   0.2000001   0.5773502   0.8146665  )
        43           Ga  tau(  43) = (   0.1000001   0.7505553   0.1627148  )
        44           Ga  tau(  44) = (   0.1000001   0.7505553   0.4886906  )
        45           Ga  tau(  45) = (   0.1000001   0.7505553   0.8146665  )
        46           Ga  tau(  46) = (   0.7000001   0.0577350   0.1627148  )
        47           Ga  tau(  47) = (   0.7000001   0.0577350   0.4886906  )
        48           Ga  tau(  48) = (   0.7000001   0.0577350   0.8146665  )
        49           Ga  tau(  49) = (   0.6000001   0.2309401   0.1627148  )
        50           Ga  tau(  50) = (   0.6000001   0.2309401   0.4886906  )
        51           Ga  tau(  51) = (   0.6000001   0.2309401   0.8146665  )
        52           Ga  tau(  52) = (   0.5000001   0.4041451   0.1627148  )
        53           Ga  tau(  53) = (   0.5000001   0.4041451   0.4886906  )
        54           Ga  tau(  54) = (   0.5000001   0.4041451   0.8146665  )
        55           Ga  tau(  55) = (   0.4000001   0.5773502   0.1627148  )
        56           Ga  tau(  56) = (   0.4000001   0.5773502   0.4886906  )
        57           Ga  tau(  57) = (   0.4000001   0.5773502   0.8146665  )
        58           Ga  tau(  58) = (   0.3000001   0.7505553   0.1627148  )
        59           Ga  tau(  59) = (   0.3000001   0.7505553   0.4886906  )
        60           Ga  tau(  60) = (   0.3000001   0.7505553   0.8146665  )
        61           Ga  tau(  61) = (   0.9000001   0.0577350   0.1627148  )
        62           Ga  tau(  62) = (   0.9000001   0.0577350   0.4886906  )
        63           Ga  tau(  63) = (   0.9000001   0.0577350   0.8146665  )
        64           Ga  tau(  64) = (   0.8000001   0.2309401   0.1627148  )
        65           Ga  tau(  65) = (   0.8000001   0.2309401   0.4886906  )
        66           Ga  tau(  66) = (   0.8000001   0.2309401   0.8146665  )
        67           Ga  tau(  67) = (   0.7000001   0.4041451   0.1627148  )
        68           Ga  tau(  68) = (   0.7000001   0.4041451   0.4886906  )
        69           Ga  tau(  69) = (   0.7000001   0.4041451   0.8146665  )
        70           Ga  tau(  70) = (   0.6000001   0.5773502   0.1627148  )
        71           Ga  tau(  71) = (   0.6000001   0.5773502   0.4886906  )
        72           Ga  tau(  72) = (   0.6000001   0.5773502   0.8146665  )
        73           Ga  tau(  73) = (   0.5000001   0.7505553   0.1627148  )
        74           Ga  tau(  74) = (   0.5000001   0.7505553   0.4886906  )
        75           Ga  tau(  75) = (   0.5000001   0.7505553   0.8146665  )
        76           Ga  tau(  76) = (  -0.0000001   0.1154701   0.3257027  )
        77           Ga  tau(  77) = (  -0.0000001   0.1154701   0.6516786  )
        78           Ga  tau(  78) = (  -0.0000001   0.1154701   0.9776544  )
        79           Ga  tau(  79) = (  -0.1000001   0.2886752   0.3257027  )
        80           Ga  tau(  80) = (  -0.1000001   0.2886752   0.6516786  )
        81           Ga  tau(  81) = (  -0.1000001   0.2886752   0.9776544  )
        82           Ga  tau(  82) = (  -0.2000001   0.4618803   0.3257027  )
        83           Ga  tau(  83) = (  -0.2000001   0.4618803   0.6516786  )
        84           Ga  tau(  84) = (  -0.2000001   0.4618803   0.9776544  )
        85           Ga  tau(  85) = (  -0.3000001   0.6350854   0.3257027  )
        86           Ga  tau(  86) = (  -0.3000001   0.6350854   0.6516786  )
        87           Ga  tau(  87) = (  -0.3000001   0.6350854   0.9776544  )
        88           Ga  tau(  88) = (  -0.4000001   0.8082905   0.3257027  )
        89           Ga  tau(  89) = (  -0.4000001   0.8082905   0.6516786  )
        90           Ga  tau(  90) = (  -0.4000001   0.8082905   0.9776544  )
        91           Ga  tau(  91) = (   0.1999999   0.1154701   0.3257027  )
        92           Ga  tau(  92) = (   0.1999999   0.1154701   0.6516786  )
        93           Ga  tau(  93) = (   0.1999999   0.1154701   0.9776544  )
        94           Ga  tau(  94) = (   0.0999999   0.2886752   0.3257027  )
        95           Ga  tau(  95) = (   0.0999999   0.2886752   0.6516786  )
        96           Ga  tau(  96) = (   0.0999999   0.2886752   0.9776544  )
        97           Ga  tau(  97) = (  -0.0000001   0.4618803   0.3257027  )
        98           Ga  tau(  98) = (  -0.0000001   0.4618803   0.6516786  )
        99           Ga  tau(  99) = (  -0.0000001   0.4618803   0.9776544  )
       100           Ga  tau( 100) = (  -0.1000001   0.6350854   0.3257027  )
       101           Ga  tau( 101) = (  -0.1000001   0.6350854   0.6516786  )
       102           Ga  tau( 102) = (  -0.1000001   0.6350854   0.9776544  )
       103           Ga  tau( 103) = (  -0.2000001   0.8082905   0.3257027  )
       104           Ga  tau( 104) = (  -0.2000001   0.8082905   0.6516786  )
       105           Ga  tau( 105) = (  -0.2000001   0.8082905   0.9776544  )
       106           Ga  tau( 106) = (   0.3999999   0.1154701   0.3257027  )
       107           Ga  tau( 107) = (   0.3999999   0.1154701   0.6516786  )
       108           Ga  tau( 108) = (   0.3999999   0.1154701   0.9776544  )
       109           Ga  tau( 109) = (   0.2999999   0.2886752   0.3257027  )
       110           Ga  tau( 110) = (   0.2999999   0.2886752   0.6516786  )
       111           Ga  tau( 111) = (   0.2999999   0.2886752   0.9776544  )
       112           Ga  tau( 112) = (   0.1999999   0.4618803   0.3257027  )
       113           Ga  tau( 113) = (   0.1999999   0.4618803   0.6516786  )
       114           Ga  tau( 114) = (   0.1999999   0.4618803   0.9776544  )
       115           Ga  tau( 115) = (   0.0999999   0.6350854   0.3257027  )
       116           Ga  tau( 116) = (   0.0999999   0.6350854   0.6516786  )
       117           Ga  tau( 117) = (   0.0999999   0.6350854   0.9776544  )
       118           Ga  tau( 118) = (  -0.0000001   0.8082905   0.3257027  )
       119           Ga  tau( 119) = (  -0.0000001   0.8082905   0.6516786  )
       120           Ga  tau( 120) = (  -0.0000001   0.8082905   0.9776544  )
       121           Ga  tau( 121) = (   0.5999999   0.1154701   0.3257027  )
       122           Ga  tau( 122) = (   0.5999999   0.1154701   0.6516786  )
       123           Ga  tau( 123) = (   0.5999999   0.1154701   0.9776544  )
       124           Ga  tau( 124) = (   0.4999999   0.2886752   0.3257027  )
       125           Ga  tau( 125) = (   0.4999999   0.2886752   0.6516786  )
       126           Ga  tau( 126) = (   0.4999999   0.2886752   0.9776544  )
       127           Ga  tau( 127) = (   0.3999999   0.4618803   0.3257027  )
       128           Ga  tau( 128) = (   0.3999999   0.4618803   0.6516786  )
       129           Ga  tau( 129) = (   0.3999999   0.4618803   0.9776544  )
       130           Ga  tau( 130) = (   0.2999999   0.6350854   0.3257027  )
       131           Ga  tau( 131) = (   0.2999999   0.6350854   0.6516786  )
       132           Ga  tau( 132) = (   0.2999999   0.6350854   0.9776544  )
       133           Ga  tau( 133) = (   0.1999999   0.8082905   0.3257027  )
       134           Ga  tau( 134) = (   0.1999999   0.8082905   0.6516786  )
       135           Ga  tau( 135) = (   0.1999999   0.8082905   0.9776544  )
       136           Ga  tau( 136) = (   0.7999999   0.1154701   0.3257027  )
       137           Ga  tau( 137) = (   0.7999999   0.1154701   0.6516786  )
       138           Ga  tau( 138) = (   0.7999999   0.1154701   0.9776544  )
       139           Ga  tau( 139) = (   0.6999999   0.2886752   0.3257027  )
       140           Ga  tau( 140) = (   0.6999999   0.2886752   0.6516786  )
       141           Ga  tau( 141) = (   0.6999999   0.2886752   0.9776544  )
       142           Ga  tau( 142) = (   0.5999999   0.4618803   0.3257027  )
       143           Ga  tau( 143) = (   0.5999999   0.4618803   0.6516786  )
       144           Ga  tau( 144) = (   0.5999999   0.4618803   0.9776544  )
       145           Ga  tau( 145) = (   0.4999999   0.6350854   0.3257027  )
       146           Ga  tau( 146) = (   0.4999999   0.6350854   0.6516786  )
       147           Ga  tau( 147) = (   0.4999999   0.6350854   0.9776544  )
       148           Ga  tau( 148) = (   0.3999999   0.8082905   0.3257027  )
       149           Ga  tau( 149) = (   0.3999999   0.8082905   0.6516786  )
       150           Ga  tau( 150) = (   0.3999999   0.8082905   0.9776544  )
       151           N   tau( 151) = (   0.1000001   0.0577350   0.6114777  )
       152           N   tau( 152) = (   0.1000001   0.0577350   0.9374535  )
       153           N   tau( 153) = (   0.0000001   0.2309401   0.2855019  )
       154           N   tau( 154) = (   0.0000001   0.2309401   0.6114777  )
       155           N   tau( 155) = (   0.0000001   0.2309401   0.9374535  )
       156           N   tau( 156) = (  -0.0999999   0.4041451   0.2855019  )
       157           N   tau( 157) = (  -0.0999999   0.4041451   0.6114777  )
       158           N   tau( 158) = (  -0.0999999   0.4041451   0.9374535  )
       159           N   tau( 159) = (  -0.1999999   0.5773502   0.2855019  )
       160           N   tau( 160) = (  -0.1999999   0.5773502   0.6114777  )
       161           N   tau( 161) = (  -0.1999999   0.5773502   0.9374535  )
       162           N   tau( 162) = (  -0.2999999   0.7505553   0.2855019  )
       163           N   tau( 163) = (  -0.2999999   0.7505553   0.6114777  )
       164           N   tau( 164) = (  -0.2999999   0.7505553   0.9374535  )
       165           N   tau( 165) = (   0.3000001   0.0577350   0.2855019  )
       166           N   tau( 166) = (   0.3000001   0.0577350   0.6114777  )
       167           N   tau( 167) = (   0.3000001   0.0577350   0.9374535  )
       168           N   tau( 168) = (   0.2000001   0.2309401   0.2855019  )
       169           N   tau( 169) = (   0.2000001   0.2309401   0.6114777  )
       170           N   tau( 170) = (   0.2000001   0.2309401   0.9374535  )
       171           N   tau( 171) = (   0.1000001   0.4041451   0.2855019  )
       172           N   tau( 172) = (   0.1000001   0.4041451   0.6114777  )
       173           N   tau( 173) = (   0.1000001   0.4041451   0.9374535  )
       174           N   tau( 174) = (   0.0000001   0.5773502   0.2855019  )
       175           N   tau( 175) = (   0.0000001   0.5773502   0.6114777  )
       176           N   tau( 176) = (   0.0000001   0.5773502   0.9374535  )
       177           N   tau( 177) = (  -0.0999999   0.7505553   0.2855019  )
       178           N   tau( 178) = (  -0.0999999   0.7505553   0.6114777  )
       179           N   tau( 179) = (  -0.0999999   0.7505553   0.9374535  )
       180           N   tau( 180) = (   0.5000001   0.0577350   0.2855019  )
       181           N   tau( 181) = (   0.5000001   0.0577350   0.6114777  )
       182           N   tau( 182) = (   0.5000001   0.0577350   0.9374535  )
       183           N   tau( 183) = (   0.4000001   0.2309401   0.2855019  )
       184           N   tau( 184) = (   0.4000001   0.2309401   0.6114777  )
       185           N   tau( 185) = (   0.4000001   0.2309401   0.9374535  )
       186           N   tau( 186) = (   0.3000001   0.4041451   0.2855019  )
       187           N   tau( 187) = (   0.3000001   0.4041451   0.6114777  )
       188           N   tau( 188) = (   0.3000001   0.4041451   0.9374535  )
       189           N   tau( 189) = (   0.2000001   0.5773502   0.2855019  )
       190           N   tau( 190) = (   0.2000001   0.5773502   0.6114777  )
       191           N   tau( 191) = (   0.2000001   0.5773502   0.9374535  )
       192           N   tau( 192) = (   0.1000001   0.7505553   0.2855019  )
       193           N   tau( 193) = (   0.1000001   0.7505553   0.6114777  )
       194           N   tau( 194) = (   0.1000001   0.7505553   0.9374535  )
       195           N   tau( 195) = (   0.7000001   0.0577350   0.2855019  )
       196           N   tau( 196) = (   0.7000001   0.0577350   0.6114777  )
       197           N   tau( 197) = (   0.7000001   0.0577350   0.9374535  )
       198           N   tau( 198) = (   0.6000001   0.2309401   0.2855019  )
       199           N   tau( 199) = (   0.6000001   0.2309401   0.6114777  )
       200           N   tau( 200) = (   0.6000001   0.2309401   0.9374535  )
       201           N   tau( 201) = (   0.5000001   0.4041451   0.2855019  )
       202           N   tau( 202) = (   0.5000001   0.4041451   0.6114777  )
       203           N   tau( 203) = (   0.5000001   0.4041451   0.9374535  )
       204           N   tau( 204) = (   0.4000001   0.5773502   0.2855019  )
       205           N   tau( 205) = (   0.4000001   0.5773502   0.6114777  )
       206           N   tau( 206) = (   0.4000001   0.5773502   0.9374535  )
       207           N   tau( 207) = (   0.3000001   0.7505553   0.2855019  )
       208           N   tau( 208) = (   0.3000001   0.7505553   0.6114777  )
       209           N   tau( 209) = (   0.3000001   0.7505553   0.9374535  )
       210           N   tau( 210) = (   0.9000001   0.0577350   0.2855019  )
       211           N   tau( 211) = (   0.9000001   0.0577350   0.6114777  )
       212           N   tau( 212) = (   0.9000001   0.0577350   0.9374535  )
       213           N   tau( 213) = (   0.8000001   0.2309401   0.2855019  )
       214           N   tau( 214) = (   0.8000001   0.2309401   0.6114777  )
       215           N   tau( 215) = (   0.8000001   0.2309401   0.9374535  )
       216           N   tau( 216) = (   0.7000001   0.4041451   0.2855019  )
       217           N   tau( 217) = (   0.7000001   0.4041451   0.6114777  )
       218           N   tau( 218) = (   0.7000001   0.4041451   0.9374535  )
       219           N   tau( 219) = (   0.6000001   0.5773502   0.2855019  )
       220           N   tau( 220) = (   0.6000001   0.5773502   0.6114777  )
       221           N   tau( 221) = (   0.6000001   0.5773502   0.9374535  )
       222           N   tau( 222) = (   0.5000001   0.7505553   0.2855019  )
       223           N   tau( 223) = (   0.5000001   0.7505553   0.6114777  )
       224           N   tau( 224) = (   0.5000001   0.7505553   0.9374535  )
       225           N   tau( 225) = (  -0.0000001   0.1154701   0.1225140  )
       226           N   tau( 226) = (  -0.0000001   0.1154701   0.4484898  )
       227           N   tau( 227) = (  -0.0000001   0.1154701   0.7744656  )
       228           N   tau( 228) = (  -0.1000001   0.2886752   0.1225140  )
       229           N   tau( 229) = (  -0.1000001   0.2886752   0.4484898  )
       230           N   tau( 230) = (  -0.1000001   0.2886752   0.7744656  )
       231           N   tau( 231) = (  -0.2000001   0.4618803   0.1225140  )
       232           N   tau( 232) = (  -0.2000001   0.4618803   0.4484898  )
       233           N   tau( 233) = (  -0.2000001   0.4618803   0.7744656  )
       234           N   tau( 234) = (  -0.3000001   0.6350854   0.1225140  )
       235           N   tau( 235) = (  -0.3000001   0.6350854   0.4484898  )
       236           N   tau( 236) = (  -0.3000001   0.6350854   0.7744656  )
       237           N   tau( 237) = (  -0.4000001   0.8082905   0.1225140  )
       238           N   tau( 238) = (  -0.4000001   0.8082905   0.4484898  )
       239           N   tau( 239) = (  -0.4000001   0.8082905   0.7744656  )
       240           N   tau( 240) = (   0.1999999   0.1154701   0.1225140  )
       241           N   tau( 241) = (   0.1999999   0.1154701   0.4484898  )
       242           N   tau( 242) = (   0.1999999   0.1154701   0.7744656  )
       243           N   tau( 243) = (   0.0999999   0.2886752   0.1225140  )
       244           N   tau( 244) = (   0.0999999   0.2886752   0.4484898  )
       245           N   tau( 245) = (   0.0999999   0.2886752   0.7744656  )
       246           N   tau( 246) = (  -0.0000001   0.4618803   0.1225140  )
       247           N   tau( 247) = (  -0.0000001   0.4618803   0.4484898  )
       248           N   tau( 248) = (  -0.0000001   0.4618803   0.7744656  )
       249           N   tau( 249) = (  -0.1000001   0.6350854   0.1225140  )
       250           N   tau( 250) = (  -0.1000001   0.6350854   0.4484898  )
       251           N   tau( 251) = (  -0.1000001   0.6350854   0.7744656  )
       252           N   tau( 252) = (  -0.2000001   0.8082905   0.1225140  )
       253           N   tau( 253) = (  -0.2000001   0.8082905   0.4484898  )
       254           N   tau( 254) = (  -0.2000001   0.8082905   0.7744656  )
       255           N   tau( 255) = (   0.3999999   0.1154701   0.1225140  )
       256           N   tau( 256) = (   0.3999999   0.1154701   0.4484898  )
       257           N   tau( 257) = (   0.3999999   0.1154701   0.7744656  )
       258           N   tau( 258) = (   0.2999999   0.2886752   0.1225140  )
       259           N   tau( 259) = (   0.2999999   0.2886752   0.4484898  )
       260           N   tau( 260) = (   0.2999999   0.2886752   0.7744656  )
       261           N   tau( 261) = (   0.1999999   0.4618803   0.1225140  )
       262           N   tau( 262) = (   0.1999999   0.4618803   0.4484898  )
       263           N   tau( 263) = (   0.1999999   0.4618803   0.7744656  )
       264           N   tau( 264) = (   0.0999999   0.6350854   0.1225140  )
       265           N   tau( 265) = (   0.0999999   0.6350854   0.4484898  )
       266           N   tau( 266) = (   0.0999999   0.6350854   0.7744656  )
       267           N   tau( 267) = (  -0.0000001   0.8082905   0.1225140  )
       268           N   tau( 268) = (  -0.0000001   0.8082905   0.4484898  )
       269           N   tau( 269) = (  -0.0000001   0.8082905   0.7744656  )
       270           N   tau( 270) = (   0.5999999   0.1154701   0.1225140  )
       271           N   tau( 271) = (   0.5999999   0.1154701   0.4484898  )
       272           N   tau( 272) = (   0.5999999   0.1154701   0.7744656  )
       273           N   tau( 273) = (   0.4999999   0.2886752   0.1225140  )
       274           N   tau( 274) = (   0.4999999   0.2886752   0.4484898  )
       275           N   tau( 275) = (   0.4999999   0.2886752   0.7744656  )
       276           N   tau( 276) = (   0.3999999   0.4618803   0.1225140  )
       277           N   tau( 277) = (   0.3999999   0.4618803   0.4484898  )
       278           N   tau( 278) = (   0.3999999   0.4618803   0.7744656  )
       279           N   tau( 279) = (   0.2999999   0.6350854   0.1225140  )
       280           N   tau( 280) = (   0.2999999   0.6350854   0.4484898  )
       281           N   tau( 281) = (   0.2999999   0.6350854   0.7744656  )
       282           N   tau( 282) = (   0.1999999   0.8082905   0.1225140  )
       283           N   tau( 283) = (   0.1999999   0.8082905   0.4484898  )
       284           N   tau( 284) = (   0.1999999   0.8082905   0.7744656  )
       285           N   tau( 285) = (   0.7999999   0.1154701   0.1225140  )
       286           N   tau( 286) = (   0.7999999   0.1154701   0.4484898  )
       287           N   tau( 287) = (   0.7999999   0.1154701   0.7744656  )
       288           N   tau( 288) = (   0.6999999   0.2886752   0.1225140  )
       289           N   tau( 289) = (   0.6999999   0.2886752   0.4484898  )
       290           N   tau( 290) = (   0.6999999   0.2886752   0.7744656  )
       291           N   tau( 291) = (   0.5999999   0.4618803   0.1225140  )
       292           N   tau( 292) = (   0.5999999   0.4618803   0.4484898  )
       293           N   tau( 293) = (   0.5999999   0.4618803   0.7744656  )
       294           N   tau( 294) = (   0.4999999   0.6350854   0.1225140  )
       295           N   tau( 295) = (   0.4999999   0.6350854   0.4484898  )
       296           N   tau( 296) = (   0.4999999   0.6350854   0.7744656  )
       297           N   tau( 297) = (   0.3999999   0.8082905   0.1225140  )
       298           N   tau( 298) = (   0.3999999   0.8082905   0.4484898  )
       299           N   tau( 299) = (   0.3999999   0.8082905   0.7744656  )

   Crystallographic axes

     site n.     atom                  positions (cryst. coord.)
         1           Ga  tau(   1) = (  0.1333334  0.0666666  0.1663874  )
         2           Ga  tau(   2) = (  0.1333334  0.0666666  0.4997208  )
         3           Ga  tau(   3) = (  0.1333334  0.0666666  0.8330541  )
         4           Ga  tau(   4) = (  0.1333334  0.2666666  0.1663874  )
         5           Ga  tau(   5) = (  0.1333334  0.2666666  0.4997208  )
         6           Ga  tau(   6) = (  0.1333334  0.2666666  0.8330541  )
         7           Ga  tau(   7) = (  0.1333334  0.4666666  0.1663874  )
         8           Ga  tau(   8) = (  0.1333334  0.4666666  0.4997208  )
         9           Ga  tau(   9) = (  0.1333334  0.4666666  0.8330541  )
        10           Ga  tau(  10) = (  0.1333334  0.6666666  0.1663874  )
        11           Ga  tau(  11) = (  0.1333334  0.6666666  0.4997208  )
        12           Ga  tau(  12) = (  0.1333334  0.6666666  0.8330541  )
        13           Ga  tau(  13) = (  0.1333334  0.8666666  0.1663874  )
        14           Ga  tau(  14) = (  0.1333334  0.8666666  0.4997208  )
        15           Ga  tau(  15) = (  0.1333334  0.8666666  0.8330541  )
        16           Ga  tau(  16) = (  0.3333334  0.0666666  0.1663874  )
        17           Ga  tau(  17) = (  0.3333334  0.0666666  0.4997208  )
        18           Ga  tau(  18) = (  0.3333334  0.0666666  0.8330541  )
        19           Ga  tau(  19) = (  0.3333334  0.2666666  0.1663874  )
        20           Ga  tau(  20) = (  0.3333334  0.2666666  0.4997208  )
        21           Ga  tau(  21) = (  0.3333334  0.2666666  0.8330541  )
        22           Ga  tau(  22) = (  0.3333334  0.4666666  0.1663874  )
        23           Ga  tau(  23) = (  0.3333334  0.4666666  0.4997208  )
        24           Ga  tau(  24) = (  0.3333334  0.4666666  0.8330541  )
        25           Ga  tau(  25) = (  0.3333334  0.6666666  0.1663874  )
        26           Ga  tau(  26) = (  0.3333334  0.6666666  0.4997208  )
        27           Ga  tau(  27) = (  0.3333334  0.6666666  0.8330541  )
        28           Ga  tau(  28) = (  0.3333334  0.8666666  0.1663874  )
        29           Ga  tau(  29) = (  0.3333334  0.8666666  0.4997208  )
        30           Ga  tau(  30) = (  0.3333334  0.8666666  0.8330541  )
        31           Ga  tau(  31) = (  0.5333334  0.0666666  0.1663874  )
        32           Ga  tau(  32) = (  0.5333334  0.0666666  0.4997208  )
        33           Ga  tau(  33) = (  0.5333334  0.0666666  0.8330541  )
        34           Ga  tau(  34) = (  0.5333334  0.2666666  0.1663874  )
        35           Ga  tau(  35) = (  0.5333334  0.2666666  0.4997208  )
        36           Ga  tau(  36) = (  0.5333334  0.2666666  0.8330541  )
        37           Ga  tau(  37) = (  0.5333334  0.4666666  0.1663874  )
        38           Ga  tau(  38) = (  0.5333334  0.4666666  0.4997208  )
        39           Ga  tau(  39) = (  0.5333334  0.4666666  0.8330541  )
        40           Ga  tau(  40) = (  0.5333334  0.6666666  0.1663874  )
        41           Ga  tau(  41) = (  0.5333334  0.6666666  0.4997208  )
        42           Ga  tau(  42) = (  0.5333334  0.6666666  0.8330541  )
        43           Ga  tau(  43) = (  0.5333334  0.8666666  0.1663874  )
        44           Ga  tau(  44) = (  0.5333334  0.8666666  0.4997208  )
        45           Ga  tau(  45) = (  0.5333334  0.8666666  0.8330541  )
        46           Ga  tau(  46) = (  0.7333334  0.0666666  0.1663874  )
        47           Ga  tau(  47) = (  0.7333334  0.0666666  0.4997208  )
        48           Ga  tau(  48) = (  0.7333334  0.0666666  0.8330541  )
        49           Ga  tau(  49) = (  0.7333334  0.2666666  0.1663874  )
        50           Ga  tau(  50) = (  0.7333334  0.2666666  0.4997208  )
        51           Ga  tau(  51) = (  0.7333334  0.2666666  0.8330541  )
        52           Ga  tau(  52) = (  0.7333334  0.4666666  0.1663874  )
        53           Ga  tau(  53) = (  0.7333334  0.4666666  0.4997208  )
        54           Ga  tau(  54) = (  0.7333334  0.4666666  0.8330541  )
        55           Ga  tau(  55) = (  0.7333334  0.6666666  0.1663874  )
        56           Ga  tau(  56) = (  0.7333334  0.6666666  0.4997208  )
        57           Ga  tau(  57) = (  0.7333334  0.6666666  0.8330541  )
        58           Ga  tau(  58) = (  0.7333334  0.8666666  0.1663874  )
        59           Ga  tau(  59) = (  0.7333334  0.8666666  0.4997208  )
        60           Ga  tau(  60) = (  0.7333334  0.8666666  0.8330541  )
        61           Ga  tau(  61) = (  0.9333334  0.0666666  0.1663874  )
        62           Ga  tau(  62) = (  0.9333334  0.0666666  0.4997208  )
        63           Ga  tau(  63) = (  0.9333334  0.0666666  0.8330541  )
        64           Ga  tau(  64) = (  0.9333334  0.2666666  0.1663874  )
        65           Ga  tau(  65) = (  0.9333334  0.2666666  0.4997208  )
        66           Ga  tau(  66) = (  0.9333334  0.2666666  0.8330541  )
        67           Ga  tau(  67) = (  0.9333334  0.4666666  0.1663874  )
        68           Ga  tau(  68) = (  0.9333334  0.4666666  0.4997208  )
        69           Ga  tau(  69) = (  0.9333334  0.4666666  0.8330541  )
        70           Ga  tau(  70) = (  0.9333334  0.6666666  0.1663874  )
        71           Ga  tau(  71) = (  0.9333334  0.6666666  0.4997208  )
        72           Ga  tau(  72) = (  0.9333334  0.6666666  0.8330541  )
        73           Ga  tau(  73) = (  0.9333334  0.8666666  0.1663874  )
        74           Ga  tau(  74) = (  0.9333334  0.8666666  0.4997208  )
        75           Ga  tau(  75) = (  0.9333334  0.8666666  0.8330541  )
        76           Ga  tau(  76) = (  0.0666666  0.1333334  0.3330541  )
        77           Ga  tau(  77) = (  0.0666666  0.1333334  0.6663874  )
        78           Ga  tau(  78) = (  0.0666666  0.1333334  0.9997208  )
        79           Ga  tau(  79) = (  0.0666666  0.3333334  0.3330541  )
        80           Ga  tau(  80) = (  0.0666666  0.3333334  0.6663874  )
        81           Ga  tau(  81) = (  0.0666666  0.3333334  0.9997208  )
        82           Ga  tau(  82) = (  0.0666666  0.5333334  0.3330541  )
        83           Ga  tau(  83) = (  0.0666666  0.5333334  0.6663874  )
        84           Ga  tau(  84) = (  0.0666666  0.5333334  0.9997208  )
        85           Ga  tau(  85) = (  0.0666666  0.7333334  0.3330541  )
        86           Ga  tau(  86) = (  0.0666666  0.7333334  0.6663874  )
        87           Ga  tau(  87) = (  0.0666666  0.7333334  0.9997208  )
        88           Ga  tau(  88) = (  0.0666666  0.9333334  0.3330541  )
        89           Ga  tau(  89) = (  0.0666666  0.9333334  0.6663874  )
        90           Ga  tau(  90) = (  0.0666666  0.9333334  0.9997208  )
        91           Ga  tau(  91) = (  0.2666666  0.1333334  0.3330541  )
        92           Ga  tau(  92) = (  0.2666666  0.1333334  0.6663874  )
        93           Ga  tau(  93) = (  0.2666666  0.1333334  0.9997208  )
        94           Ga  tau(  94) = (  0.2666666  0.3333334  0.3330541  )
        95           Ga  tau(  95) = (  0.2666666  0.3333334  0.6663874  )
        96           Ga  tau(  96) = (  0.2666666  0.3333334  0.9997208  )
        97           Ga  tau(  97) = (  0.2666666  0.5333334  0.3330541  )
        98           Ga  tau(  98) = (  0.2666666  0.5333334  0.6663874  )
        99           Ga  tau(  99) = (  0.2666666  0.5333334  0.9997208  )
       100           Ga  tau( 100) = (  0.2666666  0.7333334  0.3330541  )
       101           Ga  tau( 101) = (  0.2666666  0.7333334  0.6663874  )
       102           Ga  tau( 102) = (  0.2666666  0.7333334  0.9997208  )
       103           Ga  tau( 103) = (  0.2666666  0.9333334  0.3330541  )
       104           Ga  tau( 104) = (  0.2666666  0.9333334  0.6663874  )
       105           Ga  tau( 105) = (  0.2666666  0.9333334  0.9997208  )
       106           Ga  tau( 106) = (  0.4666666  0.1333334  0.3330541  )
       107           Ga  tau( 107) = (  0.4666666  0.1333334  0.6663874  )
       108           Ga  tau( 108) = (  0.4666666  0.1333334  0.9997208  )
       109           Ga  tau( 109) = (  0.4666666  0.3333334  0.3330541  )
       110           Ga  tau( 110) = (  0.4666666  0.3333334  0.6663874  )
       111           Ga  tau( 111) = (  0.4666666  0.3333334  0.9997208  )
       112           Ga  tau( 112) = (  0.4666666  0.5333334  0.3330541  )
       113           Ga  tau( 113) = (  0.4666666  0.5333334  0.6663874  )
       114           Ga  tau( 114) = (  0.4666666  0.5333334  0.9997208  )
       115           Ga  tau( 115) = (  0.4666666  0.7333334  0.3330541  )
       116           Ga  tau( 116) = (  0.4666666  0.7333334  0.6663874  )
       117           Ga  tau( 117) = (  0.4666666  0.7333334  0.9997208  )
       118           Ga  tau( 118) = (  0.4666666  0.9333334  0.3330541  )
       119           Ga  tau( 119) = (  0.4666666  0.9333334  0.6663874  )
       120           Ga  tau( 120) = (  0.4666666  0.9333334  0.9997208  )
       121           Ga  tau( 121) = (  0.6666666  0.1333334  0.3330541  )
       122           Ga  tau( 122) = (  0.6666666  0.1333334  0.6663874  )
       123           Ga  tau( 123) = (  0.6666666  0.1333334  0.9997208  )
       124           Ga  tau( 124) = (  0.6666666  0.3333334  0.3330541  )
       125           Ga  tau( 125) = (  0.6666666  0.3333334  0.6663874  )
       126           Ga  tau( 126) = (  0.6666666  0.3333334  0.9997208  )
       127           Ga  tau( 127) = (  0.6666666  0.5333334  0.3330541  )
       128           Ga  tau( 128) = (  0.6666666  0.5333334  0.6663874  )
       129           Ga  tau( 129) = (  0.6666666  0.5333334  0.9997208  )
       130           Ga  tau( 130) = (  0.6666666  0.7333334  0.3330541  )
       131           Ga  tau( 131) = (  0.6666666  0.7333334  0.6663874  )
       132           Ga  tau( 132) = (  0.6666666  0.7333334  0.9997208  )
       133           Ga  tau( 133) = (  0.6666666  0.9333334  0.3330541  )
       134           Ga  tau( 134) = (  0.6666666  0.9333334  0.6663874  )
       135           Ga  tau( 135) = (  0.6666666  0.9333334  0.9997208  )
       136           Ga  tau( 136) = (  0.8666666  0.1333334  0.3330541  )
       137           Ga  tau( 137) = (  0.8666666  0.1333334  0.6663874  )
       138           Ga  tau( 138) = (  0.8666666  0.1333334  0.9997208  )
       139           Ga  tau( 139) = (  0.8666666  0.3333334  0.3330541  )
       140           Ga  tau( 140) = (  0.8666666  0.3333334  0.6663874  )
       141           Ga  tau( 141) = (  0.8666666  0.3333334  0.9997208  )
       142           Ga  tau( 142) = (  0.8666666  0.5333334  0.3330541  )
       143           Ga  tau( 143) = (  0.8666666  0.5333334  0.6663874  )
       144           Ga  tau( 144) = (  0.8666666  0.5333334  0.9997208  )
       145           Ga  tau( 145) = (  0.8666666  0.7333334  0.3330541  )
       146           Ga  tau( 146) = (  0.8666666  0.7333334  0.6663874  )
       147           Ga  tau( 147) = (  0.8666666  0.7333334  0.9997208  )
       148           Ga  tau( 148) = (  0.8666666  0.9333334  0.3330541  )
       149           Ga  tau( 149) = (  0.8666666  0.9333334  0.6663874  )
       150           Ga  tau( 150) = (  0.8666666  0.9333334  0.9997208  )
       151           N   tau( 151) = (  0.1333334  0.0666666  0.6252792  )
       152           N   tau( 152) = (  0.1333334  0.0666666  0.9586126  )
       153           N   tau( 153) = (  0.1333334  0.2666666  0.2919459  )
       154           N   tau( 154) = (  0.1333334  0.2666666  0.6252792  )
       155           N   tau( 155) = (  0.1333334  0.2666666  0.9586126  )
       156           N   tau( 156) = (  0.1333334  0.4666666  0.2919459  )
       157           N   tau( 157) = (  0.1333334  0.4666666  0.6252792  )
       158           N   tau( 158) = (  0.1333334  0.4666666  0.9586126  )
       159           N   tau( 159) = (  0.1333334  0.6666666  0.2919459  )
       160           N   tau( 160) = (  0.1333334  0.6666666  0.6252792  )
       161           N   tau( 161) = (  0.1333334  0.6666666  0.9586126  )
       162           N   tau( 162) = (  0.1333334  0.8666666  0.2919459  )
       163           N   tau( 163) = (  0.1333334  0.8666666  0.6252792  )
       164           N   tau( 164) = (  0.1333334  0.8666666  0.9586126  )
       165           N   tau( 165) = (  0.3333334  0.0666666  0.2919459  )
       166           N   tau( 166) = (  0.3333334  0.0666666  0.6252792  )
       167           N   tau( 167) = (  0.3333334  0.0666666  0.9586126  )
       168           N   tau( 168) = (  0.3333334  0.2666666  0.2919459  )
       169           N   tau( 169) = (  0.3333334  0.2666666  0.6252792  )
       170           N   tau( 170) = (  0.3333334  0.2666666  0.9586126  )
       171           N   tau( 171) = (  0.3333334  0.4666666  0.2919459  )
       172           N   tau( 172) = (  0.3333334  0.4666666  0.6252792  )
       173           N   tau( 173) = (  0.3333334  0.4666666  0.9586126  )
       174           N   tau( 174) = (  0.3333334  0.6666666  0.2919459  )
       175           N   tau( 175) = (  0.3333334  0.6666666  0.6252792  )
       176           N   tau( 176) = (  0.3333334  0.6666666  0.9586126  )
       177           N   tau( 177) = (  0.3333334  0.8666666  0.2919459  )
       178           N   tau( 178) = (  0.3333334  0.8666666  0.6252792  )
       179           N   tau( 179) = (  0.3333334  0.8666666  0.9586126  )
       180           N   tau( 180) = (  0.5333334  0.0666666  0.2919459  )
       181           N   tau( 181) = (  0.5333334  0.0666666  0.6252792  )
       182           N   tau( 182) = (  0.5333334  0.0666666  0.9586126  )
       183           N   tau( 183) = (  0.5333334  0.2666666  0.2919459  )
       184           N   tau( 184) = (  0.5333334  0.2666666  0.6252792  )
       185           N   tau( 185) = (  0.5333334  0.2666666  0.9586126  )
       186           N   tau( 186) = (  0.5333334  0.4666666  0.2919459  )
       187           N   tau( 187) = (  0.5333334  0.4666666  0.6252792  )
       188           N   tau( 188) = (  0.5333334  0.4666666  0.9586126  )
       189           N   tau( 189) = (  0.5333334  0.6666666  0.2919459  )
       190           N   tau( 190) = (  0.5333334  0.6666666  0.6252792  )
       191           N   tau( 191) = (  0.5333334  0.6666666  0.9586126  )
       192           N   tau( 192) = (  0.5333334  0.8666666  0.2919459  )
       193           N   tau( 193) = (  0.5333334  0.8666666  0.6252792  )
       194           N   tau( 194) = (  0.5333334  0.8666666  0.9586126  )
       195           N   tau( 195) = (  0.7333334  0.0666666  0.2919459  )
       196           N   tau( 196) = (  0.7333334  0.0666666  0.6252792  )
       197           N   tau( 197) = (  0.7333334  0.0666666  0.9586126  )
       198           N   tau( 198) = (  0.7333334  0.2666666  0.2919459  )
       199           N   tau( 199) = (  0.7333334  0.2666666  0.6252792  )
       200           N   tau( 200) = (  0.7333334  0.2666666  0.9586126  )
       201           N   tau( 201) = (  0.7333334  0.4666666  0.2919459  )
       202           N   tau( 202) = (  0.7333334  0.4666666  0.6252792  )
       203           N   tau( 203) = (  0.7333334  0.4666666  0.9586126  )
       204           N   tau( 204) = (  0.7333334  0.6666666  0.2919459  )
       205           N   tau( 205) = (  0.7333334  0.6666666  0.6252792  )
       206           N   tau( 206) = (  0.7333334  0.6666666  0.9586126  )
       207           N   tau( 207) = (  0.7333334  0.8666666  0.2919459  )
       208           N   tau( 208) = (  0.7333334  0.8666666  0.6252792  )
       209           N   tau( 209) = (  0.7333334  0.8666666  0.9586126  )
       210           N   tau( 210) = (  0.9333334  0.0666666  0.2919459  )
       211           N   tau( 211) = (  0.9333334  0.0666666  0.6252792  )
       212           N   tau( 212) = (  0.9333334  0.0666666  0.9586126  )
       213           N   tau( 213) = (  0.9333334  0.2666666  0.2919459  )
       214           N   tau( 214) = (  0.9333334  0.2666666  0.6252792  )
       215           N   tau( 215) = (  0.9333334  0.2666666  0.9586126  )
       216           N   tau( 216) = (  0.9333334  0.4666666  0.2919459  )
       217           N   tau( 217) = (  0.9333334  0.4666666  0.6252792  )
       218           N   tau( 218) = (  0.9333334  0.4666666  0.9586126  )
       219           N   tau( 219) = (  0.9333334  0.6666666  0.2919459  )
       220           N   tau( 220) = (  0.9333334  0.6666666  0.6252792  )
       221           N   tau( 221) = (  0.9333334  0.6666666  0.9586126  )
       222           N   tau( 222) = (  0.9333334  0.8666666  0.2919459  )
       223           N   tau( 223) = (  0.9333334  0.8666666  0.6252792  )
       224           N   tau( 224) = (  0.9333334  0.8666666  0.9586126  )
       225           N   tau( 225) = (  0.0666666  0.1333334  0.1252792  )
       226           N   tau( 226) = (  0.0666666  0.1333334  0.4586126  )
       227           N   tau( 227) = (  0.0666666  0.1333334  0.7919459  )
       228           N   tau( 228) = (  0.0666666  0.3333334  0.1252792  )
       229           N   tau( 229) = (  0.0666666  0.3333334  0.4586126  )
       230           N   tau( 230) = (  0.0666666  0.3333334  0.7919459  )
       231           N   tau( 231) = (  0.0666666  0.5333334  0.1252792  )
       232           N   tau( 232) = (  0.0666666  0.5333334  0.4586126  )
       233           N   tau( 233) = (  0.0666666  0.5333334  0.7919459  )
       234           N   tau( 234) = (  0.0666666  0.7333334  0.1252792  )
       235           N   tau( 235) = (  0.0666666  0.7333334  0.4586126  )
       236           N   tau( 236) = (  0.0666666  0.7333334  0.7919459  )
       237           N   tau( 237) = (  0.0666666  0.9333334  0.1252792  )
       238           N   tau( 238) = (  0.0666666  0.9333334  0.4586126  )
       239           N   tau( 239) = (  0.0666666  0.9333334  0.7919459  )
       240           N   tau( 240) = (  0.2666666  0.1333334  0.1252792  )
       241           N   tau( 241) = (  0.2666666  0.1333334  0.4586126  )
       242           N   tau( 242) = (  0.2666666  0.1333334  0.7919459  )
       243           N   tau( 243) = (  0.2666666  0.3333334  0.1252792  )
       244           N   tau( 244) = (  0.2666666  0.3333334  0.4586126  )
       245           N   tau( 245) = (  0.2666666  0.3333334  0.7919459  )
       246           N   tau( 246) = (  0.2666666  0.5333334  0.1252792  )
       247           N   tau( 247) = (  0.2666666  0.5333334  0.4586126  )
       248           N   tau( 248) = (  0.2666666  0.5333334  0.7919459  )
       249           N   tau( 249) = (  0.2666666  0.7333334  0.1252792  )
       250           N   tau( 250) = (  0.2666666  0.7333334  0.4586126  )
       251           N   tau( 251) = (  0.2666666  0.7333334  0.7919459  )
       252           N   tau( 252) = (  0.2666666  0.9333334  0.1252792  )
       253           N   tau( 253) = (  0.2666666  0.9333334  0.4586126  )
       254           N   tau( 254) = (  0.2666666  0.9333334  0.7919459  )
       255           N   tau( 255) = (  0.4666666  0.1333334  0.1252792  )
       256           N   tau( 256) = (  0.4666666  0.1333334  0.4586126  )
       257           N   tau( 257) = (  0.4666666  0.1333334  0.7919459  )
       258           N   tau( 258) = (  0.4666666  0.3333334  0.1252792  )
       259           N   tau( 259) = (  0.4666666  0.3333334  0.4586126  )
       260           N   tau( 260) = (  0.4666666  0.3333334  0.7919459  )
       261           N   tau( 261) = (  0.4666666  0.5333334  0.1252792  )
       262           N   tau( 262) = (  0.4666666  0.5333334  0.4586126  )
       263           N   tau( 263) = (  0.4666666  0.5333334  0.7919459  )
       264           N   tau( 264) = (  0.4666666  0.7333334  0.1252792  )
       265           N   tau( 265) = (  0.4666666  0.7333334  0.4586126  )
       266           N   tau( 266) = (  0.4666666  0.7333334  0.7919459  )
       267           N   tau( 267) = (  0.4666666  0.9333334  0.1252792  )
       268           N   tau( 268) = (  0.4666666  0.9333334  0.4586126  )
       269           N   tau( 269) = (  0.4666666  0.9333334  0.7919459  )
       270           N   tau( 270) = (  0.6666666  0.1333334  0.1252792  )
       271           N   tau( 271) = (  0.6666666  0.1333334  0.4586126  )
       272           N   tau( 272) = (  0.6666666  0.1333334  0.7919459  )
       273           N   tau( 273) = (  0.6666666  0.3333334  0.1252792  )
       274           N   tau( 274) = (  0.6666666  0.3333334  0.4586126  )
       275           N   tau( 275) = (  0.6666666  0.3333334  0.7919459  )
       276           N   tau( 276) = (  0.6666666  0.5333334  0.1252792  )
       277           N   tau( 277) = (  0.6666666  0.5333334  0.4586126  )
       278           N   tau( 278) = (  0.6666666  0.5333334  0.7919459  )
       279           N   tau( 279) = (  0.6666666  0.7333334  0.1252792  )
       280           N   tau( 280) = (  0.6666666  0.7333334  0.4586126  )
       281           N   tau( 281) = (  0.6666666  0.7333334  0.7919459  )
       282           N   tau( 282) = (  0.6666666  0.9333334  0.1252792  )
       283           N   tau( 283) = (  0.6666666  0.9333334  0.4586126  )
       284           N   tau( 284) = (  0.6666666  0.9333334  0.7919459  )
       285           N   tau( 285) = (  0.8666666  0.1333334  0.1252792  )
       286           N   tau( 286) = (  0.8666666  0.1333334  0.4586126  )
       287           N   tau( 287) = (  0.8666666  0.1333334  0.7919459  )
       288           N   tau( 288) = (  0.8666666  0.3333334  0.1252792  )
       289           N   tau( 289) = (  0.8666666  0.3333334  0.4586126  )
       290           N   tau( 290) = (  0.8666666  0.3333334  0.7919459  )
       291           N   tau( 291) = (  0.8666666  0.5333334  0.1252792  )
       292           N   tau( 292) = (  0.8666666  0.5333334  0.4586126  )
       293           N   tau( 293) = (  0.8666666  0.5333334  0.7919459  )
       294           N   tau( 294) = (  0.8666666  0.7333334  0.1252792  )
       295           N   tau( 295) = (  0.8666666  0.7333334  0.4586126  )
       296           N   tau( 296) = (  0.8666666  0.7333334  0.7919459  )
       297           N   tau( 297) = (  0.8666666  0.9333334  0.1252792  )
       298           N   tau( 298) = (  0.8666666  0.9333334  0.4586126  )
       299           N   tau( 299) = (  0.8666666  0.9333334  0.7919459  )

     number of k points=     6  Gaussian smearing, width (Ry)=  0.0100
                       cart. coord. in units 2pi/alat
        k(    1) = (   0.0000000   0.0000000   0.0000000), wk =   0.2500000
        k(    2) = (   0.0000000   0.0000000  -0.5112854), wk =   0.2500000
        k(    3) = (   0.0000000  -0.5773503   0.0000000), wk =   0.5000000
        k(    4) = (   0.0000000  -0.5773503  -0.5112854), wk =   0.5000000
        k(    5) = (  -0.5000000  -0.2886751   0.0000000), wk =   0.2500000
        k(    6) = (  -0.5000000  -0.2886751  -0.5112854), wk =   0.2500000

                       cryst. coord.
        k(    1) = (   0.0000000   0.0000000   0.0000000), wk =   0.2500000
        k(    2) = (   0.0000000   0.0000000  -0.5000000), wk =   0.2500000
        k(    3) = (   0.0000000  -0.5000000   0.0000000), wk =   0.5000000
        k(    4) = (   0.0000000  -0.5000000  -0.5000000), wk =   0.5000000
        k(    5) = (  -0.5000000  -0.0000000   0.0000000), wk =   0.2500000
        k(    6) = (  -0.5000000  -0.0000000  -0.5000000), wk =   0.2500000

     Dense  grid:  2698283 G-vectors     FFT dimensions: ( 192, 192, 180)

     Smooth grid:  1930731 G-vectors     FFT dimensions: ( 180, 180, 160)

     Dynamical RAM for                 wfc:      93.13 MB

     Dynamical RAM for     wfc (w. buffer):     372.54 MB

     Dynamical RAM for           str. fact:       1.29 MB

     Dynamical RAM for           local pot:       0.00 MB

     Dynamical RAM for          nlocal pot:     223.89 MB

     Dynamical RAM for                qrad:       3.00 MB

     Dynamical RAM for          rho,v,vnew:       4.46 MB

     Dynamical RAM for               rhoin:       1.49 MB

     Dynamical RAM for            rho*nmix:      10.29 MB

     Dynamical RAM for           G-vectors:       2.64 MB

     Dynamical RAM for          h,s,v(r/c):    1919.80 MB

     Dynamical RAM for          <psi|beta>:      96.15 MB

     Dynamical RAM for                 psi:     372.54 MB

     Dynamical RAM for                hpsi:     372.54 MB

     Dynamical RAM for                spsi:     372.54 MB

     Dynamical RAM for      wfcinit/wfcrot:     246.27 MB

     Dynamical RAM for           addusdens:     108.40 MB

     Dynamical RAM for          addusforce:     204.85 MB

     Dynamical RAM for         addusstress:      64.82 MB

     Estimated static dynamical RAM per process >     615.45 MB

     Estimated max dynamical RAM per process >       3.67 GB

     Estimated total dynamical RAM >     469.27 GB

     Atomic positions and unit cell read from directory:
     ./GaN.save/
     Atomic positions from file used, from input discarded
 

     Check: negative core charge=   -0.000003

     The initial density is read from file :
     ./GaN.save/charge-density



     %%%%%%%%%%%%%%%%%%%%%%%%%%%%%%%%%%%%%%%%%%%%%%%%%%%%%%%%%%%%%%%%%%%%%%%%
     %                                                                      %
     % You are using vdW-DF, which was implemented by the Thonhauser group. %
     % Please cite the following two papers that made this development      %
     % possible and the two reviews that describe the various versions:     %
     %                                                                      %
     %   T. Thonhauser et al., PRL 115, 136402 (2015).                      %
     %   T. Thonhauser et al., PRB 76, 125112 (2007).                       %
     %   K. Berland et al., Rep. Prog. Phys. 78, 066501 (2015).             %
     %   D.C. Langreth et al., J. Phys.: Condens. Matter 21, 084203 (2009). %
     %                                                                      %
     % If you are calculating stress with vdW-DF, please also cite:         %
     %                                                                      %
     %   R. Sabatini et al., J. Phys.: Condens. Matter 24, 424209 (2012).   %
     %                                                                      %
     %%%%%%%%%%%%%%%%%%%%%%%%%%%%%%%%%%%%%%%%%%%%%%%%%%%%%%%%%%%%%%%%%%%%%%%%

     %%%%%%%%%%%%%%%%%%%%%%%%%%%%%%%%%%%%%%%%%%%%%%%%%%%%%%%%%%%%%%%%%%%%%%%%
     %                                                                      %
     %  vdW-DF NEWS:                                                        %
     %                                                                      %
     %  * vdW-DF3 is now available. DOI: 10.1021/acs.jctc.0c00471           %
     %    use with input_dft = 'vdW-DF3-opt1' or 'vdW-DF3-opt2'             %
     %                                                                      %
     %  * Unscreened and range-separated vdW-DF hybrid functionals          %
     %    DOI: 10.1063/1.4986522 and 10.1088/1361-648X/ac2ad2               %
     %    use with input_dft = 'vdW-DF-cx0' (etc) and 'vdW-DF-ahcx'         %
     %                                                                      %
     %%%%%%%%%%%%%%%%%%%%%%%%%%%%%%%%%%%%%%%%%%%%%%%%%%%%%%%%%%%%%%%%%%%%%%%%


     Carrying out vdW-DF run using the following parameters:
     Nqs    =  20  Npoints =  1024  r_max =  100.000
     q_mesh =  0.00001000  0.04494208  0.09755937  0.15916263
               0.23128650  0.31572767  0.41458969  0.53033537
               0.66584808  0.82450364  1.01025438  1.22772762
               1.48234092  1.78043706  2.12944203  2.53805004
               3.01644009  3.57652955  4.23227104  5.00000000


     -----------------------------------------------
     Non-local corr. energy    =      81.65586606 Ry
     -----------------------------------------------

     Cannot read wfcs: file not found
     Starting wfcs are 1946 randomized atomic wfcs
     Checking if some PAW data can be deallocated... 
       PAW data deallocated on   74 nodes for type:  1
       PAW data deallocated on   53 nodes for type:  2

     total cpu time spent up to now is      173.4 secs

     Self-consistent Calculation

     iteration #  1     ecut=    70.00 Ry     beta= 0.70
     Davidson diagonalization with overlap

---- Real-time Memory Report at c_bands before calling an iterative solver
          1322 MiB given to the printing process from OS
             0 MiB allocation reported by mallinfo(arena+hblkhd)
       1894036 MiB available memory on the node where the printing process lives
------------------
     c_bands:  3 eigenvalues not converged
     ethr =  1.00E-05,  avg # of iterations = 31.5


     -----------------------------------------------
     Non-local corr. energy    =      81.63780060 Ry
     -----------------------------------------------


     total cpu time spent up to now is     6041.6 secs

     total energy              =  -46812.37833366 Ry
     estimated scf accuracy    <       0.67673798 Ry

     iteration #  2     ecut=    70.00 Ry     beta= 0.70
     Davidson diagonalization with overlap

---- Real-time Memory Report at c_bands before calling an iterative solver
          3687 MiB given to the printing process from OS
             0 MiB allocation reported by mallinfo(arena+hblkhd)
       1897593 MiB available memory on the node where the printing process lives
------------------
     ethr =  2.51E-05,  avg # of iterations = 12.0


     -----------------------------------------------
     Non-local corr. energy    =      81.63788930 Ry
     -----------------------------------------------


     total cpu time spent up to now is     9163.3 secs

     total energy              =  -46811.74656639 Ry
     estimated scf accuracy    <       7.79262600 Ry

     iteration #  3     ecut=    70.00 Ry     beta= 0.70
     Davidson diagonalization with overlap

---- Real-time Memory Report at c_bands before calling an iterative solver
          3687 MiB given to the printing process from OS
             0 MiB allocation reported by mallinfo(arena+hblkhd)
       1876386 MiB available memory on the node where the printing process lives
------------------
     ethr =  2.51E-05,  avg # of iterations =  9.8


     -----------------------------------------------
     Non-local corr. energy    =      81.64464980 Ry
     -----------------------------------------------


     total cpu time spent up to now is    12003.6 secs

     total energy              =  -46812.72580040 Ry
     estimated scf accuracy    <       0.11615436 Ry

     iteration #  4     ecut=    70.00 Ry     beta= 0.70
     Davidson diagonalization with overlap

---- Real-time Memory Report at c_bands before calling an iterative solver
          3687 MiB given to the printing process from OS
             0 MiB allocation reported by mallinfo(arena+hblkhd)
       1875538 MiB available memory on the node where the printing process lives
------------------
     ethr =  4.31E-06,  avg # of iterations = 14.0


     -----------------------------------------------
     Non-local corr. energy    =      81.64755669 Ry
     -----------------------------------------------


     total cpu time spent up to now is    15480.3 secs

     total energy              =  -46812.75105883 Ry
     estimated scf accuracy    <       0.09148738 Ry

     iteration #  5     ecut=    70.00 Ry     beta= 0.70
     Davidson diagonalization with overlap

---- Real-time Memory Report at c_bands before calling an iterative solver
          3687 MiB given to the printing process from OS
             0 MiB allocation reported by mallinfo(arena+hblkhd)
       1875522 MiB available memory on the node where the printing process lives
------------------
     ethr =  3.39E-06,  avg # of iterations = 15.5


     -----------------------------------------------
     Non-local corr. energy    =      81.64910517 Ry
     -----------------------------------------------


     total cpu time spent up to now is    18527.5 secs

     total energy              =  -46812.76427176 Ry
     estimated scf accuracy    <       0.02099194 Ry

     iteration #  6     ecut=    70.00 Ry     beta= 0.70
     Davidson diagonalization with overlap

---- Real-time Memory Report at c_bands before calling an iterative solver
          3687 MiB given to the printing process from OS
             0 MiB allocation reported by mallinfo(arena+hblkhd)
       1874638 MiB available memory on the node where the printing process lives
------------------
     ethr =  7.78E-07,  avg # of iterations = 17.8


     -----------------------------------------------
     Non-local corr. energy    =      81.65232579 Ry
     -----------------------------------------------


     total cpu time spent up to now is    21962.3 secs

     total energy              =  -46812.76694986 Ry
     estimated scf accuracy    <       0.00532777 Ry

     iteration #  7     ecut=    70.00 Ry     beta= 0.70
     Davidson diagonalization with overlap

---- Real-time Memory Report at c_bands before calling an iterative solver
          3687 MiB given to the printing process from OS
             0 MiB allocation reported by mallinfo(arena+hblkhd)
       1874624 MiB available memory on the node where the printing process lives
------------------
     c_bands:  3 eigenvalues not converged
     ethr =  1.98E-07,  avg # of iterations = 17.0


     -----------------------------------------------
     Non-local corr. energy    =      81.65556801 Ry
     -----------------------------------------------


     total cpu time spent up to now is    25616.5 secs

     total energy              =  -46812.76716138 Ry
     estimated scf accuracy    <       0.00386344 Ry

     iteration #  8     ecut=    70.00 Ry     beta= 0.70
     Davidson diagonalization with overlap

---- Real-time Memory Report at c_bands before calling an iterative solver
          3687 MiB given to the printing process from OS
             0 MiB allocation reported by mallinfo(arena+hblkhd)
       1874400 MiB available memory on the node where the printing process lives
------------------
     c_bands:  1 eigenvalues not converged
     ethr =  1.43E-07,  avg # of iterations = 17.2


     -----------------------------------------------
     Non-local corr. energy    =      81.65608774 Ry
     -----------------------------------------------


     total cpu time spent up to now is    29331.5 secs

     total energy              =  -46812.76762801 Ry
     estimated scf accuracy    <       0.00064675 Ry

     iteration #  9     ecut=    70.00 Ry     beta= 0.70
     Davidson diagonalization with overlap

---- Real-time Memory Report at c_bands before calling an iterative solver
          3687 MiB given to the printing process from OS
             0 MiB allocation reported by mallinfo(arena+hblkhd)
       1873990 MiB available memory on the node where the printing process lives
------------------
     c_bands:  2 eigenvalues not converged
     ethr =  2.40E-08,  avg # of iterations = 17.2


     -----------------------------------------------
     Non-local corr. energy    =      81.65616345 Ry
     -----------------------------------------------


     total cpu time spent up to now is    33656.8 secs

     total energy              =  -46812.76773490 Ry
     estimated scf accuracy    <       0.00039683 Ry

     iteration # 10     ecut=    70.00 Ry     beta= 0.70
     Davidson diagonalization with overlap

---- Real-time Memory Report at c_bands before calling an iterative solver
          3687 MiB given to the printing process from OS
             0 MiB allocation reported by mallinfo(arena+hblkhd)
       1873968 MiB available memory on the node where the printing process lives
------------------
     c_bands:  1 eigenvalues not converged
     ethr =  1.47E-08,  avg # of iterations = 17.3


     -----------------------------------------------
     Non-local corr. energy    =      81.65630730 Ry
     -----------------------------------------------


     total cpu time spent up to now is    37314.0 secs

     total energy              =  -46812.76780037 Ry
     estimated scf accuracy    <       0.00001698 Ry

     iteration # 11     ecut=    70.00 Ry     beta= 0.70
     Davidson diagonalization with overlap

---- Real-time Memory Report at c_bands before calling an iterative solver
          3687 MiB given to the printing process from OS
             0 MiB allocation reported by mallinfo(arena+hblkhd)
       1873752 MiB available memory on the node where the printing process lives
------------------
     c_bands:  4 eigenvalues not converged
     ethr =  6.30E-10,  avg # of iterations = 16.0


     -----------------------------------------------
     Non-local corr. energy    =      81.65625578 Ry
     -----------------------------------------------


     total cpu time spent up to now is    41680.2 secs

     total energy              =  -46812.76780924 Ry
     estimated scf accuracy    <       0.00000644 Ry

     iteration # 12     ecut=    70.00 Ry     beta= 0.70
     Davidson diagonalization with overlap

---- Real-time Memory Report at c_bands before calling an iterative solver
          3687 MiB given to the printing process from OS
             0 MiB allocation reported by mallinfo(arena+hblkhd)
       1873742 MiB available memory on the node where the printing process lives
------------------
     ethr =  2.39E-10,  avg # of iterations = 16.7


     -----------------------------------------------
     Non-local corr. energy    =      81.65625208 Ry
     -----------------------------------------------


     total cpu time spent up to now is    45491.5 secs

     total energy              =  -46812.76781009 Ry
     estimated scf accuracy    <       0.00000154 Ry

     iteration # 13     ecut=    70.00 Ry     beta= 0.70
     Davidson diagonalization with overlap

---- Real-time Memory Report at c_bands before calling an iterative solver
          3687 MiB given to the printing process from OS
             0 MiB allocation reported by mallinfo(arena+hblkhd)
       1873725 MiB available memory on the node where the printing process lives
------------------
     c_bands:  1 eigenvalues not converged
     c_bands:  2 eigenvalues not converged
     ethr =  5.73E-11,  avg # of iterations = 17.5


     -----------------------------------------------
     Non-local corr. energy    =      81.65625667 Ry
     -----------------------------------------------


     total cpu time spent up to now is    49393.7 secs

     total energy              =  -46812.76781026 Ry
     estimated scf accuracy    <       0.00000168 Ry

     iteration # 14     ecut=    70.00 Ry     beta= 0.70
     Davidson diagonalization with overlap

---- Real-time Memory Report at c_bands before calling an iterative solver
          3687 MiB given to the printing process from OS
             0 MiB allocation reported by mallinfo(arena+hblkhd)
       1873688 MiB available memory on the node where the printing process lives
------------------
     c_bands:  3 eigenvalues not converged
     ethr =  5.73E-11,  avg # of iterations = 17.3


     -----------------------------------------------
     Non-local corr. energy    =      81.65627013 Ry
     -----------------------------------------------


     total cpu time spent up to now is    52251.1 secs

     total energy              =  -46812.76781043 Ry
     estimated scf accuracy    <       0.00000019 Ry

     iteration # 15     ecut=    70.00 Ry     beta= 0.70
     Davidson diagonalization with overlap

---- Real-time Memory Report at c_bands before calling an iterative solver
          3687 MiB given to the printing process from OS
             0 MiB allocation reported by mallinfo(arena+hblkhd)
       1873683 MiB available memory on the node where the printing process lives
------------------
     c_bands:  2 eigenvalues not converged
     ethr =  7.14E-12,  avg # of iterations = 17.3


     -----------------------------------------------
     Non-local corr. energy    =      81.65629360 Ry
     -----------------------------------------------


     total cpu time spent up to now is    55732.1 secs

     End of self-consistent calculation

          k = 0.0000 0.0000 0.0000 (241213 PWs)   bands (ev):

    -6.8630  -6.6599  -6.6552  -6.6310  -6.6307  -6.6306  -6.6300  -6.6299
    -6.6169  -6.4967  -6.4966  -6.4965  -6.4955  -6.4954  -6.4952  -6.4950
    -6.4947  -6.4947  -6.4940  -6.4939  -6.4805  -6.4370  -6.4344  -6.4339
    -6.4333  -6.4318  -6.4309  -6.4307  -6.4274  -6.4179  -6.4176  -6.4169
    -6.4159  -6.4155  -6.4138  -6.4025  -6.3791  -6.3790  -6.3782  -6.3756
    -6.3750  -6.3746  -6.3739  -6.3737  -6.3734  -6.3731  -6.3730  -6.3726
    -6.3722  -6.3714  -6.3713  -6.3710  -6.3706  -6.3704  -6.3701  -6.3699
    -6.3697  -6.3696  -6.3693  -6.3688  -6.3686  -6.3681  -6.3677  -6.3677
    -6.3671  -6.3662  -6.3661  -6.3655  -6.3655  -6.3653  -6.3648  -6.3646
    -6.3643  -6.3643  -6.3638  -6.3638  -6.3637  -6.3633  -6.3632  -6.3630
    -6.3629  -6.3626  -6.3624  -6.3516  -6.3456  -6.3451  -6.3431  -6.3419
    -6.3418  -6.3405  -6.3388  -6.3386  -6.3378  -6.3378  -6.3372  -6.3370
    -6.3368  -6.3362  -6.3360  -6.3338  -6.3336  -6.3332  -6.3331  -6.3331
    -6.3330  -6.3328  -6.3328  -6.3325  -6.3324  -6.3320  -6.3317  -6.3316
    -6.3314  -6.3303  -6.3301  -6.3295  -6.3295  -6.3295  -6.3290  -6.3287
    -6.3285  -6.3283  -6.3277  -6.3276  -6.3272  -6.3272  -6.3267  -6.3264
    -6.3263  -6.3261  -6.3261  -6.3256  -6.3254  -6.3254  -6.3249  -6.3247
    -6.3244  -6.3181  -6.3177  -6.3176  -6.3174  -6.3157  -6.3157  -6.3156
    -6.3153  -6.3153  -6.3145  -6.3143  -6.3142  -5.3440  -5.3149  -5.3149
    -5.3092  -5.3042  -5.3038  -5.2859  -5.2842  -5.2841  -5.2778  -5.2773
    -5.2724  -5.2685  -5.2670  -5.2670  -5.2645  -5.2644  -5.2591  -5.2590
    -5.2588  -5.2560  -5.2555  -5.2553  -5.2539  -5.2525  -5.2525  -5.2481
    -5.2481  -5.2478  -5.2473  -5.2468  -5.2467  -5.2457  -5.2457  -5.2433
    -5.2432  -5.2413  -5.2388  -5.2388  -5.2380  -5.2380  -5.2378  -5.2378
    -5.2373  -5.2366  -5.2362  -5.2361  -5.2360  -5.2357  -5.2352  -5.2352
    -5.2339  -5.2336  -5.2336  -5.2335  -5.2333  -5.2333  -5.2328  -5.2327
    -5.2324  -5.2323  -5.2323  -5.2323  -5.2292  -5.2291  -5.2285  -5.2284
    -5.2281  -5.2279  -5.2272  -5.2272  -5.2259  -5.2259  -5.2254  -5.2254
    -5.2249  -5.2233  -5.2233  -5.2210  -5.2209  -5.2206  -5.2198  -5.2189
    -5.2187  -5.2186  -5.2186  -5.2181  -5.2173  -5.2173  -5.2167  -5.2144
    -5.2144  -5.2130  -5.2130  -5.2118  -5.2118  -5.2116  -5.2116  -5.2109
    -5.2109  -5.2099  -5.2097  -5.2093  -5.2092  -5.2088  -5.2088  -5.2083
    -5.2083  -5.2078  -5.2076  -5.2067  -5.2066  -5.2061  -5.2061  -5.2058
    -5.2056  -5.2051  -5.2051  -5.2051  -5.2045  -5.2044  -5.2044  -5.2035
    -5.2035  -5.2035  -5.2033  -5.2033  -5.2030  -5.2028  -5.2028  -5.2019
    -5.2019  -5.2012  -5.2011  -5.1998  -5.1997  -5.1986  -5.1983  -5.1966
    -5.1965  -5.1956  -5.1953  -5.1953  -5.1943  -5.1943  -5.1932  -5.1928
    -5.1917  -5.1917  -5.1906  -5.1905  -5.1901  -5.1894  -5.1894  -5.1885
    -5.1884  -5.1884  -5.1877  -5.1877  -5.1870  -5.1868  -5.1868  -5.1862
    -5.1862  -5.1861  -5.1860  -5.1857  -5.1857  -5.1854  -5.1854  -5.1852
    -5.1850  -5.1849  -5.1849  -5.1848  -5.1846  -5.1842  -5.1842  -5.1841
    -5.1841  -5.1834  -5.1832  -5.1821  -5.1809  -5.1809  -5.1791  -5.1785
    -5.1785  -5.1784  -5.1774  -5.1773  -5.1771  -5.1771  -5.1765  -5.1759
    -5.1751  -5.1750  -5.1745  -5.1735  -5.1735  -5.1729  -5.1701  -5.1700
    -5.1699  -5.1698  -5.1684  -5.1679  -5.1678  -5.1672  -5.1672  -5.1663
    -5.1663  -5.1662  -5.1661  -5.1660  -5.1659  -5.1655  -5.1654  -5.1650
    -5.1650  -5.1649  -5.1647  -5.1647  -5.1646  -5.1645  -5.1645  -5.1642
    -5.1634  -5.1633  -5.1633  -5.1592  -5.1590  -5.1590  -5.1546  -5.1546
    -5.1534  -5.1533  -5.1519  -5.1489  -5.1489  -5.1476  -5.1466  -5.1465
    -5.1458  -5.1441  -5.1441  -5.1436  -5.1425  -5.1425  -5.1422  -5.1417
    -5.1415  -5.1407  -5.1391  -5.1391  -5.1381  -5.1366  -5.1366  -5.1350
    -5.1333  -5.1296  -5.1295  -5.1287  -5.1223  -5.1222  -5.1171  -5.1171
    -5.1149  -5.1144  -5.1144  -5.1143  -5.1122  -5.1115  -5.1115  -5.1112
    -5.1106  -5.1106  -5.1105  -5.1098  -5.1098  -5.1097  -5.1097  -5.1093
    -5.1093  -5.1093  -5.1093  -5.1079  -5.1079  -5.1079  -5.1077  -5.1076
    -5.1075  -5.1075  -5.1070  -5.1068  -5.1068  -5.1065  -5.1064  -5.1056
    -5.1052  -5.1051  -5.1049  -5.1038  -5.1026  -5.1026  -5.1021  -5.1009
    -5.1009  -5.1009  -5.1006  -5.0998  -5.0998  -5.0996  -5.0995  -5.0992
    -5.0991  -5.0990  -5.0990  -5.0988  -5.0987  -5.0987  -5.0979  -5.0978
    -5.0977  -5.0976  -5.0975  -5.0974  -5.0967  -5.0956  -5.0955  -5.0946
    -5.0946  -5.0945  -5.0938  -5.0938  -5.0935  -5.0935  -5.0930  -5.0925
    -5.0913  -5.0913  -5.0913  -5.0898  -5.0897  -5.0886  -5.0882  -5.0879
    -5.0873  -5.0873  -5.0871  -5.0867  -5.0867  -5.0860  -5.0860  -5.0857
    -5.0853  -5.0853  -5.0831  -5.0831  -5.0830  -5.0820  -5.0820  -5.0818
    -5.0798  -5.0796  -5.0796  -5.0795  -5.0795  -5.0794  -5.0788  -5.0787
    -5.0787  -5.0786  -5.0786  -5.0784  -5.0777  -5.0776  -5.0773  -5.0770
    -5.0768  -5.0768  -5.0760  -5.0760  -5.0757  -5.0756  -5.0752  -5.0749
    -5.0749  -5.0746  -5.0741  -5.0740  -5.0736  -5.0730  -5.0729  -5.0729
    -5.0726  -5.0726  -5.0725  -5.0724  -5.0722  -5.0719  -5.0719  -5.0716
    -5.0716  -5.0709  -5.0709  -5.0709  -5.0704  -5.0703  -5.0702  -5.0700
    -5.0694  -5.0694  -5.0674  -5.0674  -5.0673  -5.0672  -5.0666  -5.0666
    -5.0662  -5.0662  -5.0657  -5.0649  -5.0643  -5.0642  -5.0639  -5.0635
    -5.0635  -5.0628  -5.0626  -5.0626  -5.0615  -5.0606  -5.0605  -5.0583
    -5.0583  -5.0553  -5.0553  -5.0533  -5.0527  -5.0526  -5.0523  -5.0514
    -5.0514  -5.0513  -5.0509  -5.0509  -5.0505  -5.0499  -5.0499  -5.0498
    -5.0475  -5.0474  -5.0474  -5.0448  -5.0447  -5.0443  -5.0443  -5.0439
    -5.0439  -5.0429  -5.0429  -5.0423  -5.0420  -5.0419  -5.0419  -5.0414
    -5.0413  -5.0412  -5.0407  -5.0406  -5.0406  -5.0400  -5.0397  -5.0397
    -5.0386  -5.0386  -5.0370  -5.0359  -5.0353  -5.0352  -5.0340  -5.0340
    -5.0311  -5.0300  -5.0300  -5.0283  -5.0282  -5.0282  -5.0276  -5.0275
    -5.0264  -5.0253  -5.0251  -5.0251  -5.0248  -5.0247  -5.0242  -5.0240
    -5.0233  -5.0233  -5.0225  -5.0225  -5.0220  -5.0219  -5.0213  -5.0212
    -5.0204  -5.0204  -5.0204  -5.0202  -5.0201  -5.0200  -5.0197  -5.0193
    -5.0193  -5.0192  -5.0188  -5.0187  -5.0185  -5.0185  -5.0184  -5.0183
    -5.0182  -5.0180  -5.0179  -5.0175  -5.0175  -5.0169  -5.0168  -5.0167
    -5.0159  -5.0159  -5.0158  -5.0155  -5.0155  -5.0154  -5.0152  -5.0149
    -5.0149  -5.0147  -5.0147  -5.0145  -5.0141  -5.0141  -5.0139  -5.0135
    -5.0134  -5.0134  -5.0129  -5.0129  -5.0129  -5.0121  -5.0120  -5.0119
    -5.0119  -5.0118  -5.0118  -5.0117  -5.0111  -5.0111  -5.0107  -5.0102
    -5.0100  -5.0100  -5.0095  -5.0067  -5.0066  -5.0053  -5.0047  -5.0046
    -5.0027  -5.0021  -5.0020  -5.0020  -5.0015  -5.0010  -5.0010  -5.0005
    -5.0005  -5.0003  -5.0003  -4.9992  -4.9991  -4.9986  -4.9986  -4.9984
    -4.9983  -4.9971  -4.9970  -4.9970  -4.9966  -4.9966  -4.9964  -4.9953
    -4.9953  -4.9953  -4.9936  -4.9934  -4.9934  -4.9924  -4.9924  -4.9916
    -4.9830  -4.9824  -4.9823  -4.9809  -4.9808  -4.9804  -4.9794  -4.7797
    -4.7797  -4.7774  -4.7773  -4.7772  -4.7751  -4.7751  -4.7747  -4.7747
    -4.7747  -4.7745  -4.7092  -4.3298  -4.3296  -4.3294  -4.3277  -4.3276
    -4.3128  -4.2902  -4.2775  -4.0889  -4.0888  -4.0878  -4.0876  -4.0875
    -4.0846  -4.0845  -4.0839  -4.0839  -4.0832  -4.0831  -4.0540  -4.0178
    -4.0176  -4.0153  -4.0150  -4.0140  -4.0002  -3.9549  -3.9549  -3.9505
    -3.9504  -3.9493  -3.9490  -3.9489  -3.9488  -3.9484  -3.9482  -3.9482
    -3.8924  -3.8190  -3.8190  -3.8171  -3.8169  -3.8138  -3.8138  -3.8137
    -3.8127  -3.8126  -3.8124  -3.8120  -3.6931  -3.5115  -3.3971  -3.3970
    -3.3945  -3.3935  -3.3934  -3.3921  -3.3913  -3.3912  -3.3899  -3.3893
    -3.3892  -3.3848  -3.3845  -3.3840  -3.3840  -3.3814  -3.3814  -3.3463
    -3.2920  -3.2896  -3.2895  -3.2886  -3.2885  -3.2846  -3.2846  -3.2839
    -3.2835  -3.2835  -3.2832  -3.2793  -3.2737  -3.2736  -3.2711  -3.2710
    -3.2690  -3.2689  -3.2681  -3.2675  -3.2667  -3.2665  -3.2665  -3.2593
    -3.2522  -3.2522  -3.2495  -3.2494  -3.2493  -3.1198  -3.0688  -3.0652
    -3.0651  -3.0627  -3.0627  -3.0605  -3.0605  -3.0592  -3.0590  -3.0590
    -3.0587  -2.9821  -2.9468  -2.9467  -2.9463  -2.9426  -2.9425  -2.9300
    -2.9212  -2.9212  -2.9190  -2.9189  -2.9166  -2.9083  -2.9055  -2.9053
    -2.9044  -2.9037  -2.9036   2.0754   2.3359   2.5576   2.5576   2.5581
     2.5591   2.5592   2.5950   2.6214   2.6216   2.6221   2.6224   2.6225
     2.6227   2.6229   2.6230   2.6233   2.6234   2.6238   2.6243   2.6246
     2.6247   2.6248   2.6250   2.6250   2.6256   2.6260   2.6304   2.6818
     2.6821   2.6822   2.7103   2.7857   2.7864   2.8006   2.8066   2.8080
     2.8084   2.9408   2.9421   2.9421   2.9530   2.9530   2.9601   2.9938
     2.9942   2.9942   2.9948   2.9950   2.9951   2.9952   2.9954   3.0067
     3.0457   3.0459   3.0563   3.1328   3.1331   3.1334   3.1465   3.1465
     3.1596   3.2364   3.2365   3.2372   3.2390   3.2391   3.2392   3.2400
     3.2402   3.2577   3.2578   3.2584   3.2706   3.2852   3.2854   3.2861
     3.2865   3.2872   3.2877   3.2884   3.2892   3.3483   3.3851   3.3852
     3.4575   3.6047   3.6079   3.7017   3.7030   3.7031   3.7050   3.7051
     3.7060   3.7062   3.7070   3.7076   3.7077   3.7081   3.7086   3.7087
     3.7094   3.7466   3.7468   3.8209   3.8539   3.9350   3.9353   3.9492
[...]
Ga           -6.4862485802       13.1872333343        5.2686853205
Ga           -6.4896172715       13.1115880333       10.5730237776
Ga           -6.4894812991       13.1152867750       15.8574623414
Ga            3.1799000694        1.8359188400        5.2711195487
Ga            3.2457462949        1.8739351760       10.5732971139
Ga            3.2422763424        1.8719317979       15.8581636664
Ga            1.6229894657        4.6825030869        5.2838726780
Ga            1.6228147730        4.6831611983       10.5723977540
Ga            1.6228012415        4.6845124577       15.8589651887
Ga            0.0000612576        7.4928413337        5.2841866182
Ga           -0.0001395380        7.4933714353       10.5726480519
Ga           -0.0000981260        7.4935766884       15.8601880221
Ga           -1.6223517925       10.3029431674        5.2841866182
Ga           -1.6219931089       10.3025042225       10.5726480519
Ga           -1.6217946484       10.3024374598       15.8601880221
Ga           -3.2447120033       13.1136093476        5.2838726780
Ga           -3.2442294085       13.1131290036       10.5723977540
Ga           -3.2430659493       13.1124416553       15.8589651887
Ga            6.4822895426        1.8753900236        5.2860954778
Ga            6.4886708600        1.8725492590       10.5722811442
Ga            6.4881563526        1.8730921244       15.8610102935
Ga            4.8652778538        4.6761364252        5.2860954778
Ga            4.8660083381        4.6830831905       10.5722811442
Ga            4.8662212198        4.6823661814       15.8610102935
Ga            3.2446046359        7.4924262067        5.2839566462
Ga            3.2447900840        7.4928453529       10.5724489158
Ga            3.2447366615        7.4930774439       15.8599485060
Ga            1.6218347001       10.3025738898        5.2838380082
Ga            1.6218709807       10.3025948364       10.5724877439
Ga            1.6218657560       10.3025918199       15.8604045432
Ga           -0.0004396139       13.1130077203        5.2839566462
Ga            0.0000161014       13.1129587499       10.5724489158
Ga            0.0001903869       13.1127964392       15.8599485060
Ga            9.7336356330        1.8722875479        5.2836408632
Ga            9.7337388110        1.8729554067       10.5723523455
Ga            9.7337303682        1.8728251483       15.8607682566
Ga            8.1113162668        4.6830733091        5.2845072407
Ga            8.1115099225        4.6831851163       10.5728671831
Ga            8.1112104658        4.6830122249       15.8603425135
Ga            6.4882640761        7.4934359739        5.2836408632
Ga            6.4888940478        7.4931913993       10.5723523455
Ga            6.4887770193        7.4932492168       15.8607682566
Ga            4.8674549102       10.3028108158        5.2839777061
Ga            4.8671371421       10.3022458743       10.5724773457
Ga            4.8669267095       10.3022106715       15.8599604177
Ga            3.2448499892       13.1132449798        5.2839777061
Ga            3.2442018514       13.1132522553       10.5724773457
Ga            3.2440661486       13.1130876168       15.8599604177
Ga           12.9845497991        1.8752606450        5.2863132647
Ga           12.9784341892        1.8728392835       10.5724271215
Ga           12.9789261890        1.8733619164       15.8612296038
Ga           11.3562667810        4.6830966689        5.2846685888
Ga           11.3561092351        4.6832303885       10.5730468164
Ga           11.3563631340        4.6830714132       15.8605222575
Ga            9.7338117541        7.4932712087        5.2846685888
Ga            9.7338487857        7.4930679101       10.5730468164
Ga            9.7338380585        7.4933672807       15.8605222575
Ga            8.1162959369       10.3073236788        5.2863132647
Ga            8.1111411713       10.3032380860       10.5724271215
Ga            8.1118397846       10.3034028538       15.8612296038
Ga            6.4908433271       13.1136973314        5.2837850352
Ga            6.4894518474       13.1128939602       10.5722775627
Ga            6.4884717652       13.1123281095       15.8590248391
N             1.6222379972        0.9365980734        9.9282167294
N             1.6222812525        0.9366230469       15.2031186218
N             0.0073660388        3.7386259101        4.6285104865
N             0.0000814358        3.7470857822        9.9196920326
N             0.0003401310        3.7477081920       15.2069348387
N            -1.6205695258        6.5532760665        4.6318642364
N            -1.6224311628        6.5566587354        9.9197397300
N            -1.6224775690        6.5564606177       15.2072985904
N            -3.2463509803        9.3692121477        4.6318642364
N            -3.2443523215        9.3659085883        9.9197397300
N            -3.2445470996        9.3659674582       15.2072985904
N            -4.8699417360       12.1863707806        4.6285104865
N            -4.8662575734       12.1758321933        9.9196920326
N            -4.8655892031       12.1757450250       15.2069348387
N             4.8544668108        0.9349769583        4.6287107570
N             4.8673785714        0.9362399072        9.9195211523
N             4.8675433270        0.9358860693       15.2068575413
N             3.2369484770        3.7366008945        4.6287107570
N             3.2444981032        3.7471513328        9.9195211523
N             3.2442740484        3.7474709342       15.2068575413
N             1.6224063685        6.5571095205        4.6311336932
N             1.6222881144        6.5574665633        9.9204049233
N             1.6223017057        6.5582723654       15.2065534709
N            -0.0001582237        9.3661116887        4.6312347684
N             0.0000976262        9.3662594038        9.9200773881
N             0.0001775282        9.3663055352       15.2067511508
N            -1.6215431646       12.1757949291        4.6311336932
N            -1.6212930835       12.1755139966        9.9204049233
N            -1.6205884428       12.1751228660       15.2065534709
N             8.1075490413        0.9366699464        4.6317175739
N             8.1116698050        0.9366069884        9.9196215006
N             8.1114818261        0.9367414151       15.2071939878
N             6.4885950098        3.7461906047        4.6314627169
N             6.4894620565        3.7466911944        9.9212186147
N             6.4894426316        3.7466799794       15.2071311654
N             4.8649557632        6.5530062528        4.6317175739
N             4.8669616217        6.5566064179        9.9196215006
N             4.8669840492        6.5563764100       15.2071939878
N             3.2446392358        9.3661418164        4.6313733460
N             3.2443839931        9.3662051048        9.9202384779
N             3.2443022894        9.3662654253       15.2068986396
N             1.6222665974       12.1761736551        4.6313733460
N             1.6221937853       12.1759209643        9.9202384779
N             1.6222051726       12.1758200466       15.2068986396
N            11.3594955590        0.9366117367        4.6316964998
N            11.3555866314        0.9366568254        9.9196589451
N            11.3557543287        0.9368054015       15.2072134522
N             9.7336745045        3.7463358670        4.6316343875
N             9.7337166578        3.7465716267        9.9204604281
N             9.7336932539        3.7465450777       15.2074526086
N             8.1112605579        6.5564392534        4.6316343875
N             8.1114858085        6.5563578793        9.9204604281
N             8.1114511143        6.5563508855       15.2074526086
N             6.4908786109        9.3693036538        4.6316964998
N             6.4889631950        9.3658958788        9.9196589451
N             6.4891757143        9.3659668209       15.2072134522
N             4.8666386628       12.1759581813        4.6313728359
N             4.8658650804       12.1755115534        9.9205463802
N             4.8652790913       12.1751732324       15.2067680156
N            14.6133265172        0.9354040113        4.6290021297
N            14.5998777708        0.9362008844        9.9192815515
N            14.5995631436        0.9357651180       15.2066325846
N            12.9784403905        3.7459957824        4.6313139747
N            12.9776981766        3.7466527749        9.9210566976
N            12.9776680097        3.7466402050       15.2069234071
N            11.3559758886        6.5563742655        4.6314556909
N            11.3558064640        6.5562764481        9.9202707322
N            11.3558287706        6.5562893268       15.2072586310
N             9.7333489791        9.3666589824        4.6313139747
N             9.7335468444        9.3656877100        9.9210566976
N             9.7335208750        9.3656678697       15.2069234071
N             8.1167481691       12.1878077860        4.6290021297
N             8.1107139082       12.1757623934        9.9192815515
N             8.1101792097       12.1757078014       15.2066325846
N            -0.0049099258        1.8761518566        1.9842498484
N             0.0025999667        1.8718035902        7.2799504318
N            -0.0012868703        1.8740092802       12.5641611520
N            -1.6229175132        4.6843921375        1.9868580300
N            -1.6223029072        4.6828287782        7.2761820945
N            -1.6227948512        4.6836152010       12.5633063576
N            -3.2445579475        7.4929607847        1.9869435791
N            -3.2447852837        7.4928295321        7.2757772984
N            -3.2446397466        7.4929135580       12.5634824224
N            -4.8660295270       10.3016269201        1.9868580300
N            -4.8670761328       10.3029408642        7.2761820945
N            -4.8666410428       10.3021216168       12.5633063576
N            -6.4890331563       13.1069827348        1.9842498484
N            -6.4890439193       13.1156606257        7.2799504318
N            -6.4890771542       13.1111916811       12.5641611520
N             3.2484795777        1.8755132375        1.9857230147
N             3.2422363935        1.8719087335        7.2814903641
N             3.2458024374        1.8739675898       12.5644494573
N             1.6222265759        4.6857061947        1.9841230134
N             1.6221738872        4.6862138693        7.2758790012
N             1.6222178320        4.6838761688       12.5634447686
N            -0.0001433295        7.4935110342        1.9863057821
N            -0.0001410231        7.4934529653        7.2763805846
N            -0.0002260159        7.4932783434       12.5636296638
N            -1.6218741084       10.3024311396        1.9863057821
N            -1.6219232444       10.3024621714        7.2763805846
N            -1.6221169678       10.3024758764       12.5636296638
N            -3.2423194756       13.1113471118        1.9841230134
N            -3.2419061608       13.1110476447        7.2758790012
N            -3.2439086964       13.1122545523       12.5634447686
N             6.4903730298        1.8731384855        1.9870686073
N             6.4889176007        1.8733717390        7.2762298500
N             6.4898674613        1.8735234753       12.5634627751
N             4.8673697082        4.6842626996        1.9870686073
N             4.8668439971        4.6828856342        7.2762298500
N             4.8674503349        4.6836323695       12.5634627751
N             3.2447297921        7.4935967814        1.9860880920
N             3.2447369009        7.4935561227        7.2761655391
N             3.2447984242        7.4933525021       12.5634499669
N             1.6223118286       10.3028493601        1.9866286197
N             1.6223285157       10.3028589943        7.2762113120
N             1.6223455416       10.3028688243       12.5635750660
N             0.0006367116       13.1125308214        1.9860880920
N             0.0006050545       13.1125573071        7.2761655391
N             0.0004594756       13.1127123982       12.5634499669
N             9.7335189271        1.8732663458        1.9870576383
N             9.7335418998        1.8735054622        7.2758754380
N             9.7335834245        1.8733553830       12.5636140236
N             8.1113237240        4.6830776145        1.9868110894
N             8.1109412742        4.6828568070        7.2764166072
N             8.1117527545        4.6833253154       12.5638319435
N             6.4890533870        7.4928455048        1.9870576383
N             6.4892719542        7.4927458415        7.2758754380
N             6.4891627443        7.4928568425       12.5636140236
N             4.8662117843       10.3023924883        1.9861114202
N             4.8662774146       10.3024174389        7.2761815774
N             4.8665302251       10.3024796323       12.5634735035
N             3.2438661440       13.1123775650        1.9861114202
N             3.2439205669       13.1124219272        7.2761815774
N             3.2441008333       13.1126097708       12.5634735035
N            12.9768125417        1.8730327171        1.9872860648
N            12.9782774921        1.8733023932        7.2764427652
N            12.9774906900        1.8734692706       12.5635689489
N            11.3558715573        4.6831215690        1.9869600086
N            11.3562603610        4.6828963583        7.2765820576
N            11.3554804915        4.6833644753       12.5639834102
N             9.7336357064        7.4929164849        1.9869600086
N             9.7336350700        7.4933658041        7.2765820576
N             9.7336505365        7.4924563588       12.5639834102
N             8.1104978660       10.3017369812        1.9872860648
N             8.1114638875       10.3028708274        7.2764427652
N             8.1112150066       10.3021059982       12.5635689489
N             6.4868279690       13.1113790633        1.9842549071
N             6.4863273573       13.1110900350        7.2758307380
N             6.4883908251       13.1122813787       12.5633267052



     Writing config-only to output data dir ./GaN.save/
     NEW-OLD atomic charge density approx. for the potential

     Check: negative core charge=   -0.000003


     -----------------------------------------------
     Non-local corr. energy    =      81.65661944 Ry
     -----------------------------------------------


     total cpu time spent up to now is   152785.0 secs

     Self-consistent Calculation

     iteration #  1     ecut=    70.00 Ry     beta= 0.70
     Davidson diagonalization with overlap

---- Real-time Memory Report at c_bands before calling an iterative solver
          3687 MiB given to the printing process from OS
             0 MiB allocation reported by mallinfo(arena+hblkhd)
       1881563 MiB available memory on the node where the printing process lives
------------------
     ethr =  1.00E-06,  avg # of iterations =  3.0


     -----------------------------------------------
     Non-local corr. energy    =      81.65638869 Ry
     -----------------------------------------------


     total cpu time spent up to now is   153758.3 secs

     total energy              =  -46812.76712818 Ry
     estimated scf accuracy    <       0.00308408 Ry

     iteration #  2     ecut=    70.00 Ry     beta= 0.70
     Davidson diagonalization with overlap

---- Real-time Memory Report at c_bands before calling an iterative solver
          3687 MiB given to the printing process from OS
             0 MiB allocation reported by mallinfo(arena+hblkhd)
       1882037 MiB available memory on the node where the printing process lives
------------------

     Maximum CPU time exceeded

     max_seconds     =  154800.00
     elapsed seconds =  155091.34
     Calculation stopped in k-point loop, point #     1
     Calculation stopped in scf loop at iteration #     1

     Writing config to output data dir ./GaN.save/
 
     init_run     :    165.12s CPU    171.60s WALL (       1 calls)
     electrons    : 147544.45s CPU 148853.46s WALL (       4 calls)
     update_pot   :      8.30s CPU      8.47s WALL (       3 calls)
     forces       :    287.91s CPU    292.29s WALL (       3 calls)
     stress       :   5633.38s CPU   5689.20s WALL (       3 calls)

     Called by init_run:
     wfcinit      :    159.38s CPU    165.25s WALL (       1 calls)
     wfcinit:atom :      0.26s CPU      0.48s WALL (       3 calls)
     wfcinit:wfcr :    156.99s CPU    162.04s WALL (       3 calls)
     potinit      :      1.99s CPU      2.25s WALL (       1 calls)
     hinit0       :      1.15s CPU      1.27s WALL (       1 calls)

     Called by electrons:
     c_bands      : 146033.45s CPU 147319.75s WALL (      46 calls)
     sum_band     :   1413.51s CPU   1435.30s WALL (      45 calls)
     v_of_rho     :     44.07s CPU     47.28s WALL (      49 calls)
     v_h          :      0.42s CPU      0.43s WALL (      49 calls)
     v_xc         :     49.01s CPU     52.55s WALL (      55 calls)
     newd         :     12.69s CPU     18.13s WALL (      49 calls)
     PAW_pot      :     41.37s CPU     41.69s WALL (      52 calls)
     mix_rho      :      2.37s CPU      2.57s WALL (      45 calls)
     vdW_kernel   :      0.25s CPU      0.26s WALL (       1 calls)

     Called by c_bands:
     init_us_2    :     69.47s CPU     70.83s WALL (     301 calls)
     init_us_2:cp :     69.46s CPU     70.83s WALL (     301 calls)
     cegterg      : 136272.50s CPU 137448.42s WALL (     141 calls)

     Called by sum_band:
     sum_band:wei :      0.31s CPU      0.32s WALL (      45 calls)
     sum_band:loo :   1390.81s CPU   1402.24s WALL (      45 calls)
     sum_band:buf :     16.65s CPU     16.94s WALL (     135 calls)
     sum_band:ini :     35.08s CPU     35.63s WALL (     135 calls)
     sum_band:cal :   1023.63s CPU   1030.95s WALL (     144 calls)
     sum_band:bec :      8.20s CPU      8.33s WALL (     144 calls)
     addusdens    :     11.09s CPU     16.56s WALL (      45 calls)
     addusd:skk   :      1.60s CPU      4.55s WALL (      90 calls)
     addusd:dgemm :      6.78s CPU      8.99s WALL (      90 calls)
     addusd:qvan2 :      2.23s CPU      2.28s WALL (      90 calls)

     Called by *egterg:
     cdiaghg      : 115480.40s CPU 116195.51s WALL (    2341 calls)
     cegterg:over :   4312.36s CPU   4421.53s WALL (    2212 calls)
     cegterg:upda :   2767.78s CPU   2810.33s WALL (    2212 calls)
     cegterg:last :   1423.83s CPU   1434.33s WALL (     152 calls)
     h_psi        :   8347.01s CPU   8473.83s WALL (    2356 calls)
     s_psi        :   2975.47s CPU   3024.99s WALL (    2356 calls)
     g_psi        :      8.73s CPU      8.85s WALL (    2212 calls)

     Called by h_psi:
     h_psi:calbec :   3154.52s CPU   3179.26s WALL (    2356 calls)
     vloc_psi     :   2181.61s CPU   2204.29s WALL (    2356 calls)
     add_vuspsi   :   2975.74s CPU   3029.12s WALL (    2356 calls)

     General routines
     calbec       :   4720.78s CPU   4757.16s WALL (    2545 calls)
     fft          :     21.33s CPU     21.61s WALL (    3591 calls)
     ffts         :      0.60s CPU      0.61s WALL (      94 calls)
     fftw         :   2348.23s CPU   2372.90s WALL ( 1555939 calls)
     interpolate  :      0.60s CPU      0.61s WALL (      49 calls)
     davcio       :      0.00s CPU      0.54s WALL (       5 calls)
 
     Parallel routines

     PAW routines
     PAW_pot      :     41.37s CPU     41.69s WALL (      52 calls)
     PAW_symme    :      0.19s CPU      0.19s WALL (      96 calls)
 
     PWSCF        :   1d18h41m CPU   1d19h 5m WALL

 
   This run was terminated on:   5:47:24  22May2024            

=------------------------------------------------------------------------------=
   JOB DONE.
=------------------------------------------------------------------------------=
