
     Program PWSCF v.7.1 starts on 13May2024 at 21:53:34 

     This program is part of the open-source Quantum ESPRESSO suite
     for quantum simulation of materials; please cite
         "P. Giannozzi et al., J. Phys.:Condens. Matter 21 395502 (2009);
         "P. Giannozzi et al., J. Phys.:Condens. Matter 29 465901 (2017);
         "P. Giannozzi et al., J. Chem. Phys. 152 154105 (2020);
          URL http://www.quantum-espresso.org", 
     in publications or presentations arising from this work. More details at
     http://www.quantum-espresso.org/quote

     Parallel version (MPI & OpenMP), running on     128 processor cores
     Number of MPI processes:               128
     Threads/MPI process:                     1

     MPI processes distributed on     1 nodes
     1554211 MiB available memory on the printing compute node when the environment starts
 
     Reading input from espresso.pwi
Warning: card &CELL ignored
Warning: card    CELL_DYNAMICS    = 'BFGS' ignored
Warning: card / ignored

     Current dimensions of program PWSCF are:
     Max number of different atomic species (ntypx) = 10
     Max number of k-points (npk) =  40000
     Max angular momentum in pseudopotentials (lmaxx) =  4
     file Ga.pbe-dn-kjpaw_psl.1.0.0.UPF: wavefunction(s)  4S renormalized
     file N.pbe-n-kjpaw_psl.1.0.0.UPF: wavefunction(s)  2S renormalized

     **************************************************************************
     Initializing libbeef V0.1.2 with the BEEF-vdW functional.
     Citation: Wellendorff et al., PRB 85, 235149 (2012).
     **************************************************************************


     IMPORTANT: XC functional enforced from input :
     Exchange-correlation= BEEF-VDW
                           (   1   4  43  14   2   0   0)
     Any further DFT definition will be discarded
     Please, verify this is what you really want

 
     K-points division:     npool     =       2
     R & G space division:  proc/nbgrp/npool/nimage =      64
     Subspace diagonalization in iterative solution of the eigenvalue problem:
     a serial algorithm will be used

 
     Parallelization info
     --------------------
     sticks:   dense  smooth     PW     G-vecs:    dense   smooth      PW
     Min         354     283     73                42160    30167    3987
     Max         356     285     74                42163    30170    3996
     Sum       22693   18145   4705              2698283  1930731  255309
 
     Using Slab Decomposition
 


     bravais-lattice index     =            4
     lattice parameter (alat)  =      30.6565  a.u.
     unit-cell volume          =   24400.9461 (a.u.)^3
     number of atoms/cell      =          299
     number of atomic types    =            2
     number of electrons       =      2697.00
     number of Kohn-Sham states=         1619
     kinetic-energy cutoff     =      70.0000  Ry
     charge density cutoff     =     350.0000  Ry
     scf convergence threshold =      1.0E-07
     mixing beta               =       0.7000
     number of iterations used =            8  plain     mixing
     energy convergence thresh.=      1.0E-04
     force convergence thresh. =      1.0E-03
     Exchange-correlation= BEEF-VDW
                           (   1   4  43  14   2   0   0)
     nstep                     =           50


     celldm(1)=  30.656540  celldm(2)=   0.000000  celldm(3)=   0.977927
     celldm(4)=   0.000000  celldm(5)=   0.000000  celldm(6)=   0.000000

     crystal axes: (cart. coord. in units of alat)
               a(1) = (   1.000000   0.000000   0.000000 )  
               a(2) = (  -0.500000   0.866025   0.000000 )  
               a(3) = (   0.000000   0.000000   0.977927 )  

     reciprocal axes: (cart. coord. in units 2 pi/alat)
               b(1) = (  1.000000  0.577350 -0.000000 )  
               b(2) = (  0.000000  1.154701  0.000000 )  
               b(3) = (  0.000000 -0.000000  1.022571 )  


     PseudoPot. # 1 for Ga read from file:
     //group///packages/espresso/pseudo/psl_1.0.0/pslibrary.1.0.0/pbe/PSEUDOPOTENTIALS/Ga.pbe-dn-kjpaw_psl.1.0.0.UPF
     MD5 check sum: cd2a01e492f15b435d17032472d8505c
     Pseudo is Projector augmented-wave + core cor, Zval = 13.0
     Generated using 'atomic' code by A. Dal Corso  v.7.1
     Shape of augmentation charge: PSQ
     Using radial grid of 1205 points,  6 beta functions with: 
                l(1) =   0
                l(2) =   0
                l(3) =   1
                l(4) =   1
                l(5) =   2
                l(6) =   2
     Q(r) pseudized with 0 coefficients 


     PseudoPot. # 2 for N  read from file:
     //group///packages/espresso/pseudo/psl_1.0.0/pslibrary.1.0.0/pbe/PSEUDOPOTENTIALS/N.pbe-n-kjpaw_psl.1.0.0.UPF
     MD5 check sum: f77f775694dac7e2c3fe1c82443d1a16
     Pseudo is Projector augmented-wave + core cor, Zval =  5.0
     Generated using 'atomic' code by A. Dal Corso  v.7.1
     Shape of augmentation charge: PSQ
     Using radial grid of 1085 points,  4 beta functions with: 
                l(1) =   0
                l(2) =   0
                l(3) =   1
                l(4) =   1
     Q(r) pseudized with 0 coefficients 


     atomic species   valence    mass     pseudopotential
        Ga            13.00    69.72300     Ga( 1.00)
        N              5.00    14.00700     N ( 1.00)

      2 Sym. Ops. (no inversion) found


                                    s                        frac. trans.

      isym =  1     identity                                     

 cryst.   s( 1) = (     1          0          0      )
                  (     0          1          0      )
                  (     0          0          1      )

 cart.    s( 1) = (  1.0000000  0.0000000  0.0000000 )
                  (  0.0000000  1.0000000  0.0000000 )
                  (  0.0000000  0.0000000  1.0000000 )


      isym =  2     inv. 180 deg rotation - cryst. axis [0,1,0]  

 cryst.   s( 2) = (     1          1          0      )
                  (     0         -1          0      )
                  (     0          0          1      )

 cart.    s( 2) = (  0.5000000  0.8660254  0.0000000 )
                  (  0.8660254 -0.5000000  0.0000000 )
                  (  0.0000000  0.0000000  1.0000000 )


     point group C_s (m)    
     there are  2 classes
     the character table:

       E     s    
A'     1.00  1.00
A''    1.00 -1.00

     the symmetry operations in each class and the name of the first element:

     E        1
          identity                                               
     s        2
          inv. 180 deg rotation - cryst. axis [0,1,0]            

   Cartesian axes

     site n.     atom                  positions (alat units)
         1           Ga  tau(   1) = (   0.1000001   0.0577350   0.1627148  )
         2           Ga  tau(   2) = (   0.1000001   0.0577350   0.4886906  )
         3           Ga  tau(   3) = (   0.1000001   0.0577350   0.8146665  )
         4           Ga  tau(   4) = (   0.0000001   0.2309401   0.1627148  )
         5           Ga  tau(   5) = (   0.0000001   0.2309401   0.4886906  )
         6           Ga  tau(   6) = (   0.0000001   0.2309401   0.8146665  )
         7           Ga  tau(   7) = (  -0.0999999   0.4041451   0.1627148  )
         8           Ga  tau(   8) = (  -0.0999999   0.4041451   0.4886906  )
         9           Ga  tau(   9) = (  -0.0999999   0.4041451   0.8146665  )
        10           Ga  tau(  10) = (  -0.1999999   0.5773502   0.1627148  )
        11           Ga  tau(  11) = (  -0.1999999   0.5773502   0.4886906  )
        12           Ga  tau(  12) = (  -0.1999999   0.5773502   0.8146665  )
        13           Ga  tau(  13) = (  -0.2999999   0.7505553   0.1627148  )
        14           Ga  tau(  14) = (  -0.2999999   0.7505553   0.4886906  )
        15           Ga  tau(  15) = (  -0.2999999   0.7505553   0.8146665  )
        16           Ga  tau(  16) = (   0.3000001   0.0577350   0.1627148  )
        17           Ga  tau(  17) = (   0.3000001   0.0577350   0.4886906  )
        18           Ga  tau(  18) = (   0.3000001   0.0577350   0.8146665  )
        19           Ga  tau(  19) = (   0.2000001   0.2309401   0.1627148  )
        20           Ga  tau(  20) = (   0.2000001   0.2309401   0.4886906  )
        21           Ga  tau(  21) = (   0.2000001   0.2309401   0.8146665  )
        22           Ga  tau(  22) = (   0.1000001   0.4041451   0.1627148  )
        23           Ga  tau(  23) = (   0.1000001   0.4041451   0.4886906  )
        24           Ga  tau(  24) = (   0.1000001   0.4041451   0.8146665  )
        25           Ga  tau(  25) = (   0.0000001   0.5773502   0.1627148  )
        26           Ga  tau(  26) = (   0.0000001   0.5773502   0.4886906  )
        27           Ga  tau(  27) = (   0.0000001   0.5773502   0.8146665  )
        28           Ga  tau(  28) = (  -0.0999999   0.7505553   0.1627148  )
        29           Ga  tau(  29) = (  -0.0999999   0.7505553   0.4886906  )
        30           Ga  tau(  30) = (  -0.0999999   0.7505553   0.8146665  )
        31           Ga  tau(  31) = (   0.5000001   0.0577350   0.1627148  )
        32           Ga  tau(  32) = (   0.5000001   0.0577350   0.4886906  )
        33           Ga  tau(  33) = (   0.5000001   0.0577350   0.8146665  )
        34           Ga  tau(  34) = (   0.4000001   0.2309401   0.1627148  )
        35           Ga  tau(  35) = (   0.4000001   0.2309401   0.4886906  )
        36           Ga  tau(  36) = (   0.4000001   0.2309401   0.8146665  )
        37           Ga  tau(  37) = (   0.3000001   0.4041451   0.1627148  )
        38           Ga  tau(  38) = (   0.3000001   0.4041451   0.4886906  )
        39           Ga  tau(  39) = (   0.3000001   0.4041451   0.8146665  )
        40           Ga  tau(  40) = (   0.2000001   0.5773502   0.1627148  )
        41           Ga  tau(  41) = (   0.2000001   0.5773502   0.4886906  )
        42           Ga  tau(  42) = (   0.2000001   0.5773502   0.8146665  )
        43           Ga  tau(  43) = (   0.1000001   0.7505553   0.1627148  )
        44           Ga  tau(  44) = (   0.1000001   0.7505553   0.4886906  )
        45           Ga  tau(  45) = (   0.1000001   0.7505553   0.8146665  )
        46           Ga  tau(  46) = (   0.7000001   0.0577350   0.1627148  )
        47           Ga  tau(  47) = (   0.7000001   0.0577350   0.4886906  )
        48           Ga  tau(  48) = (   0.7000001   0.0577350   0.8146665  )
        49           Ga  tau(  49) = (   0.6000001   0.2309401   0.1627148  )
        50           Ga  tau(  50) = (   0.6000001   0.2309401   0.4886906  )
        51           Ga  tau(  51) = (   0.6000001   0.2309401   0.8146665  )
        52           Ga  tau(  52) = (   0.5000001   0.4041451   0.1627148  )
        53           Ga  tau(  53) = (   0.5000001   0.4041451   0.4886906  )
        54           Ga  tau(  54) = (   0.5000001   0.4041451   0.8146665  )
        55           Ga  tau(  55) = (   0.4000001   0.5773502   0.1627148  )
        56           Ga  tau(  56) = (   0.4000001   0.5773502   0.4886906  )
        57           Ga  tau(  57) = (   0.4000001   0.5773502   0.8146665  )
        58           Ga  tau(  58) = (   0.3000001   0.7505553   0.1627148  )
        59           Ga  tau(  59) = (   0.3000001   0.7505553   0.4886906  )
        60           Ga  tau(  60) = (   0.3000001   0.7505553   0.8146665  )
        61           Ga  tau(  61) = (   0.9000001   0.0577350   0.1627148  )
        62           Ga  tau(  62) = (   0.9000001   0.0577350   0.4886906  )
        63           Ga  tau(  63) = (   0.9000001   0.0577350   0.8146665  )
        64           Ga  tau(  64) = (   0.8000001   0.2309401   0.1627148  )
        65           Ga  tau(  65) = (   0.8000001   0.2309401   0.4886906  )
        66           Ga  tau(  66) = (   0.8000001   0.2309401   0.8146665  )
        67           Ga  tau(  67) = (   0.7000001   0.4041451   0.1627148  )
        68           Ga  tau(  68) = (   0.7000001   0.4041451   0.4886906  )
        69           Ga  tau(  69) = (   0.7000001   0.4041451   0.8146665  )
        70           Ga  tau(  70) = (   0.6000001   0.5773502   0.1627148  )
        71           Ga  tau(  71) = (   0.6000001   0.5773502   0.4886906  )
        72           Ga  tau(  72) = (   0.6000001   0.5773502   0.8146665  )
        73           Ga  tau(  73) = (   0.5000001   0.7505553   0.1627148  )
        74           Ga  tau(  74) = (   0.5000001   0.7505553   0.4886906  )
        75           Ga  tau(  75) = (   0.5000001   0.7505553   0.8146665  )
        76           Ga  tau(  76) = (  -0.0000001   0.1154701   0.3257027  )
        77           Ga  tau(  77) = (  -0.0000001   0.1154701   0.6516786  )
        78           Ga  tau(  78) = (  -0.0000001   0.1154701   0.9776544  )
        79           Ga  tau(  79) = (  -0.1000001   0.2886752   0.3257027  )
        80           Ga  tau(  80) = (  -0.1000001   0.2886752   0.6516786  )
        81           Ga  tau(  81) = (  -0.1000001   0.2886752   0.9776544  )
        82           Ga  tau(  82) = (  -0.2000001   0.4618803   0.3257027  )
        83           Ga  tau(  83) = (  -0.2000001   0.4618803   0.6516786  )
        84           Ga  tau(  84) = (  -0.2000001   0.4618803   0.9776544  )
        85           Ga  tau(  85) = (  -0.3000001   0.6350854   0.3257027  )
        86           Ga  tau(  86) = (  -0.3000001   0.6350854   0.6516786  )
        87           Ga  tau(  87) = (  -0.3000001   0.6350854   0.9776544  )
        88           Ga  tau(  88) = (  -0.4000001   0.8082905   0.3257027  )
        89           Ga  tau(  89) = (  -0.4000001   0.8082905   0.6516786  )
        90           Ga  tau(  90) = (  -0.4000001   0.8082905   0.9776544  )
        91           Ga  tau(  91) = (   0.1999999   0.1154701   0.3257027  )
        92           Ga  tau(  92) = (   0.1999999   0.1154701   0.6516786  )
        93           Ga  tau(  93) = (   0.1999999   0.1154701   0.9776544  )
        94           Ga  tau(  94) = (   0.0999999   0.2886752   0.3257027  )
        95           Ga  tau(  95) = (   0.0999999   0.2886752   0.6516786  )
        96           Ga  tau(  96) = (   0.0999999   0.2886752   0.9776544  )
        97           Ga  tau(  97) = (  -0.0000001   0.4618803   0.3257027  )
        98           Ga  tau(  98) = (  -0.0000001   0.4618803   0.6516786  )
        99           Ga  tau(  99) = (  -0.0000001   0.4618803   0.9776544  )
       100           Ga  tau( 100) = (  -0.1000001   0.6350854   0.3257027  )
       101           Ga  tau( 101) = (  -0.1000001   0.6350854   0.6516786  )
       102           Ga  tau( 102) = (  -0.1000001   0.6350854   0.9776544  )
       103           Ga  tau( 103) = (  -0.2000001   0.8082905   0.3257027  )
       104           Ga  tau( 104) = (  -0.2000001   0.8082905   0.6516786  )
       105           Ga  tau( 105) = (  -0.2000001   0.8082905   0.9776544  )
       106           Ga  tau( 106) = (   0.3999999   0.1154701   0.3257027  )
       107           Ga  tau( 107) = (   0.3999999   0.1154701   0.6516786  )
       108           Ga  tau( 108) = (   0.3999999   0.1154701   0.9776544  )
       109           Ga  tau( 109) = (   0.2999999   0.2886752   0.3257027  )
       110           Ga  tau( 110) = (   0.2999999   0.2886752   0.6516786  )
       111           Ga  tau( 111) = (   0.2999999   0.2886752   0.9776544  )
       112           Ga  tau( 112) = (   0.1999999   0.4618803   0.3257027  )
       113           Ga  tau( 113) = (   0.1999999   0.4618803   0.6516786  )
       114           Ga  tau( 114) = (   0.1999999   0.4618803   0.9776544  )
       115           Ga  tau( 115) = (   0.0999999   0.6350854   0.3257027  )
       116           Ga  tau( 116) = (   0.0999999   0.6350854   0.6516786  )
       117           Ga  tau( 117) = (   0.0999999   0.6350854   0.9776544  )
       118           Ga  tau( 118) = (  -0.0000001   0.8082905   0.3257027  )
       119           Ga  tau( 119) = (  -0.0000001   0.8082905   0.6516786  )
       120           Ga  tau( 120) = (  -0.0000001   0.8082905   0.9776544  )
       121           Ga  tau( 121) = (   0.5999999   0.1154701   0.3257027  )
       122           Ga  tau( 122) = (   0.5999999   0.1154701   0.6516786  )
       123           Ga  tau( 123) = (   0.5999999   0.1154701   0.9776544  )
       124           Ga  tau( 124) = (   0.4999999   0.2886752   0.3257027  )
       125           Ga  tau( 125) = (   0.4999999   0.2886752   0.6516786  )
       126           Ga  tau( 126) = (   0.4999999   0.2886752   0.9776544  )
       127           Ga  tau( 127) = (   0.3999999   0.4618803   0.3257027  )
       128           Ga  tau( 128) = (   0.3999999   0.4618803   0.6516786  )
       129           Ga  tau( 129) = (   0.3999999   0.4618803   0.9776544  )
       130           Ga  tau( 130) = (   0.2999999   0.6350854   0.3257027  )
       131           Ga  tau( 131) = (   0.2999999   0.6350854   0.6516786  )
       132           Ga  tau( 132) = (   0.2999999   0.6350854   0.9776544  )
       133           Ga  tau( 133) = (   0.1999999   0.8082905   0.3257027  )
       134           Ga  tau( 134) = (   0.1999999   0.8082905   0.6516786  )
       135           Ga  tau( 135) = (   0.1999999   0.8082905   0.9776544  )
       136           Ga  tau( 136) = (   0.7999999   0.1154701   0.3257027  )
       137           Ga  tau( 137) = (   0.7999999   0.1154701   0.6516786  )
       138           Ga  tau( 138) = (   0.7999999   0.1154701   0.9776544  )
       139           Ga  tau( 139) = (   0.6999999   0.2886752   0.3257027  )
       140           Ga  tau( 140) = (   0.6999999   0.2886752   0.6516786  )
       141           Ga  tau( 141) = (   0.6999999   0.2886752   0.9776544  )
       142           Ga  tau( 142) = (   0.5999999   0.4618803   0.3257027  )
       143           Ga  tau( 143) = (   0.5999999   0.4618803   0.6516786  )
       144           Ga  tau( 144) = (   0.5999999   0.4618803   0.9776544  )
       145           Ga  tau( 145) = (   0.4999999   0.6350854   0.3257027  )
       146           Ga  tau( 146) = (   0.4999999   0.6350854   0.6516786  )
       147           Ga  tau( 147) = (   0.4999999   0.6350854   0.9776544  )
       148           Ga  tau( 148) = (   0.3999999   0.8082905   0.3257027  )
       149           Ga  tau( 149) = (   0.3999999   0.8082905   0.6516786  )
       150           Ga  tau( 150) = (   0.3999999   0.8082905   0.9776544  )
       151           N   tau( 151) = (   0.1000001   0.0577350   0.6114777  )
       152           N   tau( 152) = (   0.1000001   0.0577350   0.9374535  )
       153           N   tau( 153) = (   0.0000001   0.2309401   0.2855019  )
       154           N   tau( 154) = (   0.0000001   0.2309401   0.6114777  )
       155           N   tau( 155) = (   0.0000001   0.2309401   0.9374535  )
       156           N   tau( 156) = (  -0.0999999   0.4041451   0.2855019  )
       157           N   tau( 157) = (  -0.0999999   0.4041451   0.6114777  )
       158           N   tau( 158) = (  -0.0999999   0.4041451   0.9374535  )
       159           N   tau( 159) = (  -0.1999999   0.5773502   0.2855019  )
       160           N   tau( 160) = (  -0.1999999   0.5773502   0.6114777  )
       161           N   tau( 161) = (  -0.1999999   0.5773502   0.9374535  )
       162           N   tau( 162) = (  -0.2999999   0.7505553   0.2855019  )
       163           N   tau( 163) = (  -0.2999999   0.7505553   0.6114777  )
       164           N   tau( 164) = (  -0.2999999   0.7505553   0.9374535  )
       165           N   tau( 165) = (   0.3000001   0.0577350   0.2855019  )
       166           N   tau( 166) = (   0.3000001   0.0577350   0.6114777  )
       167           N   tau( 167) = (   0.3000001   0.0577350   0.9374535  )
       168           N   tau( 168) = (   0.2000001   0.2309401   0.2855019  )
       169           N   tau( 169) = (   0.2000001   0.2309401   0.6114777  )
       170           N   tau( 170) = (   0.2000001   0.2309401   0.9374535  )
       171           N   tau( 171) = (   0.1000001   0.4041451   0.2855019  )
       172           N   tau( 172) = (   0.1000001   0.4041451   0.6114777  )
       173           N   tau( 173) = (   0.1000001   0.4041451   0.9374535  )
       174           N   tau( 174) = (   0.0000001   0.5773502   0.2855019  )
       175           N   tau( 175) = (   0.0000001   0.5773502   0.6114777  )
       176           N   tau( 176) = (   0.0000001   0.5773502   0.9374535  )
       177           N   tau( 177) = (  -0.0999999   0.7505553   0.2855019  )
       178           N   tau( 178) = (  -0.0999999   0.7505553   0.6114777  )
       179           N   tau( 179) = (  -0.0999999   0.7505553   0.9374535  )
       180           N   tau( 180) = (   0.5000001   0.0577350   0.2855019  )
       181           N   tau( 181) = (   0.5000001   0.0577350   0.6114777  )
       182           N   tau( 182) = (   0.5000001   0.0577350   0.9374535  )
       183           N   tau( 183) = (   0.4000001   0.2309401   0.2855019  )
       184           N   tau( 184) = (   0.4000001   0.2309401   0.6114777  )
       185           N   tau( 185) = (   0.4000001   0.2309401   0.9374535  )
       186           N   tau( 186) = (   0.3000001   0.4041451   0.2855019  )
       187           N   tau( 187) = (   0.3000001   0.4041451   0.6114777  )
       188           N   tau( 188) = (   0.3000001   0.4041451   0.9374535  )
       189           N   tau( 189) = (   0.2000001   0.5773502   0.2855019  )
       190           N   tau( 190) = (   0.2000001   0.5773502   0.6114777  )
       191           N   tau( 191) = (   0.2000001   0.5773502   0.9374535  )
       192           N   tau( 192) = (   0.1000001   0.7505553   0.2855019  )
       193           N   tau( 193) = (   0.1000001   0.7505553   0.6114777  )
       194           N   tau( 194) = (   0.1000001   0.7505553   0.9374535  )
       195           N   tau( 195) = (   0.7000001   0.0577350   0.2855019  )
       196           N   tau( 196) = (   0.7000001   0.0577350   0.6114777  )
       197           N   tau( 197) = (   0.7000001   0.0577350   0.9374535  )
       198           N   tau( 198) = (   0.6000001   0.2309401   0.2855019  )
       199           N   tau( 199) = (   0.6000001   0.2309401   0.6114777  )
       200           N   tau( 200) = (   0.6000001   0.2309401   0.9374535  )
       201           N   tau( 201) = (   0.5000001   0.4041451   0.2855019  )
       202           N   tau( 202) = (   0.5000001   0.4041451   0.6114777  )
       203           N   tau( 203) = (   0.5000001   0.4041451   0.9374535  )
       204           N   tau( 204) = (   0.4000001   0.5773502   0.2855019  )
       205           N   tau( 205) = (   0.4000001   0.5773502   0.6114777  )
       206           N   tau( 206) = (   0.4000001   0.5773502   0.9374535  )
       207           N   tau( 207) = (   0.3000001   0.7505553   0.2855019  )
       208           N   tau( 208) = (   0.3000001   0.7505553   0.6114777  )
       209           N   tau( 209) = (   0.3000001   0.7505553   0.9374535  )
       210           N   tau( 210) = (   0.9000001   0.0577350   0.2855019  )
       211           N   tau( 211) = (   0.9000001   0.0577350   0.6114777  )
       212           N   tau( 212) = (   0.9000001   0.0577350   0.9374535  )
       213           N   tau( 213) = (   0.8000001   0.2309401   0.2855019  )
       214           N   tau( 214) = (   0.8000001   0.2309401   0.6114777  )
       215           N   tau( 215) = (   0.8000001   0.2309401   0.9374535  )
       216           N   tau( 216) = (   0.7000001   0.4041451   0.2855019  )
       217           N   tau( 217) = (   0.7000001   0.4041451   0.6114777  )
       218           N   tau( 218) = (   0.7000001   0.4041451   0.9374535  )
       219           N   tau( 219) = (   0.6000001   0.5773502   0.2855019  )
       220           N   tau( 220) = (   0.6000001   0.5773502   0.6114777  )
       221           N   tau( 221) = (   0.6000001   0.5773502   0.9374535  )
       222           N   tau( 222) = (   0.5000001   0.7505553   0.2855019  )
       223           N   tau( 223) = (   0.5000001   0.7505553   0.6114777  )
       224           N   tau( 224) = (   0.5000001   0.7505553   0.9374535  )
       225           N   tau( 225) = (  -0.0000001   0.1154701   0.1225140  )
       226           N   tau( 226) = (  -0.0000001   0.1154701   0.4484898  )
       227           N   tau( 227) = (  -0.0000001   0.1154701   0.7744656  )
       228           N   tau( 228) = (  -0.1000001   0.2886752   0.1225140  )
       229           N   tau( 229) = (  -0.1000001   0.2886752   0.4484898  )
       230           N   tau( 230) = (  -0.1000001   0.2886752   0.7744656  )
       231           N   tau( 231) = (  -0.2000001   0.4618803   0.1225140  )
       232           N   tau( 232) = (  -0.2000001   0.4618803   0.4484898  )
       233           N   tau( 233) = (  -0.2000001   0.4618803   0.7744656  )
       234           N   tau( 234) = (  -0.3000001   0.6350854   0.1225140  )
       235           N   tau( 235) = (  -0.3000001   0.6350854   0.4484898  )
       236           N   tau( 236) = (  -0.3000001   0.6350854   0.7744656  )
       237           N   tau( 237) = (  -0.4000001   0.8082905   0.1225140  )
       238           N   tau( 238) = (  -0.4000001   0.8082905   0.4484898  )
       239           N   tau( 239) = (  -0.4000001   0.8082905   0.7744656  )
       240           N   tau( 240) = (   0.1999999   0.1154701   0.1225140  )
       241           N   tau( 241) = (   0.1999999   0.1154701   0.4484898  )
       242           N   tau( 242) = (   0.1999999   0.1154701   0.7744656  )
       243           N   tau( 243) = (   0.0999999   0.2886752   0.1225140  )
       244           N   tau( 244) = (   0.0999999   0.2886752   0.4484898  )
       245           N   tau( 245) = (   0.0999999   0.2886752   0.7744656  )
       246           N   tau( 246) = (  -0.0000001   0.4618803   0.1225140  )
       247           N   tau( 247) = (  -0.0000001   0.4618803   0.4484898  )
       248           N   tau( 248) = (  -0.0000001   0.4618803   0.7744656  )
       249           N   tau( 249) = (  -0.1000001   0.6350854   0.1225140  )
       250           N   tau( 250) = (  -0.1000001   0.6350854   0.4484898  )
       251           N   tau( 251) = (  -0.1000001   0.6350854   0.7744656  )
       252           N   tau( 252) = (  -0.2000001   0.8082905   0.1225140  )
       253           N   tau( 253) = (  -0.2000001   0.8082905   0.4484898  )
       254           N   tau( 254) = (  -0.2000001   0.8082905   0.7744656  )
       255           N   tau( 255) = (   0.3999999   0.1154701   0.1225140  )
       256           N   tau( 256) = (   0.3999999   0.1154701   0.4484898  )
       257           N   tau( 257) = (   0.3999999   0.1154701   0.7744656  )
       258           N   tau( 258) = (   0.2999999   0.2886752   0.1225140  )
       259           N   tau( 259) = (   0.2999999   0.2886752   0.4484898  )
       260           N   tau( 260) = (   0.2999999   0.2886752   0.7744656  )
       261           N   tau( 261) = (   0.1999999   0.4618803   0.1225140  )
       262           N   tau( 262) = (   0.1999999   0.4618803   0.4484898  )
       263           N   tau( 263) = (   0.1999999   0.4618803   0.7744656  )
       264           N   tau( 264) = (   0.0999999   0.6350854   0.1225140  )
       265           N   tau( 265) = (   0.0999999   0.6350854   0.4484898  )
       266           N   tau( 266) = (   0.0999999   0.6350854   0.7744656  )
       267           N   tau( 267) = (  -0.0000001   0.8082905   0.1225140  )
       268           N   tau( 268) = (  -0.0000001   0.8082905   0.4484898  )
       269           N   tau( 269) = (  -0.0000001   0.8082905   0.7744656  )
       270           N   tau( 270) = (   0.5999999   0.1154701   0.1225140  )
       271           N   tau( 271) = (   0.5999999   0.1154701   0.4484898  )
       272           N   tau( 272) = (   0.5999999   0.1154701   0.7744656  )
       273           N   tau( 273) = (   0.4999999   0.2886752   0.1225140  )
       274           N   tau( 274) = (   0.4999999   0.2886752   0.4484898  )
       275           N   tau( 275) = (   0.4999999   0.2886752   0.7744656  )
       276           N   tau( 276) = (   0.3999999   0.4618803   0.1225140  )
       277           N   tau( 277) = (   0.3999999   0.4618803   0.4484898  )
       278           N   tau( 278) = (   0.3999999   0.4618803   0.7744656  )
       279           N   tau( 279) = (   0.2999999   0.6350854   0.1225140  )
       280           N   tau( 280) = (   0.2999999   0.6350854   0.4484898  )
       281           N   tau( 281) = (   0.2999999   0.6350854   0.7744656  )
       282           N   tau( 282) = (   0.1999999   0.8082905   0.1225140  )
       283           N   tau( 283) = (   0.1999999   0.8082905   0.4484898  )
       284           N   tau( 284) = (   0.1999999   0.8082905   0.7744656  )
       285           N   tau( 285) = (   0.7999999   0.1154701   0.1225140  )
       286           N   tau( 286) = (   0.7999999   0.1154701   0.4484898  )
       287           N   tau( 287) = (   0.7999999   0.1154701   0.7744656  )
       288           N   tau( 288) = (   0.6999999   0.2886752   0.1225140  )
       289           N   tau( 289) = (   0.6999999   0.2886752   0.4484898  )
       290           N   tau( 290) = (   0.6999999   0.2886752   0.7744656  )
       291           N   tau( 291) = (   0.5999999   0.4618803   0.1225140  )
       292           N   tau( 292) = (   0.5999999   0.4618803   0.4484898  )
       293           N   tau( 293) = (   0.5999999   0.4618803   0.7744656  )
       294           N   tau( 294) = (   0.4999999   0.6350854   0.1225140  )
       295           N   tau( 295) = (   0.4999999   0.6350854   0.4484898  )
       296           N   tau( 296) = (   0.4999999   0.6350854   0.7744656  )
       297           N   tau( 297) = (   0.3999999   0.8082905   0.1225140  )
       298           N   tau( 298) = (   0.3999999   0.8082905   0.4484898  )
       299           N   tau( 299) = (   0.3999999   0.8082905   0.7744656  )

   Crystallographic axes

     site n.     atom                  positions (cryst. coord.)
         1           Ga  tau(   1) = (  0.1333334  0.0666666  0.1663874  )
         2           Ga  tau(   2) = (  0.1333334  0.0666666  0.4997208  )
         3           Ga  tau(   3) = (  0.1333334  0.0666666  0.8330541  )
         4           Ga  tau(   4) = (  0.1333334  0.2666666  0.1663874  )
         5           Ga  tau(   5) = (  0.1333334  0.2666666  0.4997208  )
         6           Ga  tau(   6) = (  0.1333334  0.2666666  0.8330541  )
         7           Ga  tau(   7) = (  0.1333334  0.4666666  0.1663874  )
         8           Ga  tau(   8) = (  0.1333334  0.4666666  0.4997208  )
         9           Ga  tau(   9) = (  0.1333334  0.4666666  0.8330541  )
        10           Ga  tau(  10) = (  0.1333334  0.6666666  0.1663874  )
        11           Ga  tau(  11) = (  0.1333334  0.6666666  0.4997208  )
        12           Ga  tau(  12) = (  0.1333334  0.6666666  0.8330541  )
        13           Ga  tau(  13) = (  0.1333334  0.8666666  0.1663874  )
        14           Ga  tau(  14) = (  0.1333334  0.8666666  0.4997208  )
        15           Ga  tau(  15) = (  0.1333334  0.8666666  0.8330541  )
        16           Ga  tau(  16) = (  0.3333334  0.0666666  0.1663874  )
        17           Ga  tau(  17) = (  0.3333334  0.0666666  0.4997208  )
        18           Ga  tau(  18) = (  0.3333334  0.0666666  0.8330541  )
        19           Ga  tau(  19) = (  0.3333334  0.2666666  0.1663874  )
        20           Ga  tau(  20) = (  0.3333334  0.2666666  0.4997208  )
        21           Ga  tau(  21) = (  0.3333334  0.2666666  0.8330541  )
        22           Ga  tau(  22) = (  0.3333334  0.4666666  0.1663874  )
        23           Ga  tau(  23) = (  0.3333334  0.4666666  0.4997208  )
        24           Ga  tau(  24) = (  0.3333334  0.4666666  0.8330541  )
        25           Ga  tau(  25) = (  0.3333334  0.6666666  0.1663874  )
        26           Ga  tau(  26) = (  0.3333334  0.6666666  0.4997208  )
        27           Ga  tau(  27) = (  0.3333334  0.6666666  0.8330541  )
        28           Ga  tau(  28) = (  0.3333334  0.8666666  0.1663874  )
        29           Ga  tau(  29) = (  0.3333334  0.8666666  0.4997208  )
        30           Ga  tau(  30) = (  0.3333334  0.8666666  0.8330541  )
        31           Ga  tau(  31) = (  0.5333334  0.0666666  0.1663874  )
        32           Ga  tau(  32) = (  0.5333334  0.0666666  0.4997208  )
        33           Ga  tau(  33) = (  0.5333334  0.0666666  0.8330541  )
        34           Ga  tau(  34) = (  0.5333334  0.2666666  0.1663874  )
        35           Ga  tau(  35) = (  0.5333334  0.2666666  0.4997208  )
        36           Ga  tau(  36) = (  0.5333334  0.2666666  0.8330541  )
        37           Ga  tau(  37) = (  0.5333334  0.4666666  0.1663874  )
        38           Ga  tau(  38) = (  0.5333334  0.4666666  0.4997208  )
        39           Ga  tau(  39) = (  0.5333334  0.4666666  0.8330541  )
        40           Ga  tau(  40) = (  0.5333334  0.6666666  0.1663874  )
        41           Ga  tau(  41) = (  0.5333334  0.6666666  0.4997208  )
        42           Ga  tau(  42) = (  0.5333334  0.6666666  0.8330541  )
        43           Ga  tau(  43) = (  0.5333334  0.8666666  0.1663874  )
        44           Ga  tau(  44) = (  0.5333334  0.8666666  0.4997208  )
        45           Ga  tau(  45) = (  0.5333334  0.8666666  0.8330541  )
        46           Ga  tau(  46) = (  0.7333334  0.0666666  0.1663874  )
        47           Ga  tau(  47) = (  0.7333334  0.0666666  0.4997208  )
        48           Ga  tau(  48) = (  0.7333334  0.0666666  0.8330541  )
        49           Ga  tau(  49) = (  0.7333334  0.2666666  0.1663874  )
        50           Ga  tau(  50) = (  0.7333334  0.2666666  0.4997208  )
        51           Ga  tau(  51) = (  0.7333334  0.2666666  0.8330541  )
        52           Ga  tau(  52) = (  0.7333334  0.4666666  0.1663874  )
        53           Ga  tau(  53) = (  0.7333334  0.4666666  0.4997208  )
        54           Ga  tau(  54) = (  0.7333334  0.4666666  0.8330541  )
        55           Ga  tau(  55) = (  0.7333334  0.6666666  0.1663874  )
        56           Ga  tau(  56) = (  0.7333334  0.6666666  0.4997208  )
        57           Ga  tau(  57) = (  0.7333334  0.6666666  0.8330541  )
        58           Ga  tau(  58) = (  0.7333334  0.8666666  0.1663874  )
        59           Ga  tau(  59) = (  0.7333334  0.8666666  0.4997208  )
        60           Ga  tau(  60) = (  0.7333334  0.8666666  0.8330541  )
        61           Ga  tau(  61) = (  0.9333334  0.0666666  0.1663874  )
        62           Ga  tau(  62) = (  0.9333334  0.0666666  0.4997208  )
        63           Ga  tau(  63) = (  0.9333334  0.0666666  0.8330541  )
        64           Ga  tau(  64) = (  0.9333334  0.2666666  0.1663874  )
        65           Ga  tau(  65) = (  0.9333334  0.2666666  0.4997208  )
        66           Ga  tau(  66) = (  0.9333334  0.2666666  0.8330541  )
        67           Ga  tau(  67) = (  0.9333334  0.4666666  0.1663874  )
        68           Ga  tau(  68) = (  0.9333334  0.4666666  0.4997208  )
        69           Ga  tau(  69) = (  0.9333334  0.4666666  0.8330541  )
        70           Ga  tau(  70) = (  0.9333334  0.6666666  0.1663874  )
        71           Ga  tau(  71) = (  0.9333334  0.6666666  0.4997208  )
        72           Ga  tau(  72) = (  0.9333334  0.6666666  0.8330541  )
        73           Ga  tau(  73) = (  0.9333334  0.8666666  0.1663874  )
        74           Ga  tau(  74) = (  0.9333334  0.8666666  0.4997208  )
        75           Ga  tau(  75) = (  0.9333334  0.8666666  0.8330541  )
        76           Ga  tau(  76) = (  0.0666666  0.1333334  0.3330541  )
        77           Ga  tau(  77) = (  0.0666666  0.1333334  0.6663874  )
        78           Ga  tau(  78) = (  0.0666666  0.1333334  0.9997208  )
        79           Ga  tau(  79) = (  0.0666666  0.3333334  0.3330541  )
        80           Ga  tau(  80) = (  0.0666666  0.3333334  0.6663874  )
        81           Ga  tau(  81) = (  0.0666666  0.3333334  0.9997208  )
        82           Ga  tau(  82) = (  0.0666666  0.5333334  0.3330541  )
        83           Ga  tau(  83) = (  0.0666666  0.5333334  0.6663874  )
        84           Ga  tau(  84) = (  0.0666666  0.5333334  0.9997208  )
        85           Ga  tau(  85) = (  0.0666666  0.7333334  0.3330541  )
        86           Ga  tau(  86) = (  0.0666666  0.7333334  0.6663874  )
        87           Ga  tau(  87) = (  0.0666666  0.7333334  0.9997208  )
        88           Ga  tau(  88) = (  0.0666666  0.9333334  0.3330541  )
        89           Ga  tau(  89) = (  0.0666666  0.9333334  0.6663874  )
        90           Ga  tau(  90) = (  0.0666666  0.9333334  0.9997208  )
        91           Ga  tau(  91) = (  0.2666666  0.1333334  0.3330541  )
        92           Ga  tau(  92) = (  0.2666666  0.1333334  0.6663874  )
        93           Ga  tau(  93) = (  0.2666666  0.1333334  0.9997208  )
        94           Ga  tau(  94) = (  0.2666666  0.3333334  0.3330541  )
        95           Ga  tau(  95) = (  0.2666666  0.3333334  0.6663874  )
        96           Ga  tau(  96) = (  0.2666666  0.3333334  0.9997208  )
        97           Ga  tau(  97) = (  0.2666666  0.5333334  0.3330541  )
        98           Ga  tau(  98) = (  0.2666666  0.5333334  0.6663874  )
        99           Ga  tau(  99) = (  0.2666666  0.5333334  0.9997208  )
       100           Ga  tau( 100) = (  0.2666666  0.7333334  0.3330541  )
       101           Ga  tau( 101) = (  0.2666666  0.7333334  0.6663874  )
       102           Ga  tau( 102) = (  0.2666666  0.7333334  0.9997208  )
       103           Ga  tau( 103) = (  0.2666666  0.9333334  0.3330541  )
       104           Ga  tau( 104) = (  0.2666666  0.9333334  0.6663874  )
       105           Ga  tau( 105) = (  0.2666666  0.9333334  0.9997208  )
       106           Ga  tau( 106) = (  0.4666666  0.1333334  0.3330541  )
       107           Ga  tau( 107) = (  0.4666666  0.1333334  0.6663874  )
       108           Ga  tau( 108) = (  0.4666666  0.1333334  0.9997208  )
       109           Ga  tau( 109) = (  0.4666666  0.3333334  0.3330541  )
       110           Ga  tau( 110) = (  0.4666666  0.3333334  0.6663874  )
       111           Ga  tau( 111) = (  0.4666666  0.3333334  0.9997208  )
       112           Ga  tau( 112) = (  0.4666666  0.5333334  0.3330541  )
       113           Ga  tau( 113) = (  0.4666666  0.5333334  0.6663874  )
       114           Ga  tau( 114) = (  0.4666666  0.5333334  0.9997208  )
       115           Ga  tau( 115) = (  0.4666666  0.7333334  0.3330541  )
       116           Ga  tau( 116) = (  0.4666666  0.7333334  0.6663874  )
       117           Ga  tau( 117) = (  0.4666666  0.7333334  0.9997208  )
       118           Ga  tau( 118) = (  0.4666666  0.9333334  0.3330541  )
       119           Ga  tau( 119) = (  0.4666666  0.9333334  0.6663874  )
       120           Ga  tau( 120) = (  0.4666666  0.9333334  0.9997208  )
       121           Ga  tau( 121) = (  0.6666666  0.1333334  0.3330541  )
       122           Ga  tau( 122) = (  0.6666666  0.1333334  0.6663874  )
       123           Ga  tau( 123) = (  0.6666666  0.1333334  0.9997208  )
       124           Ga  tau( 124) = (  0.6666666  0.3333334  0.3330541  )
       125           Ga  tau( 125) = (  0.6666666  0.3333334  0.6663874  )
       126           Ga  tau( 126) = (  0.6666666  0.3333334  0.9997208  )
       127           Ga  tau( 127) = (  0.6666666  0.5333334  0.3330541  )
       128           Ga  tau( 128) = (  0.6666666  0.5333334  0.6663874  )
       129           Ga  tau( 129) = (  0.6666666  0.5333334  0.9997208  )
       130           Ga  tau( 130) = (  0.6666666  0.7333334  0.3330541  )
       131           Ga  tau( 131) = (  0.6666666  0.7333334  0.6663874  )
       132           Ga  tau( 132) = (  0.6666666  0.7333334  0.9997208  )
       133           Ga  tau( 133) = (  0.6666666  0.9333334  0.3330541  )
       134           Ga  tau( 134) = (  0.6666666  0.9333334  0.6663874  )
       135           Ga  tau( 135) = (  0.6666666  0.9333334  0.9997208  )
       136           Ga  tau( 136) = (  0.8666666  0.1333334  0.3330541  )
       137           Ga  tau( 137) = (  0.8666666  0.1333334  0.6663874  )
       138           Ga  tau( 138) = (  0.8666666  0.1333334  0.9997208  )
       139           Ga  tau( 139) = (  0.8666666  0.3333334  0.3330541  )
       140           Ga  tau( 140) = (  0.8666666  0.3333334  0.6663874  )
       141           Ga  tau( 141) = (  0.8666666  0.3333334  0.9997208  )
       142           Ga  tau( 142) = (  0.8666666  0.5333334  0.3330541  )
       143           Ga  tau( 143) = (  0.8666666  0.5333334  0.6663874  )
       144           Ga  tau( 144) = (  0.8666666  0.5333334  0.9997208  )
       145           Ga  tau( 145) = (  0.8666666  0.7333334  0.3330541  )
       146           Ga  tau( 146) = (  0.8666666  0.7333334  0.6663874  )
       147           Ga  tau( 147) = (  0.8666666  0.7333334  0.9997208  )
       148           Ga  tau( 148) = (  0.8666666  0.9333334  0.3330541  )
       149           Ga  tau( 149) = (  0.8666666  0.9333334  0.6663874  )
       150           Ga  tau( 150) = (  0.8666666  0.9333334  0.9997208  )
       151           N   tau( 151) = (  0.1333334  0.0666666  0.6252792  )
       152           N   tau( 152) = (  0.1333334  0.0666666  0.9586126  )
       153           N   tau( 153) = (  0.1333334  0.2666666  0.2919459  )
       154           N   tau( 154) = (  0.1333334  0.2666666  0.6252792  )
       155           N   tau( 155) = (  0.1333334  0.2666666  0.9586126  )
       156           N   tau( 156) = (  0.1333334  0.4666666  0.2919459  )
       157           N   tau( 157) = (  0.1333334  0.4666666  0.6252792  )
       158           N   tau( 158) = (  0.1333334  0.4666666  0.9586126  )
       159           N   tau( 159) = (  0.1333334  0.6666666  0.2919459  )
       160           N   tau( 160) = (  0.1333334  0.6666666  0.6252792  )
       161           N   tau( 161) = (  0.1333334  0.6666666  0.9586126  )
       162           N   tau( 162) = (  0.1333334  0.8666666  0.2919459  )
       163           N   tau( 163) = (  0.1333334  0.8666666  0.6252792  )
       164           N   tau( 164) = (  0.1333334  0.8666666  0.9586126  )
       165           N   tau( 165) = (  0.3333334  0.0666666  0.2919459  )
       166           N   tau( 166) = (  0.3333334  0.0666666  0.6252792  )
       167           N   tau( 167) = (  0.3333334  0.0666666  0.9586126  )
       168           N   tau( 168) = (  0.3333334  0.2666666  0.2919459  )
       169           N   tau( 169) = (  0.3333334  0.2666666  0.6252792  )
       170           N   tau( 170) = (  0.3333334  0.2666666  0.9586126  )
       171           N   tau( 171) = (  0.3333334  0.4666666  0.2919459  )
       172           N   tau( 172) = (  0.3333334  0.4666666  0.6252792  )
       173           N   tau( 173) = (  0.3333334  0.4666666  0.9586126  )
       174           N   tau( 174) = (  0.3333334  0.6666666  0.2919459  )
       175           N   tau( 175) = (  0.3333334  0.6666666  0.6252792  )
       176           N   tau( 176) = (  0.3333334  0.6666666  0.9586126  )
       177           N   tau( 177) = (  0.3333334  0.8666666  0.2919459  )
       178           N   tau( 178) = (  0.3333334  0.8666666  0.6252792  )
       179           N   tau( 179) = (  0.3333334  0.8666666  0.9586126  )
       180           N   tau( 180) = (  0.5333334  0.0666666  0.2919459  )
       181           N   tau( 181) = (  0.5333334  0.0666666  0.6252792  )
       182           N   tau( 182) = (  0.5333334  0.0666666  0.9586126  )
       183           N   tau( 183) = (  0.5333334  0.2666666  0.2919459  )
       184           N   tau( 184) = (  0.5333334  0.2666666  0.6252792  )
       185           N   tau( 185) = (  0.5333334  0.2666666  0.9586126  )
       186           N   tau( 186) = (  0.5333334  0.4666666  0.2919459  )
       187           N   tau( 187) = (  0.5333334  0.4666666  0.6252792  )
       188           N   tau( 188) = (  0.5333334  0.4666666  0.9586126  )
       189           N   tau( 189) = (  0.5333334  0.6666666  0.2919459  )
       190           N   tau( 190) = (  0.5333334  0.6666666  0.6252792  )
       191           N   tau( 191) = (  0.5333334  0.6666666  0.9586126  )
       192           N   tau( 192) = (  0.5333334  0.8666666  0.2919459  )
       193           N   tau( 193) = (  0.5333334  0.8666666  0.6252792  )
       194           N   tau( 194) = (  0.5333334  0.8666666  0.9586126  )
       195           N   tau( 195) = (  0.7333334  0.0666666  0.2919459  )
       196           N   tau( 196) = (  0.7333334  0.0666666  0.6252792  )
       197           N   tau( 197) = (  0.7333334  0.0666666  0.9586126  )
       198           N   tau( 198) = (  0.7333334  0.2666666  0.2919459  )
       199           N   tau( 199) = (  0.7333334  0.2666666  0.6252792  )
       200           N   tau( 200) = (  0.7333334  0.2666666  0.9586126  )
       201           N   tau( 201) = (  0.7333334  0.4666666  0.2919459  )
       202           N   tau( 202) = (  0.7333334  0.4666666  0.6252792  )
       203           N   tau( 203) = (  0.7333334  0.4666666  0.9586126  )
       204           N   tau( 204) = (  0.7333334  0.6666666  0.2919459  )
       205           N   tau( 205) = (  0.7333334  0.6666666  0.6252792  )
       206           N   tau( 206) = (  0.7333334  0.6666666  0.9586126  )
       207           N   tau( 207) = (  0.7333334  0.8666666  0.2919459  )
       208           N   tau( 208) = (  0.7333334  0.8666666  0.6252792  )
       209           N   tau( 209) = (  0.7333334  0.8666666  0.9586126  )
       210           N   tau( 210) = (  0.9333334  0.0666666  0.2919459  )
       211           N   tau( 211) = (  0.9333334  0.0666666  0.6252792  )
       212           N   tau( 212) = (  0.9333334  0.0666666  0.9586126  )
       213           N   tau( 213) = (  0.9333334  0.2666666  0.2919459  )
       214           N   tau( 214) = (  0.9333334  0.2666666  0.6252792  )
       215           N   tau( 215) = (  0.9333334  0.2666666  0.9586126  )
       216           N   tau( 216) = (  0.9333334  0.4666666  0.2919459  )
       217           N   tau( 217) = (  0.9333334  0.4666666  0.6252792  )
       218           N   tau( 218) = (  0.9333334  0.4666666  0.9586126  )
       219           N   tau( 219) = (  0.9333334  0.6666666  0.2919459  )
       220           N   tau( 220) = (  0.9333334  0.6666666  0.6252792  )
       221           N   tau( 221) = (  0.9333334  0.6666666  0.9586126  )
       222           N   tau( 222) = (  0.9333334  0.8666666  0.2919459  )
       223           N   tau( 223) = (  0.9333334  0.8666666  0.6252792  )
       224           N   tau( 224) = (  0.9333334  0.8666666  0.9586126  )
       225           N   tau( 225) = (  0.0666666  0.1333334  0.1252792  )
       226           N   tau( 226) = (  0.0666666  0.1333334  0.4586126  )
       227           N   tau( 227) = (  0.0666666  0.1333334  0.7919459  )
       228           N   tau( 228) = (  0.0666666  0.3333334  0.1252792  )
       229           N   tau( 229) = (  0.0666666  0.3333334  0.4586126  )
       230           N   tau( 230) = (  0.0666666  0.3333334  0.7919459  )
       231           N   tau( 231) = (  0.0666666  0.5333334  0.1252792  )
       232           N   tau( 232) = (  0.0666666  0.5333334  0.4586126  )
       233           N   tau( 233) = (  0.0666666  0.5333334  0.7919459  )
       234           N   tau( 234) = (  0.0666666  0.7333334  0.1252792  )
       235           N   tau( 235) = (  0.0666666  0.7333334  0.4586126  )
       236           N   tau( 236) = (  0.0666666  0.7333334  0.7919459  )
       237           N   tau( 237) = (  0.0666666  0.9333334  0.1252792  )
       238           N   tau( 238) = (  0.0666666  0.9333334  0.4586126  )
       239           N   tau( 239) = (  0.0666666  0.9333334  0.7919459  )
       240           N   tau( 240) = (  0.2666666  0.1333334  0.1252792  )
       241           N   tau( 241) = (  0.2666666  0.1333334  0.4586126  )
       242           N   tau( 242) = (  0.2666666  0.1333334  0.7919459  )
       243           N   tau( 243) = (  0.2666666  0.3333334  0.1252792  )
       244           N   tau( 244) = (  0.2666666  0.3333334  0.4586126  )
       245           N   tau( 245) = (  0.2666666  0.3333334  0.7919459  )
       246           N   tau( 246) = (  0.2666666  0.5333334  0.1252792  )
       247           N   tau( 247) = (  0.2666666  0.5333334  0.4586126  )
       248           N   tau( 248) = (  0.2666666  0.5333334  0.7919459  )
       249           N   tau( 249) = (  0.2666666  0.7333334  0.1252792  )
       250           N   tau( 250) = (  0.2666666  0.7333334  0.4586126  )
       251           N   tau( 251) = (  0.2666666  0.7333334  0.7919459  )
       252           N   tau( 252) = (  0.2666666  0.9333334  0.1252792  )
       253           N   tau( 253) = (  0.2666666  0.9333334  0.4586126  )
       254           N   tau( 254) = (  0.2666666  0.9333334  0.7919459  )
       255           N   tau( 255) = (  0.4666666  0.1333334  0.1252792  )
       256           N   tau( 256) = (  0.4666666  0.1333334  0.4586126  )
       257           N   tau( 257) = (  0.4666666  0.1333334  0.7919459  )
       258           N   tau( 258) = (  0.4666666  0.3333334  0.1252792  )
       259           N   tau( 259) = (  0.4666666  0.3333334  0.4586126  )
       260           N   tau( 260) = (  0.4666666  0.3333334  0.7919459  )
       261           N   tau( 261) = (  0.4666666  0.5333334  0.1252792  )
       262           N   tau( 262) = (  0.4666666  0.5333334  0.4586126  )
       263           N   tau( 263) = (  0.4666666  0.5333334  0.7919459  )
       264           N   tau( 264) = (  0.4666666  0.7333334  0.1252792  )
       265           N   tau( 265) = (  0.4666666  0.7333334  0.4586126  )
       266           N   tau( 266) = (  0.4666666  0.7333334  0.7919459  )
       267           N   tau( 267) = (  0.4666666  0.9333334  0.1252792  )
       268           N   tau( 268) = (  0.4666666  0.9333334  0.4586126  )
       269           N   tau( 269) = (  0.4666666  0.9333334  0.7919459  )
       270           N   tau( 270) = (  0.6666666  0.1333334  0.1252792  )
       271           N   tau( 271) = (  0.6666666  0.1333334  0.4586126  )
       272           N   tau( 272) = (  0.6666666  0.1333334  0.7919459  )
       273           N   tau( 273) = (  0.6666666  0.3333334  0.1252792  )
       274           N   tau( 274) = (  0.6666666  0.3333334  0.4586126  )
       275           N   tau( 275) = (  0.6666666  0.3333334  0.7919459  )
       276           N   tau( 276) = (  0.6666666  0.5333334  0.1252792  )
       277           N   tau( 277) = (  0.6666666  0.5333334  0.4586126  )
       278           N   tau( 278) = (  0.6666666  0.5333334  0.7919459  )
       279           N   tau( 279) = (  0.6666666  0.7333334  0.1252792  )
       280           N   tau( 280) = (  0.6666666  0.7333334  0.4586126  )
       281           N   tau( 281) = (  0.6666666  0.7333334  0.7919459  )
       282           N   tau( 282) = (  0.6666666  0.9333334  0.1252792  )
       283           N   tau( 283) = (  0.6666666  0.9333334  0.4586126  )
       284           N   tau( 284) = (  0.6666666  0.9333334  0.7919459  )
       285           N   tau( 285) = (  0.8666666  0.1333334  0.1252792  )
       286           N   tau( 286) = (  0.8666666  0.1333334  0.4586126  )
       287           N   tau( 287) = (  0.8666666  0.1333334  0.7919459  )
       288           N   tau( 288) = (  0.8666666  0.3333334  0.1252792  )
       289           N   tau( 289) = (  0.8666666  0.3333334  0.4586126  )
       290           N   tau( 290) = (  0.8666666  0.3333334  0.7919459  )
       291           N   tau( 291) = (  0.8666666  0.5333334  0.1252792  )
       292           N   tau( 292) = (  0.8666666  0.5333334  0.4586126  )
       293           N   tau( 293) = (  0.8666666  0.5333334  0.7919459  )
       294           N   tau( 294) = (  0.8666666  0.7333334  0.1252792  )
       295           N   tau( 295) = (  0.8666666  0.7333334  0.4586126  )
       296           N   tau( 296) = (  0.8666666  0.7333334  0.7919459  )
       297           N   tau( 297) = (  0.8666666  0.9333334  0.1252792  )
       298           N   tau( 298) = (  0.8666666  0.9333334  0.4586126  )
       299           N   tau( 299) = (  0.8666666  0.9333334  0.7919459  )

     number of k points=     6  Gaussian smearing, width (Ry)=  0.0100
                       cart. coord. in units 2pi/alat
        k(    1) = (   0.0000000   0.0000000   0.0000000), wk =   0.2500000
        k(    2) = (   0.0000000   0.0000000  -0.5112854), wk =   0.2500000
        k(    3) = (   0.0000000  -0.5773503   0.0000000), wk =   0.5000000
        k(    4) = (   0.0000000  -0.5773503  -0.5112854), wk =   0.5000000
        k(    5) = (  -0.5000000  -0.2886751   0.0000000), wk =   0.2500000
        k(    6) = (  -0.5000000  -0.2886751  -0.5112854), wk =   0.2500000

                       cryst. coord.
        k(    1) = (   0.0000000   0.0000000   0.0000000), wk =   0.2500000
        k(    2) = (   0.0000000   0.0000000  -0.5000000), wk =   0.2500000
        k(    3) = (   0.0000000  -0.5000000   0.0000000), wk =   0.5000000
        k(    4) = (   0.0000000  -0.5000000  -0.5000000), wk =   0.5000000
        k(    5) = (  -0.5000000  -0.0000000   0.0000000), wk =   0.2500000
        k(    6) = (  -0.5000000  -0.0000000  -0.5000000), wk =   0.2500000

     Dense  grid:  2698283 G-vectors     FFT dimensions: ( 192, 192, 180)

     Smooth grid:  1930731 G-vectors     FFT dimensions: ( 180, 180, 160)

     Dynamical RAM for                 wfc:      93.13 MB

     Dynamical RAM for     wfc (w. buffer):     372.54 MB

     Dynamical RAM for           str. fact:       1.29 MB

     Dynamical RAM for           local pot:       0.00 MB

     Dynamical RAM for          nlocal pot:     223.89 MB

     Dynamical RAM for                qrad:       3.00 MB

     Dynamical RAM for          rho,v,vnew:       4.46 MB

     Dynamical RAM for               rhoin:       1.49 MB

     Dynamical RAM for            rho*nmix:      10.29 MB

     Dynamical RAM for           G-vectors:       2.64 MB

     Dynamical RAM for          h,s,v(r/c):    1919.80 MB

     Dynamical RAM for          <psi|beta>:      96.15 MB

     Dynamical RAM for                 psi:     372.54 MB

     Dynamical RAM for                hpsi:     372.54 MB

     Dynamical RAM for                spsi:     372.54 MB

     Dynamical RAM for      wfcinit/wfcrot:     246.27 MB

     Dynamical RAM for           addusdens:     108.40 MB

     Dynamical RAM for          addusforce:     204.85 MB

     Dynamical RAM for         addusstress:      64.82 MB

     Estimated static dynamical RAM per process >     615.45 MB

     Estimated max dynamical RAM per process >       3.67 GB

     Estimated total dynamical RAM >     469.27 GB

     Atomic positions and unit cell read from directory:
     ./GaN.save/
     Atomic positions from file used, from input discarded
 

     Check: negative core charge=   -0.000003

     The initial density is read from file :
     ./GaN.save/charge-density


     starting charge    2696.0000, renormalised to    2697.0000


     %%%%%%%%%%%%%%%%%%%%%%%%%%%%%%%%%%%%%%%%%%%%%%%%%%%%%%%%%%%%%%%%%%%%%%%%
     %                                                                      %
     % You are using vdW-DF, which was implemented by the Thonhauser group. %
     % Please cite the following two papers that made this development      %
     % possible and the two reviews that describe the various versions:     %
     %                                                                      %
     %   T. Thonhauser et al., PRL 115, 136402 (2015).                      %
     %   T. Thonhauser et al., PRB 76, 125112 (2007).                       %
     %   K. Berland et al., Rep. Prog. Phys. 78, 066501 (2015).             %
     %   D.C. Langreth et al., J. Phys.: Condens. Matter 21, 084203 (2009). %
     %                                                                      %
     % If you are calculating stress with vdW-DF, please also cite:         %
     %                                                                      %
     %   R. Sabatini et al., J. Phys.: Condens. Matter 24, 424209 (2012).   %
     %                                                                      %
     %%%%%%%%%%%%%%%%%%%%%%%%%%%%%%%%%%%%%%%%%%%%%%%%%%%%%%%%%%%%%%%%%%%%%%%%

     %%%%%%%%%%%%%%%%%%%%%%%%%%%%%%%%%%%%%%%%%%%%%%%%%%%%%%%%%%%%%%%%%%%%%%%%
     %                                                                      %
     %  vdW-DF NEWS:                                                        %
     %                                                                      %
     %  * vdW-DF3 is now available. DOI: 10.1021/acs.jctc.0c00471           %
     %    use with input_dft = 'vdW-DF3-opt1' or 'vdW-DF3-opt2'             %
     %                                                                      %
     %  * Unscreened and range-separated vdW-DF hybrid functionals          %
     %    DOI: 10.1063/1.4986522 and 10.1088/1361-648X/ac2ad2               %
     %    use with input_dft = 'vdW-DF-cx0' (etc) and 'vdW-DF-ahcx'         %
     %                                                                      %
     %%%%%%%%%%%%%%%%%%%%%%%%%%%%%%%%%%%%%%%%%%%%%%%%%%%%%%%%%%%%%%%%%%%%%%%%


     Carrying out vdW-DF run using the following parameters:
     Nqs    =  20  Npoints =  1024  r_max =  100.000
     q_mesh =  0.00001000  0.04494208  0.09755937  0.15916263
               0.23128650  0.31572767  0.41458969  0.53033537
               0.66584808  0.82450364  1.01025438  1.22772762
               1.48234092  1.78043706  2.12944203  2.53805004
               3.01644009  3.57652955  4.23227104  5.00000000


     -----------------------------------------------
     Non-local corr. energy    =      81.69592429 Ry
     -----------------------------------------------

     Wavefunctions not found or not readable, recomputing them from scratch
     Starting wfcs are 1946 randomized atomic wfcs
     Checking if some PAW data can be deallocated... 
       PAW data deallocated on   74 nodes for type:  1
       PAW data deallocated on   53 nodes for type:  2

     total cpu time spent up to now is      386.0 secs

     Self-consistent Calculation

     iteration #  1     ecut=    70.00 Ry     beta= 0.70
     Davidson diagonalization with overlap

---- Real-time Memory Report at c_bands before calling an iterative solver
          1311 MiB given to the printing process from OS
             0 MiB allocation reported by mallinfo(arena+hblkhd)
       1460958 MiB available memory on the node where the printing process lives
------------------
     c_bands:  4 eigenvalues not converged
     ethr =  1.00E-05,  avg # of iterations = 45.5


     -----------------------------------------------
     Non-local corr. energy    =      81.58671336 Ry
     -----------------------------------------------


     total cpu time spent up to now is     8872.2 secs

     total energy              =  -46812.73728337 Ry
     estimated scf accuracy    <       0.04037304 Ry

     iteration #  2     ecut=    70.00 Ry     beta= 0.70
     Davidson diagonalization with overlap

---- Real-time Memory Report at c_bands before calling an iterative solver
          3680 MiB given to the printing process from OS
             0 MiB allocation reported by mallinfo(arena+hblkhd)
       1464510 MiB available memory on the node where the printing process lives
------------------
     ethr =  1.50E-06,  avg # of iterations = 12.8


     -----------------------------------------------
     Non-local corr. energy    =      81.60087796 Ry
     -----------------------------------------------


     total cpu time spent up to now is    13653.1 secs

     total energy              =  -46812.71242350 Ry
     estimated scf accuracy    <       0.49598474 Ry

     iteration #  3     ecut=    70.00 Ry     beta= 0.70
     Davidson diagonalization with overlap

---- Real-time Memory Report at c_bands before calling an iterative solver
          3680 MiB given to the printing process from OS
             0 MiB allocation reported by mallinfo(arena+hblkhd)
       1442068 MiB available memory on the node where the printing process lives
------------------
     ethr =  1.50E-06,  avg # of iterations = 13.8


     -----------------------------------------------
     Non-local corr. energy    =      81.62702340 Ry
     -----------------------------------------------


     total cpu time spent up to now is    17571.5 secs

     total energy              =  -46812.76456491 Ry
     estimated scf accuracy    <       0.01004490 Ry

     iteration #  4     ecut=    70.00 Ry     beta= 0.70
     Davidson diagonalization with overlap

---- Real-time Memory Report at c_bands before calling an iterative solver
          3680 MiB given to the printing process from OS
             0 MiB allocation reported by mallinfo(arena+hblkhd)
       1442057 MiB available memory on the node where the printing process lives
------------------
     ethr =  3.72E-07,  avg # of iterations = 16.0


     -----------------------------------------------
     Non-local corr. energy    =      81.63635581 Ry
     -----------------------------------------------


     total cpu time spent up to now is    20765.0 secs

     total energy              =  -46812.76600290 Ry
     estimated scf accuracy    <       0.00390231 Ry

     iteration #  5     ecut=    70.00 Ry     beta= 0.70
     Davidson diagonalization with overlap

---- Real-time Memory Report at c_bands before calling an iterative solver
          3680 MiB given to the printing process from OS
             0 MiB allocation reported by mallinfo(arena+hblkhd)
       1441460 MiB available memory on the node where the printing process lives
------------------
     ethr =  1.45E-07,  avg # of iterations = 15.3


     -----------------------------------------------
     Non-local corr. energy    =      81.64261821 Ry
     -----------------------------------------------


     total cpu time spent up to now is    23592.9 secs

     total energy              =  -46812.76632003 Ry
     estimated scf accuracy    <       0.00155298 Ry

     iteration #  6     ecut=    70.00 Ry     beta= 0.70
     Davidson diagonalization with overlap

---- Real-time Memory Report at c_bands before calling an iterative solver
          3680 MiB given to the printing process from OS
             0 MiB allocation reported by mallinfo(arena+hblkhd)
       1441459 MiB available memory on the node where the printing process lives
------------------
     ethr =  5.76E-08,  avg # of iterations = 17.0


     -----------------------------------------------
     Non-local corr. energy    =      81.65349159 Ry
     -----------------------------------------------


     total cpu time spent up to now is    26109.9 secs

     total energy              =  -46812.76636956 Ry
     estimated scf accuracy    <       0.00056703 Ry

     iteration #  7     ecut=    70.00 Ry     beta= 0.70
     Davidson diagonalization with overlap

---- Real-time Memory Report at c_bands before calling an iterative solver
          3680 MiB given to the printing process from OS
             0 MiB allocation reported by mallinfo(arena+hblkhd)
       1441443 MiB available memory on the node where the printing process lives
------------------
     ethr =  2.10E-08,  avg # of iterations = 15.5


     -----------------------------------------------
     Non-local corr. energy    =      81.66038132 Ry
     -----------------------------------------------


     total cpu time spent up to now is    28641.1 secs

     total energy              =  -46812.76644656 Ry
     estimated scf accuracy    <       0.00012890 Ry

     iteration #  8     ecut=    70.00 Ry     beta= 0.70
     Davidson diagonalization with overlap

---- Real-time Memory Report at c_bands before calling an iterative solver
          3680 MiB given to the printing process from OS
             0 MiB allocation reported by mallinfo(arena+hblkhd)
       1441435 MiB available memory on the node where the printing process lives
------------------
     ethr =  4.78E-09,  avg # of iterations =  8.5


     -----------------------------------------------
     Non-local corr. energy    =      81.65859779 Ry
     -----------------------------------------------


     total cpu time spent up to now is    32648.9 secs

     total energy              =  -46812.76650805 Ry
     estimated scf accuracy    <       0.00011513 Ry

     iteration #  9     ecut=    70.00 Ry     beta= 0.70
     Davidson diagonalization with overlap

---- Real-time Memory Report at c_bands before calling an iterative solver
          3680 MiB given to the printing process from OS
             0 MiB allocation reported by mallinfo(arena+hblkhd)
       1440823 MiB available memory on the node where the printing process lives
------------------
     ethr =  4.27E-09,  avg # of iterations = 13.5


     -----------------------------------------------
     Non-local corr. energy    =      81.65663770 Ry
     -----------------------------------------------


     total cpu time spent up to now is    34612.0 secs

     total energy              =  -46812.76650465 Ry
     estimated scf accuracy    <       0.00004771 Ry

     iteration # 10     ecut=    70.00 Ry     beta= 0.70
     Davidson diagonalization with overlap

---- Real-time Memory Report at c_bands before calling an iterative solver
          3680 MiB given to the printing process from OS
             0 MiB allocation reported by mallinfo(arena+hblkhd)
       1440817 MiB available memory on the node where the printing process lives
------------------
     ethr =  1.77E-09,  avg # of iterations = 14.7


     -----------------------------------------------
     Non-local corr. energy    =      81.65452483 Ry
     -----------------------------------------------


     total cpu time spent up to now is    36865.6 secs

     total energy              =  -46812.76650352 Ry
     estimated scf accuracy    <       0.00001269 Ry

     iteration # 11     ecut=    70.00 Ry     beta= 0.70
     Davidson diagonalization with overlap

---- Real-time Memory Report at c_bands before calling an iterative solver
          3680 MiB given to the printing process from OS
             0 MiB allocation reported by mallinfo(arena+hblkhd)
       1440801 MiB available memory on the node where the printing process lives
------------------
     ethr =  4.70E-10,  avg # of iterations = 11.0


     -----------------------------------------------
     Non-local corr. energy    =      81.65492170 Ry
     -----------------------------------------------


     total cpu time spent up to now is    39881.2 secs

     total energy              =  -46812.76650736 Ry
     estimated scf accuracy    <       0.00000222 Ry

     iteration # 12     ecut=    70.00 Ry     beta= 0.70
     Davidson diagonalization with overlap

---- Real-time Memory Report at c_bands before calling an iterative solver
          3680 MiB given to the printing process from OS
             0 MiB allocation reported by mallinfo(arena+hblkhd)
       1440802 MiB available memory on the node where the printing process lives
------------------
     ethr =  8.22E-11,  avg # of iterations = 15.0


     -----------------------------------------------
     Non-local corr. energy    =      81.65530418 Ry
     -----------------------------------------------


     total cpu time spent up to now is    43628.4 secs

     total energy              =  -46812.76650777 Ry
     estimated scf accuracy    <       0.00000127 Ry

     iteration # 13     ecut=    70.00 Ry     beta= 0.70
     Davidson diagonalization with overlap

---- Real-time Memory Report at c_bands before calling an iterative solver
          3680 MiB given to the printing process from OS
             0 MiB allocation reported by mallinfo(arena+hblkhd)
       1440462 MiB available memory on the node where the printing process lives
------------------
     ethr =  4.69E-11,  avg # of iterations = 10.8


     -----------------------------------------------
     Non-local corr. energy    =      81.65574890 Ry
     -----------------------------------------------


     total cpu time spent up to now is    45147.5 secs

     total energy              =  -46812.76650773 Ry
     estimated scf accuracy    <       0.00000078 Ry

     iteration # 14     ecut=    70.00 Ry     beta= 0.70
     Davidson diagonalization with overlap

---- Real-time Memory Report at c_bands before calling an iterative solver
          3680 MiB given to the printing process from OS
             0 MiB allocation reported by mallinfo(arena+hblkhd)
       1440456 MiB available memory on the node where the printing process lives
------------------
     ethr =  2.88E-11,  avg # of iterations = 12.7


     -----------------------------------------------
     Non-local corr. energy    =      81.65599059 Ry
     -----------------------------------------------


     total cpu time spent up to now is    46797.3 secs

     total energy              =  -46812.76650778 Ry
     estimated scf accuracy    <       0.00000012 Ry

     iteration # 15     ecut=    70.00 Ry     beta= 0.70
     Davidson diagonalization with overlap

---- Real-time Memory Report at c_bands before calling an iterative solver
          3680 MiB given to the printing process from OS
             0 MiB allocation reported by mallinfo(arena+hblkhd)
       1440453 MiB available memory on the node where the printing process lives
------------------
     ethr =  4.59E-12,  avg # of iterations =  6.8


     -----------------------------------------------
     Non-local corr. energy    =      81.65569282 Ry
     -----------------------------------------------


     total cpu time spent up to now is    49559.3 secs

     End of self-consistent calculation

          k = 0.0000 0.0000 0.0000 (241213 PWs)   bands (ev):

    -6.8640  -6.6606  -6.6561  -6.6330  -6.6317  -6.6316  -6.6307  -6.6305
    -6.6169  -6.4976  -6.4970  -6.4970  -6.4968  -6.4964  -6.4963  -6.4955
    -6.4954  -6.4954  -6.4950  -6.4946  -6.4800  -6.4374  -6.4348  -6.4345
    -6.4341  -6.4324  -6.4315  -6.4312  -6.4291  -6.4184  -6.4179  -6.4179
    -6.4161  -6.4161  -6.4140  -6.4031  -6.3778  -6.3775  -6.3770  -6.3766
    -6.3765  -6.3759  -6.3752  -6.3746  -6.3744  -6.3742  -6.3740  -6.3739
    -6.3736  -6.3725  -6.3721  -6.3717  -6.3713  -6.3709  -6.3707  -6.3704
    -6.3703  -6.3701  -6.3696  -6.3694  -6.3691  -6.3688  -6.3685  -6.3683
    -6.3679  -6.3676  -6.3661  -6.3661  -6.3656  -6.3655  -6.3652  -6.3649
    -6.3646  -6.3645  -6.3645  -6.3642  -6.3638  -6.3635  -6.3634  -6.3633
    -6.3629  -6.3627  -6.3625  -6.3507  -6.3439  -6.3435  -6.3430  -6.3421
    -6.3418  -6.3414  -6.3403  -6.3400  -6.3392  -6.3391  -6.3386  -6.3382
    -6.3378  -6.3369  -6.3365  -6.3353  -6.3352  -6.3345  -6.3344  -6.3341
    -6.3337  -6.3336  -6.3334  -6.3329  -6.3325  -6.3323  -6.3322  -6.3318
    -6.3314  -6.3306  -6.3306  -6.3300  -6.3298  -6.3296  -6.3293  -6.3291
    -6.3287  -6.3284  -6.3281  -6.3278  -6.3277  -6.3273  -6.3271  -6.3268
    -6.3265  -6.3263  -6.3263  -6.3258  -6.3255  -6.3254  -6.3246  -6.3245
    -6.3243  -6.3187  -6.3181  -6.3181  -6.3178  -6.3165  -6.3164  -6.3158
    -6.3155  -6.3154  -6.3143  -6.3140  -6.3140  -5.3535  -5.3208  -5.3207
    -5.3158  -5.3138  -5.3134  -5.2912  -5.2908  -5.2881  -5.2815  -5.2813
    -5.2762  -5.2746  -5.2693  -5.2684  -5.2684  -5.2665  -5.2663  -5.2626
    -5.2602  -5.2600  -5.2583  -5.2582  -5.2560  -5.2531  -5.2530  -5.2523
    -5.2523  -5.2500  -5.2493  -5.2493  -5.2482  -5.2470  -5.2470  -5.2458
    -5.2458  -5.2419  -5.2403  -5.2403  -5.2379  -5.2378  -5.2375  -5.2375
    -5.2371  -5.2364  -5.2364  -5.2364  -5.2364  -5.2357  -5.2355  -5.2355
    -5.2347  -5.2347  -5.2341  -5.2339  -5.2339  -5.2333  -5.2333  -5.2330
    -5.2328  -5.2328  -5.2322  -5.2320  -5.2311  -5.2311  -5.2296  -5.2296
    -5.2288  -5.2285  -5.2285  -5.2283  -5.2270  -5.2270  -5.2264  -5.2264
    -5.2252  -5.2235  -5.2234  -5.2234  -5.2220  -5.2220  -5.2200  -5.2184
    -5.2184  -5.2184  -5.2181  -5.2179  -5.2171  -5.2171  -5.2156  -5.2145
    -5.2144  -5.2133  -5.2128  -5.2128  -5.2122  -5.2122  -5.2117  -5.2102
    -5.2102  -5.2100  -5.2100  -5.2098  -5.2098  -5.2086  -5.2086  -5.2081
    -5.2080  -5.2080  -5.2080  -5.2067  -5.2067  -5.2057  -5.2056  -5.2056
    -5.2052  -5.2051  -5.2050  -5.2049  -5.2046  -5.2046  -5.2038  -5.2037
    -5.2037  -5.2035  -5.2034  -5.2033  -5.2026  -5.2023  -5.2022  -5.2013
    -5.2013  -5.2010  -5.2003  -5.1999  -5.1998  -5.1981  -5.1980  -5.1972
    -5.1972  -5.1961  -5.1960  -5.1959  -5.1953  -5.1952  -5.1937  -5.1925
    -5.1924  -5.1923  -5.1902  -5.1902  -5.1896  -5.1894  -5.1893  -5.1886
    -5.1882  -5.1882  -5.1877  -5.1877  -5.1868  -5.1866  -5.1866  -5.1857
    -5.1857  -5.1857  -5.1853  -5.1853  -5.1852  -5.1850  -5.1850  -5.1846
    -5.1845  -5.1841  -5.1841  -5.1841  -5.1839  -5.1837  -5.1836  -5.1836
    -5.1836  -5.1827  -5.1822  -5.1821  -5.1809  -5.1808  -5.1796  -5.1792
    -5.1786  -5.1785  -5.1776  -5.1775  -5.1772  -5.1771  -5.1766  -5.1753
    -5.1750  -5.1750  -5.1743  -5.1739  -5.1739  -5.1737  -5.1715  -5.1715
    -5.1708  -5.1708  -5.1680  -5.1679  -5.1678  -5.1672  -5.1672  -5.1663
    -5.1659  -5.1658  -5.1656  -5.1656  -5.1656  -5.1652  -5.1645  -5.1644
    -5.1644  -5.1643  -5.1640  -5.1640  -5.1639  -5.1638  -5.1638  -5.1631
    -5.1627  -5.1624  -5.1624  -5.1589  -5.1588  -5.1586  -5.1560  -5.1560
    -5.1532  -5.1532  -5.1511  -5.1488  -5.1488  -5.1469  -5.1466  -5.1465
    -5.1451  -5.1444  -5.1444  -5.1433  -5.1432  -5.1432  -5.1422  -5.1422
    -5.1417  -5.1399  -5.1386  -5.1385  -5.1381  -5.1367  -5.1366  -5.1346
    -5.1326  -5.1295  -5.1295  -5.1281  -5.1231  -5.1231  -5.1172  -5.1172
    -5.1146  -5.1145  -5.1141  -5.1137  -5.1124  -5.1116  -5.1116  -5.1110
    -5.1108  -5.1104  -5.1102  -5.1101  -5.1097  -5.1095  -5.1095  -5.1090
    -5.1090  -5.1083  -5.1083  -5.1079  -5.1079  -5.1075  -5.1074  -5.1072
    -5.1072  -5.1071  -5.1068  -5.1066  -5.1065  -5.1059  -5.1059  -5.1051
    -5.1047  -5.1046  -5.1043  -5.1029  -5.1024  -5.1024  -5.1012  -5.1008
    -5.1007  -5.1007  -5.1001  -5.1000  -5.0999  -5.0999  -5.0997  -5.0997
    -5.0991  -5.0989  -5.0989  -5.0987  -5.0986  -5.0986  -5.0978  -5.0975
    -5.0973  -5.0972  -5.0970  -5.0970  -5.0962  -5.0951  -5.0951  -5.0939
    -5.0938  -5.0938  -5.0929  -5.0929  -5.0922  -5.0922  -5.0921  -5.0920
    -5.0909  -5.0909  -5.0904  -5.0896  -5.0896  -5.0890  -5.0879  -5.0876
    -5.0876  -5.0875  -5.0865  -5.0864  -5.0863  -5.0857  -5.0857  -5.0855
    -5.0855  -5.0854  -5.0830  -5.0829  -5.0829  -5.0816  -5.0816  -5.0815
    -5.0798  -5.0797  -5.0795  -5.0791  -5.0790  -5.0789  -5.0783  -5.0779
    -5.0779  -5.0779  -5.0779  -5.0778  -5.0774  -5.0774  -5.0767  -5.0765
    -5.0765  -5.0762  -5.0757  -5.0757  -5.0749  -5.0749  -5.0743  -5.0743
    -5.0743  -5.0737  -5.0736  -5.0736  -5.0731  -5.0730  -5.0729  -5.0729
    -5.0724  -5.0724  -5.0719  -5.0719  -5.0717  -5.0717  -5.0713  -5.0711
    -5.0711  -5.0703  -5.0701  -5.0700  -5.0698  -5.0698  -5.0694  -5.0689
    -5.0689  -5.0686  -5.0677  -5.0677  -5.0673  -5.0673  -5.0663  -5.0663
    -5.0663  -5.0663  -5.0657  -5.0639  -5.0636  -5.0635  -5.0634  -5.0630
    -5.0629  -5.0621  -5.0617  -5.0617  -5.0607  -5.0596  -5.0596  -5.0578
    -5.0578  -5.0545  -5.0545  -5.0535  -5.0530  -5.0530  -5.0517  -5.0516
    -5.0515  -5.0507  -5.0506  -5.0506  -5.0497  -5.0490  -5.0489  -5.0489
    -5.0473  -5.0466  -5.0466  -5.0445  -5.0438  -5.0438  -5.0436  -5.0432
    -5.0432  -5.0427  -5.0427  -5.0423  -5.0419  -5.0416  -5.0416  -5.0407
    -5.0404  -5.0404  -5.0401  -5.0398  -5.0398  -5.0394  -5.0389  -5.0389
    -5.0378  -5.0378  -5.0364  -5.0358  -5.0348  -5.0348  -5.0330  -5.0330
    -5.0303  -5.0296  -5.0296  -5.0292  -5.0276  -5.0276  -5.0271  -5.0271
    -5.0266  -5.0254  -5.0250  -5.0250  -5.0243  -5.0242  -5.0239  -5.0239
    -5.0232  -5.0232  -5.0220  -5.0220  -5.0219  -5.0216  -5.0210  -5.0210
    -5.0202  -5.0200  -5.0199  -5.0195  -5.0194  -5.0193  -5.0191  -5.0191
    -5.0190  -5.0189  -5.0189  -5.0183  -5.0182  -5.0179  -5.0178  -5.0176
    -5.0176  -5.0176  -5.0171  -5.0171  -5.0170  -5.0170  -5.0169  -5.0169
    -5.0153  -5.0153  -5.0151  -5.0149  -5.0148  -5.0148  -5.0145  -5.0145
    -5.0145  -5.0141  -5.0140  -5.0140  -5.0139  -5.0139  -5.0134  -5.0133
    -5.0130  -5.0129  -5.0125  -5.0125  -5.0124  -5.0116  -5.0115  -5.0114
    -5.0114  -5.0110  -5.0109  -5.0108  -5.0105  -5.0105  -5.0099  -5.0097
    -5.0094  -5.0093  -5.0082  -5.0054  -5.0053  -5.0044  -5.0039  -5.0039
    -5.0031  -5.0021  -5.0019  -5.0018  -5.0010  -5.0010  -5.0005  -4.9999
    -4.9998  -4.9993  -4.9992  -4.9989  -4.9983  -4.9983  -4.9976  -4.9976
    -4.9975  -4.9966  -4.9965  -4.9965  -4.9960  -4.9960  -4.9958  -4.9947
    -4.9944  -4.9944  -4.9931  -4.9928  -4.9927  -4.9917  -4.9917  -4.9904
    -4.9824  -4.9818  -4.9817  -4.9802  -4.9802  -4.9800  -4.9799  -4.7795
    -4.7794  -4.7777  -4.7767  -4.7766  -4.7746  -4.7745  -4.7744  -4.7741
    -4.7740  -4.7739  -4.7106  -4.3293  -4.3293  -4.3288  -4.3274  -4.3273
    -4.3130  -4.2904  -4.2776  -4.0889  -4.0889  -4.0870  -4.0870  -4.0867
    -4.0856  -4.0839  -4.0837  -4.0837  -4.0831  -4.0829  -4.0535  -4.0171
    -4.0169  -4.0154  -4.0152  -4.0132  -4.0010  -3.9536  -3.9536  -3.9510
    -3.9502  -3.9501  -3.9495  -3.9491  -3.9489  -3.9489  -3.9479  -3.9477
    -3.8929  -3.8185  -3.8184  -3.8162  -3.8161  -3.8147  -3.8147  -3.8136
    -3.8132  -3.8124  -3.8122  -3.8112  -3.6952  -3.5114  -3.3961  -3.3960
    -3.3934  -3.3934  -3.3931  -3.3931  -3.3914  -3.3913  -3.3894  -3.3887
    -3.3886  -3.3860  -3.3846  -3.3846  -3.3838  -3.3814  -3.3814  -3.3474
    -3.2910  -3.2895  -3.2894  -3.2892  -3.2891  -3.2848  -3.2847  -3.2838
    -3.2834  -3.2833  -3.2823  -3.2796  -3.2725  -3.2724  -3.2711  -3.2711
    -3.2694  -3.2693  -3.2685  -3.2675  -3.2665  -3.2663  -3.2661  -3.2597
    -3.2516  -3.2516  -3.2498  -3.2493  -3.2492  -3.1208  -3.0683  -3.0651
    -3.0650  -3.0628  -3.0628  -3.0607  -3.0607  -3.0594  -3.0593  -3.0583
    -3.0575  -2.9822  -2.9463  -2.9462  -2.9454  -2.9431  -2.9431  -2.9310
    -2.9210  -2.9209  -2.9192  -2.9190  -2.9163  -2.9094  -2.9060  -2.9058
    -2.9041  -2.9034  -2.9032   2.0751   2.3518   2.5562   2.5575   2.5578
     2.5602   2.5603   2.5956   2.6199   2.6202   2.6210   2.6217   2.6218
     2.6223   2.6223   2.6226   2.6232   2.6238   2.6242   2.6242   2.6245
     2.6248   2.6253   2.6257   2.6260   2.6267   2.6268   2.6284   2.6801
     2.6806   2.6844   2.7150   2.7863   2.7870   2.7991   2.8052   2.8068
     2.8073   2.9392   2.9427   2.9427   2.9542   2.9543   2.9569   2.9926
     2.9926   2.9935   2.9953   2.9957   2.9957   2.9964   2.9965   3.0058
     3.0445   3.0448   3.0565   3.1335   3.1339   3.1340   3.1459   3.1460
     3.1574   3.2370   3.2372   3.2373   3.2396   3.2397   3.2397   3.2401
     3.2402   3.2554   3.2556   3.2581   3.2695   3.2838   3.2844   3.2858
     3.2862   3.2870   3.2871   3.2879   3.2903   3.3430   3.3831   3.3833
     3.4599   3.6041   3.6064   3.7018   3.7035   3.7036   3.7045   3.7046
     3.7053   3.7055   3.7057   3.7060   3.7078   3.7079   3.7090   3.7100
     3.7101   3.7453   3.7455   3.8234   3.8533   3.9350   3.9351   3.9484
     3.9486   3.9513   3.9536   3.9848   3.9850   3.9851   3.9866   3.9881
     3.9881   3.9891   3.9892   4.0530   4.0706   4.0709   4.4300   4.5290
     4.5327   4.5330   4.5492   4.5496   4.5873   4.5873   4.5891   4.5938
     4.6071   4.6075   4.6161   4.6229   4.6234   4.6433   4.6437   4.6602
[...]
Ga            4.8666203522        6.5572010357        7.9285095466
Ga            4.8666701704        6.5565092574       13.2161306037
Ga            3.2447392531        9.3662036671        2.6393850718
Ga            3.2446042257        9.3662907985        7.9288628135
Ga            3.2447095222        9.3662547762       13.2161907512
Ga            1.6223701703       12.1762293473        2.6393850718
Ga            1.6223781146       12.1760688444        7.9288628135
Ga            1.6223995666       12.1761780450       13.2161907512
Ga           11.3552141758        0.9357370844        2.6392239117
Ga           11.3548515190        0.9356453704        7.9285774205
Ga           11.3555714158        0.9360803972       13.2161641400
Ga            9.7332667156        3.7466515624        2.6396458100
Ga            9.7332539217        3.7466079782        7.9289739993
Ga            9.7332712036        3.7466914584       13.2165494654
Ga            8.1113300637        6.5559282501        2.6396458100
Ga            8.1112859217        6.5559389624        7.9289739993
Ga            8.1113668586        6.5559121889       13.2165494654
Ga            6.4879804481        9.3660331933        2.6392239117
Ga            6.4877196931        9.3657649803        7.9285774205
Ga            6.4884563858        9.3661709158       13.2161641400
Ga            4.8648868780       12.1749467879        2.6390245138
Ga            4.8642239861       12.1745640671        7.9303923199
Ga            4.8663630213       12.1757990396       13.2158924180
Ga           14.5979760594        0.9332681145        2.6372062160
Ga           14.5993098538        0.9333040813        7.9267037264
Ga           14.6000734046        0.9360009425       13.2165314474
Ga           12.9783260680        3.7469674126        2.6390567866
Ga           12.9784840913        3.7468673874        7.9310143768
Ga           12.9783372813        3.7470155119       13.2157884107
Ga           11.3561114123        6.5564525101        2.6394256035
Ga           11.3561384690        6.5564681313        7.9287582125
Ga           11.3560693981        6.5564282532       13.2163351240
Ga            9.7341332742        9.3660741611        2.6390567866
Ga            9.7341256616        9.3662610259        7.9310143768
Ga            9.7341805362        9.3660598224       13.2157884107
Ga            8.1072231992       12.1755818480        2.6372062160
Ga            8.1079212446       12.1767189643        7.9267037264
Ga            8.1106385704       12.1760317882       13.2165314474
Ga            0.0382200726        1.8524033472        5.2738456475
Ga           -0.0014703352        1.8735441148       10.5744580740
Ga            0.0015293600        1.8719471232       15.8552681292
Ga           -1.6244517298        4.6789439989        5.2870028884
Ga           -1.6227410978        4.6832584079       10.5724975414
Ga           -1.6236540547        4.6832232268       15.8598993828
Ga           -3.2444310734        7.4930340355        5.2836726619
Ga           -3.2447870813        7.4928284942       10.5724437667
Ga           -3.2446772461        7.4928919076       15.8599470002
Ga           -4.8715148618       10.3030223189        5.2870028884
Ga           -4.8669231579       10.3023465651       10.5724975414
Ga           -4.8674101041       10.3015735118       15.8598993828
Ga           -6.4880349696       13.1562086638        5.2738456475
Ga           -6.4895717317       13.1112653786       10.5744580740
Ga           -6.4894549194       13.1146616866       15.8552681292
Ga            3.2059423115        1.8509543354        5.2746702558
Ga            3.2460524713        1.8741119470       10.5747475737
Ga            3.2430406061        1.8723730458       15.8557141713
Ga            1.6229256219        4.6859755041        5.2862867605
Ga            1.6228062698        4.6832381490       10.5727391381
Ga            1.6227977566        4.6854251304       15.8585919406
Ga            0.0000480507        7.4937058080        5.2846770518
Ga           -0.0002156238        7.4935980728       10.5730454061
Ga           -0.0001209668        7.4938556812       15.8597201355
Ga           -1.6216097393       10.3024994928        5.2846770518
Ga           -1.6218348779       10.3023250116       10.5730454061
Ga           -1.6215644540       10.3022781827       15.8597201355
Ga           -3.2417367238       13.1118178487        5.2862867605
Ga           -3.2441670188       13.1130831643       10.5727391381
Ga           -3.2422772940       13.1119823009       15.8585919406
Ga            6.4859222520        1.8762331481        5.2870543412
Ga            6.4890658360        1.8728529681       10.5725928357
Ga            6.4894387140        1.8736038540       15.8599842422
Ga            4.8678243757        4.6788608816        5.2870543412
Ga            4.8664688459        4.6832733952       10.5725928357
Ga            4.8673055712        4.6832208741       15.8599842422
Ga            3.2446143043        7.4932226869        5.2844287573
Ga            3.2448892682        7.4930712293       10.5728502565
Ga            3.2447877451        7.4933407810       15.8594793958
Ga            1.6218629407       10.3025901945        5.2840341663
Ga            1.6218918921       10.3026069096       10.5727484163
Ga            1.6218899309       10.3026057773       15.8601732422
Ga            0.0002549923       13.1126178532        5.2844287573
Ga            0.0002613082       13.1129317078       10.5728502565
Ga            0.0004439852       13.1127090104       15.8594793958
Ga            9.7336821410        1.8727491565        5.2838188327
Ga            9.7337589495        1.8731246458       10.5725827428
Ga            9.7337561002        1.8730003604       15.8600595514
Ga            8.1120751619        4.6835114574        5.2844737114
Ga            8.1117423841        4.6833193280       10.5729315474
Ga            8.1115699303        4.6832197618       15.8597368485
Ga            6.4886870950        7.4932454468        5.2838188327
Ga            6.4890506825        7.4931242203       10.5725827428
Ga            6.4889416235        7.4931838954       15.8600595514
Ga            4.8667024139       10.3022732048        5.2844649773
Ga            4.8669952388       10.3020540799       10.5728929877
Ga            4.8667179562       10.3020372459       15.8595039839
Ga            3.2440081562       13.1128621044        5.2844649773
Ga            3.2439648009       13.1132252607       10.5728929877
Ga            3.2438115810       13.1129935439       15.8595039839
Ga           12.9808061654        1.8763941894        5.2872759453
Ga           12.9780524091        1.8731695566       10.5727798911
Ga           12.9776514060        1.8739521300       15.8601921947
Ga           11.3556148346        4.6835497025        5.2846281938
Ga           11.3559413843        4.6833552720       10.5730973663
Ga           11.3560763386        4.6832704783       15.8598844239
Ga            9.7338781195        7.4924800897        5.2846281938
Ga            9.7338730126        7.4928601053       10.5730973663
Ga            9.7338670562        7.4930193761       15.8598844239
Ga            8.1154057983       10.3035148247        5.2872759453
Ga            8.1112363063       10.3027423182       10.5727798911
Ga            8.1117135331       10.3020037525       15.8601921947
Ga            6.4876094531       13.1118302534        5.2862067418
Ga            6.4894174354       13.1128740924       10.5727092424
Ga            6.4877319815       13.1119009952       15.8585491993
N             1.6222764641        0.9366202823        9.9271810475
N             1.6223155535        0.9366428506       15.2058866057
N             0.0090082653        3.7370645849        4.6290516729
N             0.0001651321        3.7458247450        9.9186514759
N             0.0002240182        3.7467294613       15.2092288434
N            -1.6200559616        6.5529989051        4.6312902305
N            -1.6222846695        6.5563885633        9.9197535190
N            -1.6223142131        6.5563994121       15.2073974514
N            -3.2463342270        9.3697954880        4.6312902305
N            -3.2445130508        9.3661705413        9.9197535190
N            -3.2445184273        9.3661395314       15.2073974514
N            -4.8704727701       12.1885736530        4.6290516729
N            -4.8673078155       12.1765351950        9.9186514759
N            -4.8664948651       12.1761338337       15.2092288434
N             4.8534916103        0.9338757607        4.6289956613
N             4.8662153414        0.9368296415        9.9184350216
N             4.8668587416        0.9363937685       15.2090146961
N             3.2355072117        3.7363069449        4.6289956613
N             3.2444272131        3.7458490789        9.9184350216
N             3.2443714361        3.7466242163       15.2090146961
N             1.6223136559        6.5567376717        4.6307165358
N             1.6223034159        6.5568742578        9.9206680136
N             1.6222985019        6.5577530506       15.2066452358
N            -0.0001515402        9.3661155474        4.6308780316
N             0.0000653633        9.3662407768        9.9199592628
N             0.0001902652        9.3663128889       15.2068928834
N            -1.6219115514       12.1759005620        4.6307165358
N            -1.6217983844       12.1758234009        9.9206680136
N            -1.6210397844       12.1753797488       15.2066452358
N             8.1072964814        0.9363535128        4.6311445200
N             8.1113730492        0.9366283207        9.9196461258
N             8.1113787288        0.9366485844       15.2072809150
N             6.4882030375        3.7459642994        4.6311723938
N             6.4891962392        3.7465377247        9.9211399757
N             6.4893491117        3.7466259857       15.2072990618
N             4.8645554436        6.5529457463        4.6311445200
N             4.8668317182        6.5563387537        9.9196461258
N             4.8668521069        6.5563335405       15.2072809150
N             3.2446103924        9.3660988903        4.6310123694
N             3.2444465402        9.3661866264        9.9201095997
N             3.2443179420        9.3662716299       15.2070334051
N             1.6222150006       12.1761701391        4.6310123694
N             1.6222090561       12.1759843709        9.9201095997
N             1.6222183723       12.1758304998       15.2070334051
N            11.3598291249        0.9363548614        4.6311436923
N            11.3559209471        0.9366898218        9.9196869660
N            11.3559187553        0.9367187108       15.2073064866
N             9.7337430790        3.7462309375        4.6312687847
N             9.7337473405        3.7464875037        9.9202342876
N             9.7337316002        3.7464615226       15.2075395574
N             8.1112039736        6.5565511054        4.6312687847
N             8.1114282971        6.5564265129        9.9202342876
N             8.1113979267        6.5564258719       15.2075395574
N             6.4908229333        9.3697209679        4.6311436923
N             6.4891589286        9.3661689065        9.9196869660
N             6.4891828513        9.3661525638       15.2073064866
N             4.8667404018       12.1760169204        4.6309444741
N             4.8664053938       12.1758235035        9.9208336635
N             4.8657505373       12.1754454219       15.2068489628
N            14.6138425536        0.9341014785        4.6290389634
N            14.6010428391        0.9367796007        9.9183306363
N            14.6003795427        0.9363859464       15.2089332438
N            12.9789101615        3.7458380123        4.6309725333
N            12.9780144653        3.7465121920        9.9209940980
N            12.9778293342        3.7466171666       15.2071178056
N            11.3561578983        6.5564793488        4.6310777598
N            11.3559213931        6.5563428025        9.9200469148
N            11.3559456828        6.5563568261       15.2073494791
N             9.7334472317        9.3671447010        4.6309725333
N             9.7335832403        9.3660319156        9.9209940980
N             9.7335815855        9.3658191000       15.2071178056
N             8.1158781607       12.1889059529        4.6290389634
N             8.1117976254       12.1764820139        9.9183306363
N             8.1111250625       12.1761044095       15.2089332438
N            -0.0007753081        1.8736392559        1.9932692952
N             0.0055111602        1.8700939281        7.2728329996
N            -0.0007169814        1.8737089165       12.5651189605
N            -1.6225550351        4.6834287762        1.9870506718
N            -1.6219323593        4.6822548746        7.2759946302
N            -1.6221785138        4.6832644548       12.5636607988
N            -3.2445670027        7.4929555567        1.9867777747
N            -3.2446096215        7.4929309507        7.2753421102
N            -3.2445652135        7.4929565897       12.5635897366
N            -4.8666825833       10.3024225160        1.9870506718
N            -4.8673878740       10.3035487199        7.2759946302
N            -4.8666366292       10.3028307537       12.5636607988
N            -6.4891418235       13.1118197192        1.9932692952
N            -6.4890689333       13.1190366243        7.2728329996
N            -6.4890523324       13.1118354013       12.5651189605
N             3.2449176913        1.8734567814        1.9939210319
N             3.2390746615        1.8700833066        7.2735654967
N             3.2452854307        1.8736690959       12.5654004828
N             1.6222057127        4.6856166773        1.9848337578
N             1.6221606704        4.6862138723        7.2759358652
N             1.6222251321        4.6831827065       12.5640154345
N            -0.0001620167        7.4933245089        1.9862765546
N            -0.0000686735        7.4932018699        7.2761458781
N            -0.0001750848        7.4931717987       12.5638181547
N            -1.6220449876       10.3025082186        1.9862765546
N            -1.6221045245       10.3026503756        7.2761458781
N            -1.6221837726       10.3025732564       12.5638181547
N            -3.2424074315       13.1113738024        1.9848337578
N            -3.2419127666       13.1110361972        7.2759358652
N            -3.2445056023       13.1126076055       12.5640154345
N             6.4895620659        1.8733951422        1.9871308931
N             6.4882543145        1.8733759925        7.2760775286
N             6.4892741460        1.8731882249       12.5637650552
N             4.8671864975        4.6834320558        1.9871308931
N             4.8665160376        4.6823090848        7.2760775286
N             4.8668633419        4.6832861686       12.5637650552
N             3.2447970716        7.4934067828        1.9860591368
N             3.2447106462        7.4932914420        7.2759246105
N             3.2447740271        7.4932459144       12.5636392548
N             1.6223433264       10.3028675453        1.9866489859
N             1.6223505805       10.3028717335        7.2758603939
N             1.6223596759       10.3028769847       12.5636758688
N             0.0005058077       13.1126840864        1.9860591368
N             0.0003627069       13.1126669103        7.2759246105
N             0.0003549694       13.1127445635       12.5636392548
N             9.7335522961        1.8733177759        1.9868731306
N             9.7335513556        1.8733502182        7.2754554419
N             9.7335942821        1.8732951335       12.5637087187
N             8.1111909304        4.6830009461        1.9867066772
N             8.1108161156        4.6827845467        7.2759343191
N             8.1115800550        4.6832256073       12.5638525958
N             6.4891146113        7.4928486880        1.9868731306
N             6.4891422370        7.4928316524        7.2754554419
N             6.4891159954        7.4928963702       12.5637087187
N             4.8664407588       10.3024392577        1.9860843112
N             4.8665084858       10.3025774122        7.2759509421
N             4.8666309448       10.3025698871       12.5636682002
N             3.2440211347       13.1125524780        1.9860843112
N             3.2441746435       13.1125420541        7.2759509421
N             3.2442293561       13.1126518693       12.5636682002
N            12.9777236669        1.8733169694        1.9873222381
N            12.9790053805        1.8733264541        7.2762796425
N            12.9781154362        1.8731460204       12.5639280781
N            11.3560525874        4.6830537146        1.9868353693
N            11.3564236844        4.6828352564        7.2760813827
N            11.3556855101        4.6832702975       12.5640000845
N             9.7336674578        7.4931071887        1.9868353693
N             9.7336638159        7.4935377972        7.2760813827
N             9.7336714854        7.4926809990       12.5640000845
N             8.1111995983       10.3023839127        1.9873222381
N             8.1118486691       10.3034891668        7.2762796425
N             8.1112474367       10.3028086693       12.5639280781
N             6.4868021546       13.1113641593        1.9848171907
N             6.4863152127       13.1110830233        7.2758957573
N             6.4890227077       13.1126461963       12.5639908152



     Writing config-only to output data dir ./GaN.save/
     NEW-OLD atomic charge density approx. for the potential

     Check: negative core charge=   -0.000003


     -----------------------------------------------
     Non-local corr. energy    =      81.65571225 Ry
     -----------------------------------------------


     total cpu time spent up to now is    51625.6 secs

     Self-consistent Calculation

     iteration #  1     ecut=    70.00 Ry     beta= 0.70
     Davidson diagonalization with overlap

---- Real-time Memory Report at c_bands before calling an iterative solver
          3680 MiB given to the printing process from OS
             0 MiB allocation reported by mallinfo(arena+hblkhd)
       1450299 MiB available memory on the node where the printing process lives
------------------
     ethr =  1.00E-06,  avg # of iterations =  3.0


     -----------------------------------------------
     Non-local corr. energy    =      81.65564516 Ry
     -----------------------------------------------


     total cpu time spent up to now is    52615.5 secs

     total energy              =  -46812.76596379 Ry
     estimated scf accuracy    <       0.00360394 Ry

     iteration #  2     ecut=    70.00 Ry     beta= 0.70
     Davidson diagonalization with overlap

---- Real-time Memory Report at c_bands before calling an iterative solver
          3680 MiB given to the printing process from OS
             0 MiB allocation reported by mallinfo(arena+hblkhd)
       1450427 MiB available memory on the node where the printing process lives
------------------
     c_bands:  1 eigenvalues not converged
     ethr =  1.34E-07,  avg # of iterations = 16.7


     -----------------------------------------------
     Non-local corr. energy    =      81.65574289 Ry
     -----------------------------------------------


     total cpu time spent up to now is    56433.5 secs

     total energy              =  -46812.76682976 Ry
     estimated scf accuracy    <       0.00097760 Ry

     iteration #  3     ecut=    70.00 Ry     beta= 0.70
     Davidson diagonalization with overlap

---- Real-time Memory Report at c_bands before calling an iterative solver
          3680 MiB given to the printing process from OS
             0 MiB allocation reported by mallinfo(arena+hblkhd)
       1440206 MiB available memory on the node where the printing process lives
------------------
