
     Program PWSCF v.7.1 starts on 16May2024 at 20:22: 9 

     This program is part of the open-source Quantum ESPRESSO suite
     for quantum simulation of materials; please cite
         "P. Giannozzi et al., J. Phys.:Condens. Matter 21 395502 (2009);
         "P. Giannozzi et al., J. Phys.:Condens. Matter 29 465901 (2017);
         "P. Giannozzi et al., J. Chem. Phys. 152 154105 (2020);
          URL http://www.quantum-espresso.org", 
     in publications or presentations arising from this work. More details at
     http://www.quantum-espresso.org/quote

     Parallel version (MPI & OpenMP), running on     128 processor cores
     Number of MPI processes:               128
     Threads/MPI process:                     1

     MPI processes distributed on     1 nodes
     1715695 MiB available memory on the printing compute node when the environment starts
 
     Reading input from espresso.pwi
Warning: card &CELL ignored
Warning: card    CELL_DYNAMICS    = 'BFGS' ignored
Warning: card / ignored

     Current dimensions of program PWSCF are:
     Max number of different atomic species (ntypx) = 10
     Max number of k-points (npk) =  40000
     Max angular momentum in pseudopotentials (lmaxx) =  4
     file Ga.pbe-dn-kjpaw_psl.1.0.0.UPF: wavefunction(s)  4S renormalized
     file N.pbe-n-kjpaw_psl.1.0.0.UPF: wavefunction(s)  2S renormalized

     **************************************************************************
     Initializing libbeef V0.1.2 with the BEEF-vdW functional.
     Citation: Wellendorff et al., PRB 85, 235149 (2012).
     **************************************************************************


     IMPORTANT: XC functional enforced from input :
     Exchange-correlation= BEEF-VDW
                           (   1   4  43  14   2   0   0)
     Any further DFT definition will be discarded
     Please, verify this is what you really want

 
     K-points division:     npool     =       2
     R & G space division:  proc/nbgrp/npool/nimage =      64
     Subspace diagonalization in iterative solution of the eigenvalue problem:
     a serial algorithm will be used

 
     Parallelization info
     --------------------
     sticks:   dense  smooth     PW     G-vecs:    dense   smooth      PW
     Min         354     283     73                42160    30167    3987
     Max         356     285     74                42163    30170    3996
     Sum       22693   18145   4705              2698283  1930731  255309
 
     Using Slab Decomposition
 


     bravais-lattice index     =            4
     lattice parameter (alat)  =      30.6565  a.u.
     unit-cell volume          =   24400.9461 (a.u.)^3
     number of atoms/cell      =          299
     number of atomic types    =            2
     number of electrons       =      2697.00
     number of Kohn-Sham states=         1619
     kinetic-energy cutoff     =      70.0000  Ry
     charge density cutoff     =     350.0000  Ry
     scf convergence threshold =      1.0E-07
     mixing beta               =       0.7000
     number of iterations used =            8  plain     mixing
     energy convergence thresh.=      1.0E-04
     force convergence thresh. =      1.0E-03
     Exchange-correlation= BEEF-VDW
                           (   1   4  43  14   2   0   0)
     nstep                     =           50


     celldm(1)=  30.656540  celldm(2)=   0.000000  celldm(3)=   0.977927
     celldm(4)=   0.000000  celldm(5)=   0.000000  celldm(6)=   0.000000

     crystal axes: (cart. coord. in units of alat)
               a(1) = (   1.000000   0.000000   0.000000 )  
               a(2) = (  -0.500000   0.866025   0.000000 )  
               a(3) = (   0.000000   0.000000   0.977927 )  

     reciprocal axes: (cart. coord. in units 2 pi/alat)
               b(1) = (  1.000000  0.577350 -0.000000 )  
               b(2) = (  0.000000  1.154701  0.000000 )  
               b(3) = (  0.000000 -0.000000  1.022571 )  


     PseudoPot. # 1 for Ga read from file:
     //group///packages/espresso/pseudo/psl_1.0.0/pslibrary.1.0.0/pbe/PSEUDOPOTENTIALS/Ga.pbe-dn-kjpaw_psl.1.0.0.UPF
     MD5 check sum: cd2a01e492f15b435d17032472d8505c
     Pseudo is Projector augmented-wave + core cor, Zval = 13.0
     Generated using 'atomic' code by A. Dal Corso  v.7.1
     Shape of augmentation charge: PSQ
     Using radial grid of 1205 points,  6 beta functions with: 
                l(1) =   0
                l(2) =   0
                l(3) =   1
                l(4) =   1
                l(5) =   2
                l(6) =   2
     Q(r) pseudized with 0 coefficients 


     PseudoPot. # 2 for N  read from file:
     //group///packages/espresso/pseudo/psl_1.0.0/pslibrary.1.0.0/pbe/PSEUDOPOTENTIALS/N.pbe-n-kjpaw_psl.1.0.0.UPF
     MD5 check sum: f77f775694dac7e2c3fe1c82443d1a16
     Pseudo is Projector augmented-wave + core cor, Zval =  5.0
     Generated using 'atomic' code by A. Dal Corso  v.7.1
     Shape of augmentation charge: PSQ
     Using radial grid of 1085 points,  4 beta functions with: 
                l(1) =   0
                l(2) =   0
                l(3) =   1
                l(4) =   1
     Q(r) pseudized with 0 coefficients 


     atomic species   valence    mass     pseudopotential
        Ga            13.00    69.72300     Ga( 1.00)
        N              5.00    14.00700     N ( 1.00)

      2 Sym. Ops. (no inversion) found


                                    s                        frac. trans.

      isym =  1     identity                                     

 cryst.   s( 1) = (     1          0          0      )
                  (     0          1          0      )
                  (     0          0          1      )

 cart.    s( 1) = (  1.0000000  0.0000000  0.0000000 )
                  (  0.0000000  1.0000000  0.0000000 )
                  (  0.0000000  0.0000000  1.0000000 )


      isym =  2     inv. 180 deg rotation - cryst. axis [0,1,0]  

 cryst.   s( 2) = (     1          1          0      )
                  (     0         -1          0      )
                  (     0          0          1      )

 cart.    s( 2) = (  0.5000000  0.8660254  0.0000000 )
                  (  0.8660254 -0.5000000  0.0000000 )
                  (  0.0000000  0.0000000  1.0000000 )


     point group C_s (m)    
     there are  2 classes
     the character table:

       E     s    
A'     1.00  1.00
A''    1.00 -1.00

     the symmetry operations in each class and the name of the first element:

     E        1
          identity                                               
     s        2
          inv. 180 deg rotation - cryst. axis [0,1,0]            

   Cartesian axes

     site n.     atom                  positions (alat units)
         1           Ga  tau(   1) = (   0.1000001   0.0577350   0.1627148  )
         2           Ga  tau(   2) = (   0.1000001   0.0577350   0.4886906  )
         3           Ga  tau(   3) = (   0.1000001   0.0577350   0.8146665  )
         4           Ga  tau(   4) = (   0.0000001   0.2309401   0.1627148  )
         5           Ga  tau(   5) = (   0.0000001   0.2309401   0.4886906  )
         6           Ga  tau(   6) = (   0.0000001   0.2309401   0.8146665  )
         7           Ga  tau(   7) = (  -0.0999999   0.4041451   0.1627148  )
         8           Ga  tau(   8) = (  -0.0999999   0.4041451   0.4886906  )
         9           Ga  tau(   9) = (  -0.0999999   0.4041451   0.8146665  )
        10           Ga  tau(  10) = (  -0.1999999   0.5773502   0.1627148  )
        11           Ga  tau(  11) = (  -0.1999999   0.5773502   0.4886906  )
        12           Ga  tau(  12) = (  -0.1999999   0.5773502   0.8146665  )
        13           Ga  tau(  13) = (  -0.2999999   0.7505553   0.1627148  )
        14           Ga  tau(  14) = (  -0.2999999   0.7505553   0.4886906  )
        15           Ga  tau(  15) = (  -0.2999999   0.7505553   0.8146665  )
        16           Ga  tau(  16) = (   0.3000001   0.0577350   0.1627148  )
        17           Ga  tau(  17) = (   0.3000001   0.0577350   0.4886906  )
        18           Ga  tau(  18) = (   0.3000001   0.0577350   0.8146665  )
        19           Ga  tau(  19) = (   0.2000001   0.2309401   0.1627148  )
        20           Ga  tau(  20) = (   0.2000001   0.2309401   0.4886906  )
        21           Ga  tau(  21) = (   0.2000001   0.2309401   0.8146665  )
        22           Ga  tau(  22) = (   0.1000001   0.4041451   0.1627148  )
        23           Ga  tau(  23) = (   0.1000001   0.4041451   0.4886906  )
        24           Ga  tau(  24) = (   0.1000001   0.4041451   0.8146665  )
        25           Ga  tau(  25) = (   0.0000001   0.5773502   0.1627148  )
        26           Ga  tau(  26) = (   0.0000001   0.5773502   0.4886906  )
        27           Ga  tau(  27) = (   0.0000001   0.5773502   0.8146665  )
        28           Ga  tau(  28) = (  -0.0999999   0.7505553   0.1627148  )
        29           Ga  tau(  29) = (  -0.0999999   0.7505553   0.4886906  )
        30           Ga  tau(  30) = (  -0.0999999   0.7505553   0.8146665  )
        31           Ga  tau(  31) = (   0.5000001   0.0577350   0.1627148  )
        32           Ga  tau(  32) = (   0.5000001   0.0577350   0.4886906  )
        33           Ga  tau(  33) = (   0.5000001   0.0577350   0.8146665  )
        34           Ga  tau(  34) = (   0.4000001   0.2309401   0.1627148  )
        35           Ga  tau(  35) = (   0.4000001   0.2309401   0.4886906  )
        36           Ga  tau(  36) = (   0.4000001   0.2309401   0.8146665  )
        37           Ga  tau(  37) = (   0.3000001   0.4041451   0.1627148  )
        38           Ga  tau(  38) = (   0.3000001   0.4041451   0.4886906  )
        39           Ga  tau(  39) = (   0.3000001   0.4041451   0.8146665  )
        40           Ga  tau(  40) = (   0.2000001   0.5773502   0.1627148  )
        41           Ga  tau(  41) = (   0.2000001   0.5773502   0.4886906  )
        42           Ga  tau(  42) = (   0.2000001   0.5773502   0.8146665  )
        43           Ga  tau(  43) = (   0.1000001   0.7505553   0.1627148  )
        44           Ga  tau(  44) = (   0.1000001   0.7505553   0.4886906  )
        45           Ga  tau(  45) = (   0.1000001   0.7505553   0.8146665  )
        46           Ga  tau(  46) = (   0.7000001   0.0577350   0.1627148  )
        47           Ga  tau(  47) = (   0.7000001   0.0577350   0.4886906  )
        48           Ga  tau(  48) = (   0.7000001   0.0577350   0.8146665  )
        49           Ga  tau(  49) = (   0.6000001   0.2309401   0.1627148  )
        50           Ga  tau(  50) = (   0.6000001   0.2309401   0.4886906  )
        51           Ga  tau(  51) = (   0.6000001   0.2309401   0.8146665  )
        52           Ga  tau(  52) = (   0.5000001   0.4041451   0.1627148  )
        53           Ga  tau(  53) = (   0.5000001   0.4041451   0.4886906  )
        54           Ga  tau(  54) = (   0.5000001   0.4041451   0.8146665  )
        55           Ga  tau(  55) = (   0.4000001   0.5773502   0.1627148  )
        56           Ga  tau(  56) = (   0.4000001   0.5773502   0.4886906  )
        57           Ga  tau(  57) = (   0.4000001   0.5773502   0.8146665  )
        58           Ga  tau(  58) = (   0.3000001   0.7505553   0.1627148  )
        59           Ga  tau(  59) = (   0.3000001   0.7505553   0.4886906  )
        60           Ga  tau(  60) = (   0.3000001   0.7505553   0.8146665  )
        61           Ga  tau(  61) = (   0.9000001   0.0577350   0.1627148  )
        62           Ga  tau(  62) = (   0.9000001   0.0577350   0.4886906  )
        63           Ga  tau(  63) = (   0.9000001   0.0577350   0.8146665  )
        64           Ga  tau(  64) = (   0.8000001   0.2309401   0.1627148  )
        65           Ga  tau(  65) = (   0.8000001   0.2309401   0.4886906  )
        66           Ga  tau(  66) = (   0.8000001   0.2309401   0.8146665  )
        67           Ga  tau(  67) = (   0.7000001   0.4041451   0.1627148  )
        68           Ga  tau(  68) = (   0.7000001   0.4041451   0.4886906  )
        69           Ga  tau(  69) = (   0.7000001   0.4041451   0.8146665  )
        70           Ga  tau(  70) = (   0.6000001   0.5773502   0.1627148  )
        71           Ga  tau(  71) = (   0.6000001   0.5773502   0.4886906  )
        72           Ga  tau(  72) = (   0.6000001   0.5773502   0.8146665  )
        73           Ga  tau(  73) = (   0.5000001   0.7505553   0.1627148  )
        74           Ga  tau(  74) = (   0.5000001   0.7505553   0.4886906  )
        75           Ga  tau(  75) = (   0.5000001   0.7505553   0.8146665  )
        76           Ga  tau(  76) = (  -0.0000001   0.1154701   0.3257027  )
        77           Ga  tau(  77) = (  -0.0000001   0.1154701   0.6516786  )
        78           Ga  tau(  78) = (  -0.0000001   0.1154701   0.9776544  )
        79           Ga  tau(  79) = (  -0.1000001   0.2886752   0.3257027  )
        80           Ga  tau(  80) = (  -0.1000001   0.2886752   0.6516786  )
        81           Ga  tau(  81) = (  -0.1000001   0.2886752   0.9776544  )
        82           Ga  tau(  82) = (  -0.2000001   0.4618803   0.3257027  )
        83           Ga  tau(  83) = (  -0.2000001   0.4618803   0.6516786  )
        84           Ga  tau(  84) = (  -0.2000001   0.4618803   0.9776544  )
        85           Ga  tau(  85) = (  -0.3000001   0.6350854   0.3257027  )
        86           Ga  tau(  86) = (  -0.3000001   0.6350854   0.6516786  )
        87           Ga  tau(  87) = (  -0.3000001   0.6350854   0.9776544  )
        88           Ga  tau(  88) = (  -0.4000001   0.8082905   0.3257027  )
        89           Ga  tau(  89) = (  -0.4000001   0.8082905   0.6516786  )
        90           Ga  tau(  90) = (  -0.4000001   0.8082905   0.9776544  )
        91           Ga  tau(  91) = (   0.1999999   0.1154701   0.3257027  )
        92           Ga  tau(  92) = (   0.1999999   0.1154701   0.6516786  )
        93           Ga  tau(  93) = (   0.1999999   0.1154701   0.9776544  )
        94           Ga  tau(  94) = (   0.0999999   0.2886752   0.3257027  )
        95           Ga  tau(  95) = (   0.0999999   0.2886752   0.6516786  )
        96           Ga  tau(  96) = (   0.0999999   0.2886752   0.9776544  )
        97           Ga  tau(  97) = (  -0.0000001   0.4618803   0.3257027  )
        98           Ga  tau(  98) = (  -0.0000001   0.4618803   0.6516786  )
        99           Ga  tau(  99) = (  -0.0000001   0.4618803   0.9776544  )
       100           Ga  tau( 100) = (  -0.1000001   0.6350854   0.3257027  )
       101           Ga  tau( 101) = (  -0.1000001   0.6350854   0.6516786  )
       102           Ga  tau( 102) = (  -0.1000001   0.6350854   0.9776544  )
       103           Ga  tau( 103) = (  -0.2000001   0.8082905   0.3257027  )
       104           Ga  tau( 104) = (  -0.2000001   0.8082905   0.6516786  )
       105           Ga  tau( 105) = (  -0.2000001   0.8082905   0.9776544  )
       106           Ga  tau( 106) = (   0.3999999   0.1154701   0.3257027  )
       107           Ga  tau( 107) = (   0.3999999   0.1154701   0.6516786  )
       108           Ga  tau( 108) = (   0.3999999   0.1154701   0.9776544  )
       109           Ga  tau( 109) = (   0.2999999   0.2886752   0.3257027  )
       110           Ga  tau( 110) = (   0.2999999   0.2886752   0.6516786  )
       111           Ga  tau( 111) = (   0.2999999   0.2886752   0.9776544  )
       112           Ga  tau( 112) = (   0.1999999   0.4618803   0.3257027  )
       113           Ga  tau( 113) = (   0.1999999   0.4618803   0.6516786  )
       114           Ga  tau( 114) = (   0.1999999   0.4618803   0.9776544  )
       115           Ga  tau( 115) = (   0.0999999   0.6350854   0.3257027  )
       116           Ga  tau( 116) = (   0.0999999   0.6350854   0.6516786  )
       117           Ga  tau( 117) = (   0.0999999   0.6350854   0.9776544  )
       118           Ga  tau( 118) = (  -0.0000001   0.8082905   0.3257027  )
       119           Ga  tau( 119) = (  -0.0000001   0.8082905   0.6516786  )
       120           Ga  tau( 120) = (  -0.0000001   0.8082905   0.9776544  )
       121           Ga  tau( 121) = (   0.5999999   0.1154701   0.3257027  )
       122           Ga  tau( 122) = (   0.5999999   0.1154701   0.6516786  )
       123           Ga  tau( 123) = (   0.5999999   0.1154701   0.9776544  )
       124           Ga  tau( 124) = (   0.4999999   0.2886752   0.3257027  )
       125           Ga  tau( 125) = (   0.4999999   0.2886752   0.6516786  )
       126           Ga  tau( 126) = (   0.4999999   0.2886752   0.9776544  )
       127           Ga  tau( 127) = (   0.3999999   0.4618803   0.3257027  )
       128           Ga  tau( 128) = (   0.3999999   0.4618803   0.6516786  )
       129           Ga  tau( 129) = (   0.3999999   0.4618803   0.9776544  )
       130           Ga  tau( 130) = (   0.2999999   0.6350854   0.3257027  )
       131           Ga  tau( 131) = (   0.2999999   0.6350854   0.6516786  )
       132           Ga  tau( 132) = (   0.2999999   0.6350854   0.9776544  )
       133           Ga  tau( 133) = (   0.1999999   0.8082905   0.3257027  )
       134           Ga  tau( 134) = (   0.1999999   0.8082905   0.6516786  )
       135           Ga  tau( 135) = (   0.1999999   0.8082905   0.9776544  )
       136           Ga  tau( 136) = (   0.7999999   0.1154701   0.3257027  )
       137           Ga  tau( 137) = (   0.7999999   0.1154701   0.6516786  )
       138           Ga  tau( 138) = (   0.7999999   0.1154701   0.9776544  )
       139           Ga  tau( 139) = (   0.6999999   0.2886752   0.3257027  )
       140           Ga  tau( 140) = (   0.6999999   0.2886752   0.6516786  )
       141           Ga  tau( 141) = (   0.6999999   0.2886752   0.9776544  )
       142           Ga  tau( 142) = (   0.5999999   0.4618803   0.3257027  )
       143           Ga  tau( 143) = (   0.5999999   0.4618803   0.6516786  )
       144           Ga  tau( 144) = (   0.5999999   0.4618803   0.9776544  )
       145           Ga  tau( 145) = (   0.4999999   0.6350854   0.3257027  )
       146           Ga  tau( 146) = (   0.4999999   0.6350854   0.6516786  )
       147           Ga  tau( 147) = (   0.4999999   0.6350854   0.9776544  )
       148           Ga  tau( 148) = (   0.3999999   0.8082905   0.3257027  )
       149           Ga  tau( 149) = (   0.3999999   0.8082905   0.6516786  )
       150           Ga  tau( 150) = (   0.3999999   0.8082905   0.9776544  )
       151           N   tau( 151) = (   0.1000001   0.0577350   0.6114777  )
       152           N   tau( 152) = (   0.1000001   0.0577350   0.9374535  )
       153           N   tau( 153) = (   0.0000001   0.2309401   0.2855019  )
       154           N   tau( 154) = (   0.0000001   0.2309401   0.6114777  )
       155           N   tau( 155) = (   0.0000001   0.2309401   0.9374535  )
       156           N   tau( 156) = (  -0.0999999   0.4041451   0.2855019  )
       157           N   tau( 157) = (  -0.0999999   0.4041451   0.6114777  )
       158           N   tau( 158) = (  -0.0999999   0.4041451   0.9374535  )
       159           N   tau( 159) = (  -0.1999999   0.5773502   0.2855019  )
       160           N   tau( 160) = (  -0.1999999   0.5773502   0.6114777  )
       161           N   tau( 161) = (  -0.1999999   0.5773502   0.9374535  )
       162           N   tau( 162) = (  -0.2999999   0.7505553   0.2855019  )
       163           N   tau( 163) = (  -0.2999999   0.7505553   0.6114777  )
       164           N   tau( 164) = (  -0.2999999   0.7505553   0.9374535  )
       165           N   tau( 165) = (   0.3000001   0.0577350   0.2855019  )
       166           N   tau( 166) = (   0.3000001   0.0577350   0.6114777  )
       167           N   tau( 167) = (   0.3000001   0.0577350   0.9374535  )
       168           N   tau( 168) = (   0.2000001   0.2309401   0.2855019  )
       169           N   tau( 169) = (   0.2000001   0.2309401   0.6114777  )
       170           N   tau( 170) = (   0.2000001   0.2309401   0.9374535  )
       171           N   tau( 171) = (   0.1000001   0.4041451   0.2855019  )
       172           N   tau( 172) = (   0.1000001   0.4041451   0.6114777  )
       173           N   tau( 173) = (   0.1000001   0.4041451   0.9374535  )
       174           N   tau( 174) = (   0.0000001   0.5773502   0.2855019  )
       175           N   tau( 175) = (   0.0000001   0.5773502   0.6114777  )
       176           N   tau( 176) = (   0.0000001   0.5773502   0.9374535  )
       177           N   tau( 177) = (  -0.0999999   0.7505553   0.2855019  )
       178           N   tau( 178) = (  -0.0999999   0.7505553   0.6114777  )
       179           N   tau( 179) = (  -0.0999999   0.7505553   0.9374535  )
       180           N   tau( 180) = (   0.5000001   0.0577350   0.2855019  )
       181           N   tau( 181) = (   0.5000001   0.0577350   0.6114777  )
       182           N   tau( 182) = (   0.5000001   0.0577350   0.9374535  )
       183           N   tau( 183) = (   0.4000001   0.2309401   0.2855019  )
       184           N   tau( 184) = (   0.4000001   0.2309401   0.6114777  )
       185           N   tau( 185) = (   0.4000001   0.2309401   0.9374535  )
       186           N   tau( 186) = (   0.3000001   0.4041451   0.2855019  )
       187           N   tau( 187) = (   0.3000001   0.4041451   0.6114777  )
       188           N   tau( 188) = (   0.3000001   0.4041451   0.9374535  )
       189           N   tau( 189) = (   0.2000001   0.5773502   0.2855019  )
       190           N   tau( 190) = (   0.2000001   0.5773502   0.6114777  )
       191           N   tau( 191) = (   0.2000001   0.5773502   0.9374535  )
       192           N   tau( 192) = (   0.1000001   0.7505553   0.2855019  )
       193           N   tau( 193) = (   0.1000001   0.7505553   0.6114777  )
       194           N   tau( 194) = (   0.1000001   0.7505553   0.9374535  )
       195           N   tau( 195) = (   0.7000001   0.0577350   0.2855019  )
       196           N   tau( 196) = (   0.7000001   0.0577350   0.6114777  )
       197           N   tau( 197) = (   0.7000001   0.0577350   0.9374535  )
       198           N   tau( 198) = (   0.6000001   0.2309401   0.2855019  )
       199           N   tau( 199) = (   0.6000001   0.2309401   0.6114777  )
       200           N   tau( 200) = (   0.6000001   0.2309401   0.9374535  )
       201           N   tau( 201) = (   0.5000001   0.4041451   0.2855019  )
       202           N   tau( 202) = (   0.5000001   0.4041451   0.6114777  )
       203           N   tau( 203) = (   0.5000001   0.4041451   0.9374535  )
       204           N   tau( 204) = (   0.4000001   0.5773502   0.2855019  )
       205           N   tau( 205) = (   0.4000001   0.5773502   0.6114777  )
       206           N   tau( 206) = (   0.4000001   0.5773502   0.9374535  )
       207           N   tau( 207) = (   0.3000001   0.7505553   0.2855019  )
       208           N   tau( 208) = (   0.3000001   0.7505553   0.6114777  )
       209           N   tau( 209) = (   0.3000001   0.7505553   0.9374535  )
       210           N   tau( 210) = (   0.9000001   0.0577350   0.2855019  )
       211           N   tau( 211) = (   0.9000001   0.0577350   0.6114777  )
       212           N   tau( 212) = (   0.9000001   0.0577350   0.9374535  )
       213           N   tau( 213) = (   0.8000001   0.2309401   0.2855019  )
       214           N   tau( 214) = (   0.8000001   0.2309401   0.6114777  )
       215           N   tau( 215) = (   0.8000001   0.2309401   0.9374535  )
       216           N   tau( 216) = (   0.7000001   0.4041451   0.2855019  )
       217           N   tau( 217) = (   0.7000001   0.4041451   0.6114777  )
       218           N   tau( 218) = (   0.7000001   0.4041451   0.9374535  )
       219           N   tau( 219) = (   0.6000001   0.5773502   0.2855019  )
       220           N   tau( 220) = (   0.6000001   0.5773502   0.6114777  )
       221           N   tau( 221) = (   0.6000001   0.5773502   0.9374535  )
       222           N   tau( 222) = (   0.5000001   0.7505553   0.2855019  )
       223           N   tau( 223) = (   0.5000001   0.7505553   0.6114777  )
       224           N   tau( 224) = (   0.5000001   0.7505553   0.9374535  )
       225           N   tau( 225) = (  -0.0000001   0.1154701   0.1225140  )
       226           N   tau( 226) = (  -0.0000001   0.1154701   0.4484898  )
       227           N   tau( 227) = (  -0.0000001   0.1154701   0.7744656  )
       228           N   tau( 228) = (  -0.1000001   0.2886752   0.1225140  )
       229           N   tau( 229) = (  -0.1000001   0.2886752   0.4484898  )
       230           N   tau( 230) = (  -0.1000001   0.2886752   0.7744656  )
       231           N   tau( 231) = (  -0.2000001   0.4618803   0.1225140  )
       232           N   tau( 232) = (  -0.2000001   0.4618803   0.4484898  )
       233           N   tau( 233) = (  -0.2000001   0.4618803   0.7744656  )
       234           N   tau( 234) = (  -0.3000001   0.6350854   0.1225140  )
       235           N   tau( 235) = (  -0.3000001   0.6350854   0.4484898  )
       236           N   tau( 236) = (  -0.3000001   0.6350854   0.7744656  )
       237           N   tau( 237) = (  -0.4000001   0.8082905   0.1225140  )
       238           N   tau( 238) = (  -0.4000001   0.8082905   0.4484898  )
       239           N   tau( 239) = (  -0.4000001   0.8082905   0.7744656  )
       240           N   tau( 240) = (   0.1999999   0.1154701   0.1225140  )
       241           N   tau( 241) = (   0.1999999   0.1154701   0.4484898  )
       242           N   tau( 242) = (   0.1999999   0.1154701   0.7744656  )
       243           N   tau( 243) = (   0.0999999   0.2886752   0.1225140  )
       244           N   tau( 244) = (   0.0999999   0.2886752   0.4484898  )
       245           N   tau( 245) = (   0.0999999   0.2886752   0.7744656  )
       246           N   tau( 246) = (  -0.0000001   0.4618803   0.1225140  )
       247           N   tau( 247) = (  -0.0000001   0.4618803   0.4484898  )
       248           N   tau( 248) = (  -0.0000001   0.4618803   0.7744656  )
       249           N   tau( 249) = (  -0.1000001   0.6350854   0.1225140  )
       250           N   tau( 250) = (  -0.1000001   0.6350854   0.4484898  )
       251           N   tau( 251) = (  -0.1000001   0.6350854   0.7744656  )
       252           N   tau( 252) = (  -0.2000001   0.8082905   0.1225140  )
       253           N   tau( 253) = (  -0.2000001   0.8082905   0.4484898  )
       254           N   tau( 254) = (  -0.2000001   0.8082905   0.7744656  )
       255           N   tau( 255) = (   0.3999999   0.1154701   0.1225140  )
       256           N   tau( 256) = (   0.3999999   0.1154701   0.4484898  )
       257           N   tau( 257) = (   0.3999999   0.1154701   0.7744656  )
       258           N   tau( 258) = (   0.2999999   0.2886752   0.1225140  )
       259           N   tau( 259) = (   0.2999999   0.2886752   0.4484898  )
       260           N   tau( 260) = (   0.2999999   0.2886752   0.7744656  )
       261           N   tau( 261) = (   0.1999999   0.4618803   0.1225140  )
       262           N   tau( 262) = (   0.1999999   0.4618803   0.4484898  )
       263           N   tau( 263) = (   0.1999999   0.4618803   0.7744656  )
       264           N   tau( 264) = (   0.0999999   0.6350854   0.1225140  )
       265           N   tau( 265) = (   0.0999999   0.6350854   0.4484898  )
       266           N   tau( 266) = (   0.0999999   0.6350854   0.7744656  )
       267           N   tau( 267) = (  -0.0000001   0.8082905   0.1225140  )
       268           N   tau( 268) = (  -0.0000001   0.8082905   0.4484898  )
       269           N   tau( 269) = (  -0.0000001   0.8082905   0.7744656  )
       270           N   tau( 270) = (   0.5999999   0.1154701   0.1225140  )
       271           N   tau( 271) = (   0.5999999   0.1154701   0.4484898  )
       272           N   tau( 272) = (   0.5999999   0.1154701   0.7744656  )
       273           N   tau( 273) = (   0.4999999   0.2886752   0.1225140  )
       274           N   tau( 274) = (   0.4999999   0.2886752   0.4484898  )
       275           N   tau( 275) = (   0.4999999   0.2886752   0.7744656  )
       276           N   tau( 276) = (   0.3999999   0.4618803   0.1225140  )
       277           N   tau( 277) = (   0.3999999   0.4618803   0.4484898  )
       278           N   tau( 278) = (   0.3999999   0.4618803   0.7744656  )
       279           N   tau( 279) = (   0.2999999   0.6350854   0.1225140  )
       280           N   tau( 280) = (   0.2999999   0.6350854   0.4484898  )
       281           N   tau( 281) = (   0.2999999   0.6350854   0.7744656  )
       282           N   tau( 282) = (   0.1999999   0.8082905   0.1225140  )
       283           N   tau( 283) = (   0.1999999   0.8082905   0.4484898  )
       284           N   tau( 284) = (   0.1999999   0.8082905   0.7744656  )
       285           N   tau( 285) = (   0.7999999   0.1154701   0.1225140  )
       286           N   tau( 286) = (   0.7999999   0.1154701   0.4484898  )
       287           N   tau( 287) = (   0.7999999   0.1154701   0.7744656  )
       288           N   tau( 288) = (   0.6999999   0.2886752   0.1225140  )
       289           N   tau( 289) = (   0.6999999   0.2886752   0.4484898  )
       290           N   tau( 290) = (   0.6999999   0.2886752   0.7744656  )
       291           N   tau( 291) = (   0.5999999   0.4618803   0.1225140  )
       292           N   tau( 292) = (   0.5999999   0.4618803   0.4484898  )
       293           N   tau( 293) = (   0.5999999   0.4618803   0.7744656  )
       294           N   tau( 294) = (   0.4999999   0.6350854   0.1225140  )
       295           N   tau( 295) = (   0.4999999   0.6350854   0.4484898  )
       296           N   tau( 296) = (   0.4999999   0.6350854   0.7744656  )
       297           N   tau( 297) = (   0.3999999   0.8082905   0.1225140  )
       298           N   tau( 298) = (   0.3999999   0.8082905   0.4484898  )
       299           N   tau( 299) = (   0.3999999   0.8082905   0.7744656  )

   Crystallographic axes

     site n.     atom                  positions (cryst. coord.)
         1           Ga  tau(   1) = (  0.1333334  0.0666666  0.1663874  )
         2           Ga  tau(   2) = (  0.1333334  0.0666666  0.4997208  )
         3           Ga  tau(   3) = (  0.1333334  0.0666666  0.8330541  )
         4           Ga  tau(   4) = (  0.1333334  0.2666666  0.1663874  )
         5           Ga  tau(   5) = (  0.1333334  0.2666666  0.4997208  )
         6           Ga  tau(   6) = (  0.1333334  0.2666666  0.8330541  )
         7           Ga  tau(   7) = (  0.1333334  0.4666666  0.1663874  )
         8           Ga  tau(   8) = (  0.1333334  0.4666666  0.4997208  )
         9           Ga  tau(   9) = (  0.1333334  0.4666666  0.8330541  )
        10           Ga  tau(  10) = (  0.1333334  0.6666666  0.1663874  )
        11           Ga  tau(  11) = (  0.1333334  0.6666666  0.4997208  )
        12           Ga  tau(  12) = (  0.1333334  0.6666666  0.8330541  )
        13           Ga  tau(  13) = (  0.1333334  0.8666666  0.1663874  )
        14           Ga  tau(  14) = (  0.1333334  0.8666666  0.4997208  )
        15           Ga  tau(  15) = (  0.1333334  0.8666666  0.8330541  )
        16           Ga  tau(  16) = (  0.3333334  0.0666666  0.1663874  )
        17           Ga  tau(  17) = (  0.3333334  0.0666666  0.4997208  )
        18           Ga  tau(  18) = (  0.3333334  0.0666666  0.8330541  )
        19           Ga  tau(  19) = (  0.3333334  0.2666666  0.1663874  )
        20           Ga  tau(  20) = (  0.3333334  0.2666666  0.4997208  )
        21           Ga  tau(  21) = (  0.3333334  0.2666666  0.8330541  )
        22           Ga  tau(  22) = (  0.3333334  0.4666666  0.1663874  )
        23           Ga  tau(  23) = (  0.3333334  0.4666666  0.4997208  )
        24           Ga  tau(  24) = (  0.3333334  0.4666666  0.8330541  )
        25           Ga  tau(  25) = (  0.3333334  0.6666666  0.1663874  )
        26           Ga  tau(  26) = (  0.3333334  0.6666666  0.4997208  )
        27           Ga  tau(  27) = (  0.3333334  0.6666666  0.8330541  )
        28           Ga  tau(  28) = (  0.3333334  0.8666666  0.1663874  )
        29           Ga  tau(  29) = (  0.3333334  0.8666666  0.4997208  )
        30           Ga  tau(  30) = (  0.3333334  0.8666666  0.8330541  )
        31           Ga  tau(  31) = (  0.5333334  0.0666666  0.1663874  )
        32           Ga  tau(  32) = (  0.5333334  0.0666666  0.4997208  )
        33           Ga  tau(  33) = (  0.5333334  0.0666666  0.8330541  )
        34           Ga  tau(  34) = (  0.5333334  0.2666666  0.1663874  )
        35           Ga  tau(  35) = (  0.5333334  0.2666666  0.4997208  )
        36           Ga  tau(  36) = (  0.5333334  0.2666666  0.8330541  )
        37           Ga  tau(  37) = (  0.5333334  0.4666666  0.1663874  )
        38           Ga  tau(  38) = (  0.5333334  0.4666666  0.4997208  )
        39           Ga  tau(  39) = (  0.5333334  0.4666666  0.8330541  )
        40           Ga  tau(  40) = (  0.5333334  0.6666666  0.1663874  )
        41           Ga  tau(  41) = (  0.5333334  0.6666666  0.4997208  )
        42           Ga  tau(  42) = (  0.5333334  0.6666666  0.8330541  )
        43           Ga  tau(  43) = (  0.5333334  0.8666666  0.1663874  )
        44           Ga  tau(  44) = (  0.5333334  0.8666666  0.4997208  )
        45           Ga  tau(  45) = (  0.5333334  0.8666666  0.8330541  )
        46           Ga  tau(  46) = (  0.7333334  0.0666666  0.1663874  )
        47           Ga  tau(  47) = (  0.7333334  0.0666666  0.4997208  )
        48           Ga  tau(  48) = (  0.7333334  0.0666666  0.8330541  )
        49           Ga  tau(  49) = (  0.7333334  0.2666666  0.1663874  )
        50           Ga  tau(  50) = (  0.7333334  0.2666666  0.4997208  )
        51           Ga  tau(  51) = (  0.7333334  0.2666666  0.8330541  )
        52           Ga  tau(  52) = (  0.7333334  0.4666666  0.1663874  )
        53           Ga  tau(  53) = (  0.7333334  0.4666666  0.4997208  )
        54           Ga  tau(  54) = (  0.7333334  0.4666666  0.8330541  )
        55           Ga  tau(  55) = (  0.7333334  0.6666666  0.1663874  )
        56           Ga  tau(  56) = (  0.7333334  0.6666666  0.4997208  )
        57           Ga  tau(  57) = (  0.7333334  0.6666666  0.8330541  )
        58           Ga  tau(  58) = (  0.7333334  0.8666666  0.1663874  )
        59           Ga  tau(  59) = (  0.7333334  0.8666666  0.4997208  )
        60           Ga  tau(  60) = (  0.7333334  0.8666666  0.8330541  )
        61           Ga  tau(  61) = (  0.9333334  0.0666666  0.1663874  )
        62           Ga  tau(  62) = (  0.9333334  0.0666666  0.4997208  )
        63           Ga  tau(  63) = (  0.9333334  0.0666666  0.8330541  )
        64           Ga  tau(  64) = (  0.9333334  0.2666666  0.1663874  )
        65           Ga  tau(  65) = (  0.9333334  0.2666666  0.4997208  )
        66           Ga  tau(  66) = (  0.9333334  0.2666666  0.8330541  )
        67           Ga  tau(  67) = (  0.9333334  0.4666666  0.1663874  )
        68           Ga  tau(  68) = (  0.9333334  0.4666666  0.4997208  )
        69           Ga  tau(  69) = (  0.9333334  0.4666666  0.8330541  )
        70           Ga  tau(  70) = (  0.9333334  0.6666666  0.1663874  )
        71           Ga  tau(  71) = (  0.9333334  0.6666666  0.4997208  )
        72           Ga  tau(  72) = (  0.9333334  0.6666666  0.8330541  )
        73           Ga  tau(  73) = (  0.9333334  0.8666666  0.1663874  )
        74           Ga  tau(  74) = (  0.9333334  0.8666666  0.4997208  )
        75           Ga  tau(  75) = (  0.9333334  0.8666666  0.8330541  )
        76           Ga  tau(  76) = (  0.0666666  0.1333334  0.3330541  )
        77           Ga  tau(  77) = (  0.0666666  0.1333334  0.6663874  )
        78           Ga  tau(  78) = (  0.0666666  0.1333334  0.9997208  )
        79           Ga  tau(  79) = (  0.0666666  0.3333334  0.3330541  )
        80           Ga  tau(  80) = (  0.0666666  0.3333334  0.6663874  )
        81           Ga  tau(  81) = (  0.0666666  0.3333334  0.9997208  )
        82           Ga  tau(  82) = (  0.0666666  0.5333334  0.3330541  )
        83           Ga  tau(  83) = (  0.0666666  0.5333334  0.6663874  )
        84           Ga  tau(  84) = (  0.0666666  0.5333334  0.9997208  )
        85           Ga  tau(  85) = (  0.0666666  0.7333334  0.3330541  )
        86           Ga  tau(  86) = (  0.0666666  0.7333334  0.6663874  )
        87           Ga  tau(  87) = (  0.0666666  0.7333334  0.9997208  )
        88           Ga  tau(  88) = (  0.0666666  0.9333334  0.3330541  )
        89           Ga  tau(  89) = (  0.0666666  0.9333334  0.6663874  )
        90           Ga  tau(  90) = (  0.0666666  0.9333334  0.9997208  )
        91           Ga  tau(  91) = (  0.2666666  0.1333334  0.3330541  )
        92           Ga  tau(  92) = (  0.2666666  0.1333334  0.6663874  )
        93           Ga  tau(  93) = (  0.2666666  0.1333334  0.9997208  )
        94           Ga  tau(  94) = (  0.2666666  0.3333334  0.3330541  )
        95           Ga  tau(  95) = (  0.2666666  0.3333334  0.6663874  )
        96           Ga  tau(  96) = (  0.2666666  0.3333334  0.9997208  )
        97           Ga  tau(  97) = (  0.2666666  0.5333334  0.3330541  )
        98           Ga  tau(  98) = (  0.2666666  0.5333334  0.6663874  )
        99           Ga  tau(  99) = (  0.2666666  0.5333334  0.9997208  )
       100           Ga  tau( 100) = (  0.2666666  0.7333334  0.3330541  )
       101           Ga  tau( 101) = (  0.2666666  0.7333334  0.6663874  )
       102           Ga  tau( 102) = (  0.2666666  0.7333334  0.9997208  )
       103           Ga  tau( 103) = (  0.2666666  0.9333334  0.3330541  )
       104           Ga  tau( 104) = (  0.2666666  0.9333334  0.6663874  )
       105           Ga  tau( 105) = (  0.2666666  0.9333334  0.9997208  )
       106           Ga  tau( 106) = (  0.4666666  0.1333334  0.3330541  )
       107           Ga  tau( 107) = (  0.4666666  0.1333334  0.6663874  )
       108           Ga  tau( 108) = (  0.4666666  0.1333334  0.9997208  )
       109           Ga  tau( 109) = (  0.4666666  0.3333334  0.3330541  )
       110           Ga  tau( 110) = (  0.4666666  0.3333334  0.6663874  )
       111           Ga  tau( 111) = (  0.4666666  0.3333334  0.9997208  )
       112           Ga  tau( 112) = (  0.4666666  0.5333334  0.3330541  )
       113           Ga  tau( 113) = (  0.4666666  0.5333334  0.6663874  )
       114           Ga  tau( 114) = (  0.4666666  0.5333334  0.9997208  )
       115           Ga  tau( 115) = (  0.4666666  0.7333334  0.3330541  )
       116           Ga  tau( 116) = (  0.4666666  0.7333334  0.6663874  )
       117           Ga  tau( 117) = (  0.4666666  0.7333334  0.9997208  )
       118           Ga  tau( 118) = (  0.4666666  0.9333334  0.3330541  )
       119           Ga  tau( 119) = (  0.4666666  0.9333334  0.6663874  )
       120           Ga  tau( 120) = (  0.4666666  0.9333334  0.9997208  )
       121           Ga  tau( 121) = (  0.6666666  0.1333334  0.3330541  )
       122           Ga  tau( 122) = (  0.6666666  0.1333334  0.6663874  )
       123           Ga  tau( 123) = (  0.6666666  0.1333334  0.9997208  )
       124           Ga  tau( 124) = (  0.6666666  0.3333334  0.3330541  )
       125           Ga  tau( 125) = (  0.6666666  0.3333334  0.6663874  )
       126           Ga  tau( 126) = (  0.6666666  0.3333334  0.9997208  )
       127           Ga  tau( 127) = (  0.6666666  0.5333334  0.3330541  )
       128           Ga  tau( 128) = (  0.6666666  0.5333334  0.6663874  )
       129           Ga  tau( 129) = (  0.6666666  0.5333334  0.9997208  )
       130           Ga  tau( 130) = (  0.6666666  0.7333334  0.3330541  )
       131           Ga  tau( 131) = (  0.6666666  0.7333334  0.6663874  )
       132           Ga  tau( 132) = (  0.6666666  0.7333334  0.9997208  )
       133           Ga  tau( 133) = (  0.6666666  0.9333334  0.3330541  )
       134           Ga  tau( 134) = (  0.6666666  0.9333334  0.6663874  )
       135           Ga  tau( 135) = (  0.6666666  0.9333334  0.9997208  )
       136           Ga  tau( 136) = (  0.8666666  0.1333334  0.3330541  )
       137           Ga  tau( 137) = (  0.8666666  0.1333334  0.6663874  )
       138           Ga  tau( 138) = (  0.8666666  0.1333334  0.9997208  )
       139           Ga  tau( 139) = (  0.8666666  0.3333334  0.3330541  )
       140           Ga  tau( 140) = (  0.8666666  0.3333334  0.6663874  )
       141           Ga  tau( 141) = (  0.8666666  0.3333334  0.9997208  )
       142           Ga  tau( 142) = (  0.8666666  0.5333334  0.3330541  )
       143           Ga  tau( 143) = (  0.8666666  0.5333334  0.6663874  )
       144           Ga  tau( 144) = (  0.8666666  0.5333334  0.9997208  )
       145           Ga  tau( 145) = (  0.8666666  0.7333334  0.3330541  )
       146           Ga  tau( 146) = (  0.8666666  0.7333334  0.6663874  )
       147           Ga  tau( 147) = (  0.8666666  0.7333334  0.9997208  )
       148           Ga  tau( 148) = (  0.8666666  0.9333334  0.3330541  )
       149           Ga  tau( 149) = (  0.8666666  0.9333334  0.6663874  )
       150           Ga  tau( 150) = (  0.8666666  0.9333334  0.9997208  )
       151           N   tau( 151) = (  0.1333334  0.0666666  0.6252792  )
       152           N   tau( 152) = (  0.1333334  0.0666666  0.9586126  )
       153           N   tau( 153) = (  0.1333334  0.2666666  0.2919459  )
       154           N   tau( 154) = (  0.1333334  0.2666666  0.6252792  )
       155           N   tau( 155) = (  0.1333334  0.2666666  0.9586126  )
       156           N   tau( 156) = (  0.1333334  0.4666666  0.2919459  )
       157           N   tau( 157) = (  0.1333334  0.4666666  0.6252792  )
       158           N   tau( 158) = (  0.1333334  0.4666666  0.9586126  )
       159           N   tau( 159) = (  0.1333334  0.6666666  0.2919459  )
       160           N   tau( 160) = (  0.1333334  0.6666666  0.6252792  )
       161           N   tau( 161) = (  0.1333334  0.6666666  0.9586126  )
       162           N   tau( 162) = (  0.1333334  0.8666666  0.2919459  )
       163           N   tau( 163) = (  0.1333334  0.8666666  0.6252792  )
       164           N   tau( 164) = (  0.1333334  0.8666666  0.9586126  )
       165           N   tau( 165) = (  0.3333334  0.0666666  0.2919459  )
       166           N   tau( 166) = (  0.3333334  0.0666666  0.6252792  )
       167           N   tau( 167) = (  0.3333334  0.0666666  0.9586126  )
       168           N   tau( 168) = (  0.3333334  0.2666666  0.2919459  )
       169           N   tau( 169) = (  0.3333334  0.2666666  0.6252792  )
       170           N   tau( 170) = (  0.3333334  0.2666666  0.9586126  )
       171           N   tau( 171) = (  0.3333334  0.4666666  0.2919459  )
       172           N   tau( 172) = (  0.3333334  0.4666666  0.6252792  )
       173           N   tau( 173) = (  0.3333334  0.4666666  0.9586126  )
       174           N   tau( 174) = (  0.3333334  0.6666666  0.2919459  )
       175           N   tau( 175) = (  0.3333334  0.6666666  0.6252792  )
       176           N   tau( 176) = (  0.3333334  0.6666666  0.9586126  )
       177           N   tau( 177) = (  0.3333334  0.8666666  0.2919459  )
       178           N   tau( 178) = (  0.3333334  0.8666666  0.6252792  )
       179           N   tau( 179) = (  0.3333334  0.8666666  0.9586126  )
       180           N   tau( 180) = (  0.5333334  0.0666666  0.2919459  )
       181           N   tau( 181) = (  0.5333334  0.0666666  0.6252792  )
       182           N   tau( 182) = (  0.5333334  0.0666666  0.9586126  )
       183           N   tau( 183) = (  0.5333334  0.2666666  0.2919459  )
       184           N   tau( 184) = (  0.5333334  0.2666666  0.6252792  )
       185           N   tau( 185) = (  0.5333334  0.2666666  0.9586126  )
       186           N   tau( 186) = (  0.5333334  0.4666666  0.2919459  )
       187           N   tau( 187) = (  0.5333334  0.4666666  0.6252792  )
       188           N   tau( 188) = (  0.5333334  0.4666666  0.9586126  )
       189           N   tau( 189) = (  0.5333334  0.6666666  0.2919459  )
       190           N   tau( 190) = (  0.5333334  0.6666666  0.6252792  )
       191           N   tau( 191) = (  0.5333334  0.6666666  0.9586126  )
       192           N   tau( 192) = (  0.5333334  0.8666666  0.2919459  )
       193           N   tau( 193) = (  0.5333334  0.8666666  0.6252792  )
       194           N   tau( 194) = (  0.5333334  0.8666666  0.9586126  )
       195           N   tau( 195) = (  0.7333334  0.0666666  0.2919459  )
       196           N   tau( 196) = (  0.7333334  0.0666666  0.6252792  )
       197           N   tau( 197) = (  0.7333334  0.0666666  0.9586126  )
       198           N   tau( 198) = (  0.7333334  0.2666666  0.2919459  )
       199           N   tau( 199) = (  0.7333334  0.2666666  0.6252792  )
       200           N   tau( 200) = (  0.7333334  0.2666666  0.9586126  )
       201           N   tau( 201) = (  0.7333334  0.4666666  0.2919459  )
       202           N   tau( 202) = (  0.7333334  0.4666666  0.6252792  )
       203           N   tau( 203) = (  0.7333334  0.4666666  0.9586126  )
       204           N   tau( 204) = (  0.7333334  0.6666666  0.2919459  )
       205           N   tau( 205) = (  0.7333334  0.6666666  0.6252792  )
       206           N   tau( 206) = (  0.7333334  0.6666666  0.9586126  )
       207           N   tau( 207) = (  0.7333334  0.8666666  0.2919459  )
       208           N   tau( 208) = (  0.7333334  0.8666666  0.6252792  )
       209           N   tau( 209) = (  0.7333334  0.8666666  0.9586126  )
       210           N   tau( 210) = (  0.9333334  0.0666666  0.2919459  )
       211           N   tau( 211) = (  0.9333334  0.0666666  0.6252792  )
       212           N   tau( 212) = (  0.9333334  0.0666666  0.9586126  )
       213           N   tau( 213) = (  0.9333334  0.2666666  0.2919459  )
       214           N   tau( 214) = (  0.9333334  0.2666666  0.6252792  )
       215           N   tau( 215) = (  0.9333334  0.2666666  0.9586126  )
       216           N   tau( 216) = (  0.9333334  0.4666666  0.2919459  )
       217           N   tau( 217) = (  0.9333334  0.4666666  0.6252792  )
       218           N   tau( 218) = (  0.9333334  0.4666666  0.9586126  )
       219           N   tau( 219) = (  0.9333334  0.6666666  0.2919459  )
       220           N   tau( 220) = (  0.9333334  0.6666666  0.6252792  )
       221           N   tau( 221) = (  0.9333334  0.6666666  0.9586126  )
       222           N   tau( 222) = (  0.9333334  0.8666666  0.2919459  )
       223           N   tau( 223) = (  0.9333334  0.8666666  0.6252792  )
       224           N   tau( 224) = (  0.9333334  0.8666666  0.9586126  )
       225           N   tau( 225) = (  0.0666666  0.1333334  0.1252792  )
       226           N   tau( 226) = (  0.0666666  0.1333334  0.4586126  )
       227           N   tau( 227) = (  0.0666666  0.1333334  0.7919459  )
       228           N   tau( 228) = (  0.0666666  0.3333334  0.1252792  )
       229           N   tau( 229) = (  0.0666666  0.3333334  0.4586126  )
       230           N   tau( 230) = (  0.0666666  0.3333334  0.7919459  )
       231           N   tau( 231) = (  0.0666666  0.5333334  0.1252792  )
       232           N   tau( 232) = (  0.0666666  0.5333334  0.4586126  )
       233           N   tau( 233) = (  0.0666666  0.5333334  0.7919459  )
       234           N   tau( 234) = (  0.0666666  0.7333334  0.1252792  )
       235           N   tau( 235) = (  0.0666666  0.7333334  0.4586126  )
       236           N   tau( 236) = (  0.0666666  0.7333334  0.7919459  )
       237           N   tau( 237) = (  0.0666666  0.9333334  0.1252792  )
       238           N   tau( 238) = (  0.0666666  0.9333334  0.4586126  )
       239           N   tau( 239) = (  0.0666666  0.9333334  0.7919459  )
       240           N   tau( 240) = (  0.2666666  0.1333334  0.1252792  )
       241           N   tau( 241) = (  0.2666666  0.1333334  0.4586126  )
       242           N   tau( 242) = (  0.2666666  0.1333334  0.7919459  )
       243           N   tau( 243) = (  0.2666666  0.3333334  0.1252792  )
       244           N   tau( 244) = (  0.2666666  0.3333334  0.4586126  )
       245           N   tau( 245) = (  0.2666666  0.3333334  0.7919459  )
       246           N   tau( 246) = (  0.2666666  0.5333334  0.1252792  )
       247           N   tau( 247) = (  0.2666666  0.5333334  0.4586126  )
       248           N   tau( 248) = (  0.2666666  0.5333334  0.7919459  )
       249           N   tau( 249) = (  0.2666666  0.7333334  0.1252792  )
       250           N   tau( 250) = (  0.2666666  0.7333334  0.4586126  )
       251           N   tau( 251) = (  0.2666666  0.7333334  0.7919459  )
       252           N   tau( 252) = (  0.2666666  0.9333334  0.1252792  )
       253           N   tau( 253) = (  0.2666666  0.9333334  0.4586126  )
       254           N   tau( 254) = (  0.2666666  0.9333334  0.7919459  )
       255           N   tau( 255) = (  0.4666666  0.1333334  0.1252792  )
       256           N   tau( 256) = (  0.4666666  0.1333334  0.4586126  )
       257           N   tau( 257) = (  0.4666666  0.1333334  0.7919459  )
       258           N   tau( 258) = (  0.4666666  0.3333334  0.1252792  )
       259           N   tau( 259) = (  0.4666666  0.3333334  0.4586126  )
       260           N   tau( 260) = (  0.4666666  0.3333334  0.7919459  )
       261           N   tau( 261) = (  0.4666666  0.5333334  0.1252792  )
       262           N   tau( 262) = (  0.4666666  0.5333334  0.4586126  )
       263           N   tau( 263) = (  0.4666666  0.5333334  0.7919459  )
       264           N   tau( 264) = (  0.4666666  0.7333334  0.1252792  )
       265           N   tau( 265) = (  0.4666666  0.7333334  0.4586126  )
       266           N   tau( 266) = (  0.4666666  0.7333334  0.7919459  )
       267           N   tau( 267) = (  0.4666666  0.9333334  0.1252792  )
       268           N   tau( 268) = (  0.4666666  0.9333334  0.4586126  )
       269           N   tau( 269) = (  0.4666666  0.9333334  0.7919459  )
       270           N   tau( 270) = (  0.6666666  0.1333334  0.1252792  )
       271           N   tau( 271) = (  0.6666666  0.1333334  0.4586126  )
       272           N   tau( 272) = (  0.6666666  0.1333334  0.7919459  )
       273           N   tau( 273) = (  0.6666666  0.3333334  0.1252792  )
       274           N   tau( 274) = (  0.6666666  0.3333334  0.4586126  )
       275           N   tau( 275) = (  0.6666666  0.3333334  0.7919459  )
       276           N   tau( 276) = (  0.6666666  0.5333334  0.1252792  )
       277           N   tau( 277) = (  0.6666666  0.5333334  0.4586126  )
       278           N   tau( 278) = (  0.6666666  0.5333334  0.7919459  )
       279           N   tau( 279) = (  0.6666666  0.7333334  0.1252792  )
       280           N   tau( 280) = (  0.6666666  0.7333334  0.4586126  )
       281           N   tau( 281) = (  0.6666666  0.7333334  0.7919459  )
       282           N   tau( 282) = (  0.6666666  0.9333334  0.1252792  )
       283           N   tau( 283) = (  0.6666666  0.9333334  0.4586126  )
       284           N   tau( 284) = (  0.6666666  0.9333334  0.7919459  )
       285           N   tau( 285) = (  0.8666666  0.1333334  0.1252792  )
       286           N   tau( 286) = (  0.8666666  0.1333334  0.4586126  )
       287           N   tau( 287) = (  0.8666666  0.1333334  0.7919459  )
       288           N   tau( 288) = (  0.8666666  0.3333334  0.1252792  )
       289           N   tau( 289) = (  0.8666666  0.3333334  0.4586126  )
       290           N   tau( 290) = (  0.8666666  0.3333334  0.7919459  )
       291           N   tau( 291) = (  0.8666666  0.5333334  0.1252792  )
       292           N   tau( 292) = (  0.8666666  0.5333334  0.4586126  )
       293           N   tau( 293) = (  0.8666666  0.5333334  0.7919459  )
       294           N   tau( 294) = (  0.8666666  0.7333334  0.1252792  )
       295           N   tau( 295) = (  0.8666666  0.7333334  0.4586126  )
       296           N   tau( 296) = (  0.8666666  0.7333334  0.7919459  )
       297           N   tau( 297) = (  0.8666666  0.9333334  0.1252792  )
       298           N   tau( 298) = (  0.8666666  0.9333334  0.4586126  )
       299           N   tau( 299) = (  0.8666666  0.9333334  0.7919459  )

     number of k points=     6  Gaussian smearing, width (Ry)=  0.0100
                       cart. coord. in units 2pi/alat
        k(    1) = (   0.0000000   0.0000000   0.0000000), wk =   0.2500000
        k(    2) = (   0.0000000   0.0000000  -0.5112854), wk =   0.2500000
        k(    3) = (   0.0000000  -0.5773503   0.0000000), wk =   0.5000000
        k(    4) = (   0.0000000  -0.5773503  -0.5112854), wk =   0.5000000
        k(    5) = (  -0.5000000  -0.2886751   0.0000000), wk =   0.2500000
        k(    6) = (  -0.5000000  -0.2886751  -0.5112854), wk =   0.2500000

                       cryst. coord.
        k(    1) = (   0.0000000   0.0000000   0.0000000), wk =   0.2500000
        k(    2) = (   0.0000000   0.0000000  -0.5000000), wk =   0.2500000
        k(    3) = (   0.0000000  -0.5000000   0.0000000), wk =   0.5000000
        k(    4) = (   0.0000000  -0.5000000  -0.5000000), wk =   0.5000000
        k(    5) = (  -0.5000000  -0.0000000   0.0000000), wk =   0.2500000
        k(    6) = (  -0.5000000  -0.0000000  -0.5000000), wk =   0.2500000

     Dense  grid:  2698283 G-vectors     FFT dimensions: ( 192, 192, 180)

     Smooth grid:  1930731 G-vectors     FFT dimensions: ( 180, 180, 160)

     Dynamical RAM for                 wfc:      93.13 MB

     Dynamical RAM for     wfc (w. buffer):     372.54 MB

     Dynamical RAM for           str. fact:       1.29 MB

     Dynamical RAM for           local pot:       0.00 MB

     Dynamical RAM for          nlocal pot:     223.89 MB

     Dynamical RAM for                qrad:       3.00 MB

     Dynamical RAM for          rho,v,vnew:       4.46 MB

     Dynamical RAM for               rhoin:       1.49 MB

     Dynamical RAM for            rho*nmix:      10.29 MB

     Dynamical RAM for           G-vectors:       2.64 MB

     Dynamical RAM for          h,s,v(r/c):    1919.80 MB

     Dynamical RAM for          <psi|beta>:      96.15 MB

     Dynamical RAM for                 psi:     372.54 MB

     Dynamical RAM for                hpsi:     372.54 MB

     Dynamical RAM for                spsi:     372.54 MB

     Dynamical RAM for      wfcinit/wfcrot:     246.27 MB

     Dynamical RAM for           addusdens:     108.40 MB

     Dynamical RAM for          addusforce:     204.85 MB

     Dynamical RAM for         addusstress:      64.82 MB

     Estimated static dynamical RAM per process >     615.45 MB

     Estimated max dynamical RAM per process >       3.67 GB

     Estimated total dynamical RAM >     469.27 GB

     Atomic positions and unit cell read from directory:
     ./GaN.save/
     Atomic positions from file used, from input discarded
 

     Check: negative core charge=   -0.000003

     The initial density is read from file :
     ./GaN.save/charge-density



     %%%%%%%%%%%%%%%%%%%%%%%%%%%%%%%%%%%%%%%%%%%%%%%%%%%%%%%%%%%%%%%%%%%%%%%%
     %                                                                      %
     % You are using vdW-DF, which was implemented by the Thonhauser group. %
     % Please cite the following two papers that made this development      %
     % possible and the two reviews that describe the various versions:     %
     %                                                                      %
     %   T. Thonhauser et al., PRL 115, 136402 (2015).                      %
     %   T. Thonhauser et al., PRB 76, 125112 (2007).                       %
     %   K. Berland et al., Rep. Prog. Phys. 78, 066501 (2015).             %
     %   D.C. Langreth et al., J. Phys.: Condens. Matter 21, 084203 (2009). %
     %                                                                      %
     % If you are calculating stress with vdW-DF, please also cite:         %
     %                                                                      %
     %   R. Sabatini et al., J. Phys.: Condens. Matter 24, 424209 (2012).   %
     %                                                                      %
     %%%%%%%%%%%%%%%%%%%%%%%%%%%%%%%%%%%%%%%%%%%%%%%%%%%%%%%%%%%%%%%%%%%%%%%%

     %%%%%%%%%%%%%%%%%%%%%%%%%%%%%%%%%%%%%%%%%%%%%%%%%%%%%%%%%%%%%%%%%%%%%%%%
     %                                                                      %
     %  vdW-DF NEWS:                                                        %
     %                                                                      %
     %  * vdW-DF3 is now available. DOI: 10.1021/acs.jctc.0c00471           %
     %    use with input_dft = 'vdW-DF3-opt1' or 'vdW-DF3-opt2'             %
     %                                                                      %
     %  * Unscreened and range-separated vdW-DF hybrid functionals          %
     %    DOI: 10.1063/1.4986522 and 10.1088/1361-648X/ac2ad2               %
     %    use with input_dft = 'vdW-DF-cx0' (etc) and 'vdW-DF-ahcx'         %
     %                                                                      %
     %%%%%%%%%%%%%%%%%%%%%%%%%%%%%%%%%%%%%%%%%%%%%%%%%%%%%%%%%%%%%%%%%%%%%%%%


     Carrying out vdW-DF run using the following parameters:
     Nqs    =  20  Npoints =  1024  r_max =  100.000
     q_mesh =  0.00001000  0.04494208  0.09755937  0.15916263
               0.23128650  0.31572767  0.41458969  0.53033537
               0.66584808  0.82450364  1.01025438  1.22772762
               1.48234092  1.78043706  2.12944203  2.53805004
               3.01644009  3.57652955  4.23227104  5.00000000


     -----------------------------------------------
     Non-local corr. energy    =      81.65552865 Ry
     -----------------------------------------------

     Cannot read wfcs: file not found
     Starting wfcs are 1946 randomized atomic wfcs
     Checking if some PAW data can be deallocated... 
       PAW data deallocated on   74 nodes for type:  1
       PAW data deallocated on   53 nodes for type:  2

     total cpu time spent up to now is      173.5 secs

     Self-consistent Calculation

     iteration #  1     ecut=    70.00 Ry     beta= 0.70
     Davidson diagonalization with overlap

---- Real-time Memory Report at c_bands before calling an iterative solver
          1315 MiB given to the printing process from OS
             0 MiB allocation reported by mallinfo(arena+hblkhd)
       1622501 MiB available memory on the node where the printing process lives
------------------
     c_bands:  1 eigenvalues not converged
     ethr =  1.00E-05,  avg # of iterations = 31.7


     -----------------------------------------------
     Non-local corr. energy    =      81.63689406 Ry
     -----------------------------------------------


     total cpu time spent up to now is     6090.4 secs

     total energy              =  -46812.45617646 Ry
     estimated scf accuracy    <       0.50375399 Ry

     iteration #  2     ecut=    70.00 Ry     beta= 0.70
     Davidson diagonalization with overlap

---- Real-time Memory Report at c_bands before calling an iterative solver
          3680 MiB given to the printing process from OS
             0 MiB allocation reported by mallinfo(arena+hblkhd)
       1626042 MiB available memory on the node where the printing process lives
------------------
     ethr =  1.87E-05,  avg # of iterations = 12.0


     -----------------------------------------------
     Non-local corr. energy    =      81.63721852 Ry
     -----------------------------------------------


     total cpu time spent up to now is     9450.0 secs

     total energy              =  -46812.02349660 Ry
     estimated scf accuracy    <       6.02195145 Ry

     iteration #  3     ecut=    70.00 Ry     beta= 0.70
     Davidson diagonalization with overlap

---- Real-time Memory Report at c_bands before calling an iterative solver
          3680 MiB given to the printing process from OS
             0 MiB allocation reported by mallinfo(arena+hblkhd)
       1604681 MiB available memory on the node where the printing process lives
------------------
     ethr =  1.87E-05,  avg # of iterations = 10.3


     -----------------------------------------------
     Non-local corr. energy    =      81.64446259 Ry
     -----------------------------------------------


     total cpu time spent up to now is    12465.0 secs

     total energy              =  -46812.73921193 Ry
     estimated scf accuracy    <       0.08961634 Ry

     iteration #  4     ecut=    70.00 Ry     beta= 0.70
     Davidson diagonalization with overlap

---- Real-time Memory Report at c_bands before calling an iterative solver
          3680 MiB given to the printing process from OS
             0 MiB allocation reported by mallinfo(arena+hblkhd)
       1603872 MiB available memory on the node where the printing process lives
------------------
     ethr =  3.32E-06,  avg # of iterations = 14.2


     -----------------------------------------------
     Non-local corr. energy    =      81.64775968 Ry
     -----------------------------------------------


     total cpu time spent up to now is    15926.5 secs

     total energy              =  -46812.75422541 Ry
     estimated scf accuracy    <       0.06858614 Ry

     iteration #  5     ecut=    70.00 Ry     beta= 0.70
     Davidson diagonalization with overlap

---- Real-time Memory Report at c_bands before calling an iterative solver
          3680 MiB given to the printing process from OS
             0 MiB allocation reported by mallinfo(arena+hblkhd)
       1603868 MiB available memory on the node where the printing process lives
------------------
     ethr =  2.54E-06,  avg # of iterations = 15.7


     -----------------------------------------------
     Non-local corr. energy    =      81.64937312 Ry
     -----------------------------------------------


     total cpu time spent up to now is    19034.1 secs

     total energy              =  -46812.76446554 Ry
     estimated scf accuracy    <       0.01435995 Ry

     iteration #  6     ecut=    70.00 Ry     beta= 0.70
     Davidson diagonalization with overlap

---- Real-time Memory Report at c_bands before calling an iterative solver
          3680 MiB given to the printing process from OS
             0 MiB allocation reported by mallinfo(arena+hblkhd)
       1603109 MiB available memory on the node where the printing process lives
------------------
     ethr =  5.32E-07,  avg # of iterations = 18.2


     -----------------------------------------------
     Non-local corr. energy    =      81.65222727 Ry
     -----------------------------------------------


     total cpu time spent up to now is    22691.6 secs

     total energy              =  -46812.76649996 Ry
     estimated scf accuracy    <       0.00402786 Ry

     iteration #  7     ecut=    70.00 Ry     beta= 0.70
     Davidson diagonalization with overlap

---- Real-time Memory Report at c_bands before calling an iterative solver
          3680 MiB given to the printing process from OS
             0 MiB allocation reported by mallinfo(arena+hblkhd)
       1603092 MiB available memory on the node where the printing process lives
------------------
     c_bands:  1 eigenvalues not converged
     ethr =  1.49E-07,  avg # of iterations = 17.3


     -----------------------------------------------
     Non-local corr. energy    =      81.65484694 Ry
     -----------------------------------------------


     total cpu time spent up to now is    26276.7 secs

     total energy              =  -46812.76666732 Ry
     estimated scf accuracy    <       0.00278671 Ry

     iteration #  8     ecut=    70.00 Ry     beta= 0.70
     Davidson diagonalization with overlap

---- Real-time Memory Report at c_bands before calling an iterative solver
          3680 MiB given to the printing process from OS
             0 MiB allocation reported by mallinfo(arena+hblkhd)
       1602856 MiB available memory on the node where the printing process lives
------------------
     ethr =  1.03E-07,  avg # of iterations = 17.3


     -----------------------------------------------
     Non-local corr. energy    =      81.65564221 Ry
     -----------------------------------------------


     total cpu time spent up to now is    29848.2 secs

     total energy              =  -46812.76697029 Ry
     estimated scf accuracy    <       0.00068079 Ry

     iteration #  9     ecut=    70.00 Ry     beta= 0.70
     Davidson diagonalization with overlap

---- Real-time Memory Report at c_bands before calling an iterative solver
          3680 MiB given to the printing process from OS
             0 MiB allocation reported by mallinfo(arena+hblkhd)
       1602472 MiB available memory on the node where the printing process lives
------------------
     ethr =  2.52E-08,  avg # of iterations = 17.3


     -----------------------------------------------
     Non-local corr. energy    =      81.65581649 Ry
     -----------------------------------------------


     total cpu time spent up to now is    33900.8 secs

     total energy              =  -46812.76705349 Ry
     estimated scf accuracy    <       0.00033678 Ry

     iteration # 10     ecut=    70.00 Ry     beta= 0.70
     Davidson diagonalization with overlap

---- Real-time Memory Report at c_bands before calling an iterative solver
          3680 MiB given to the printing process from OS
             0 MiB allocation reported by mallinfo(arena+hblkhd)
       1602462 MiB available memory on the node where the printing process lives
------------------
     c_bands:  1 eigenvalues not converged
     ethr =  1.25E-08,  avg # of iterations = 17.8


     -----------------------------------------------
     Non-local corr. energy    =      81.65599305 Ry
     -----------------------------------------------


     total cpu time spent up to now is    37676.9 secs

     total energy              =  -46812.76711002 Ry
     estimated scf accuracy    <       0.00001195 Ry

     iteration # 11     ecut=    70.00 Ry     beta= 0.70
     Davidson diagonalization with overlap

---- Real-time Memory Report at c_bands before calling an iterative solver
          3680 MiB given to the printing process from OS
             0 MiB allocation reported by mallinfo(arena+hblkhd)
       1602194 MiB available memory on the node where the printing process lives
------------------
     ethr =  4.43E-10,  avg # of iterations = 30.0


     -----------------------------------------------
     Non-local corr. energy    =      81.65596120 Ry
     -----------------------------------------------


     total cpu time spent up to now is    41757.9 secs

     total energy              =  -46812.76711810 Ry
     estimated scf accuracy    <       0.00000515 Ry

     iteration # 12     ecut=    70.00 Ry     beta= 0.70
     Davidson diagonalization with overlap

---- Real-time Memory Report at c_bands before calling an iterative solver
          3680 MiB given to the printing process from OS
             0 MiB allocation reported by mallinfo(arena+hblkhd)
       1602193 MiB available memory on the node where the printing process lives
------------------
     ethr =  1.91E-10,  avg # of iterations = 15.7


     -----------------------------------------------
     Non-local corr. energy    =      81.65595175 Ry
     -----------------------------------------------


     total cpu time spent up to now is    44895.3 secs

     total energy              =  -46812.76711894 Ry
     estimated scf accuracy    <       0.00000036 Ry

     iteration # 13     ecut=    70.00 Ry     beta= 0.70
     Davidson diagonalization with overlap

---- Real-time Memory Report at c_bands before calling an iterative solver
          3680 MiB given to the printing process from OS
             0 MiB allocation reported by mallinfo(arena+hblkhd)
       1602181 MiB available memory on the node where the printing process lives
------------------
     c_bands:  1 eigenvalues not converged
     ethr =  1.33E-11,  avg # of iterations = 17.0


     -----------------------------------------------
     Non-local corr. energy    =      81.65596558 Ry
     -----------------------------------------------


     total cpu time spent up to now is    49436.2 secs

     total energy              =  -46812.76711900 Ry
     estimated scf accuracy    <       0.00000028 Ry

     iteration # 14     ecut=    70.00 Ry     beta= 0.70
     Davidson diagonalization with overlap

---- Real-time Memory Report at c_bands before calling an iterative solver
          3680 MiB given to the printing process from OS
             0 MiB allocation reported by mallinfo(arena+hblkhd)
       1602174 MiB available memory on the node where the printing process lives
------------------
     c_bands:  1 eigenvalues not converged
     ethr =  1.05E-11,  avg # of iterations = 17.5


     -----------------------------------------------
     Non-local corr. energy    =      81.65597025 Ry
     -----------------------------------------------


     total cpu time spent up to now is    53092.6 secs

     total energy              =  -46812.76711904 Ry
     estimated scf accuracy    <       0.00000013 Ry

     iteration # 15     ecut=    70.00 Ry     beta= 0.70
     Davidson diagonalization with overlap

---- Real-time Memory Report at c_bands before calling an iterative solver
          3680 MiB given to the printing process from OS
             0 MiB allocation reported by mallinfo(arena+hblkhd)
       1602156 MiB available memory on the node where the printing process lives
------------------
     c_bands:  1 eigenvalues not converged
     ethr =  4.93E-12,  avg # of iterations = 17.7


     -----------------------------------------------
     Non-local corr. energy    =      81.65598332 Ry
     -----------------------------------------------


     total cpu time spent up to now is    56172.0 secs

     End of self-consistent calculation

          k = 0.0000 0.0000 0.0000 (241213 PWs)   bands (ev):

    -6.8635  -6.6604  -6.6557  -6.6315  -6.6313  -6.6308  -6.6303  -6.6302
    -6.6182  -6.4976  -6.4972  -6.4970  -6.4963  -6.4960  -6.4955  -6.4954
    -6.4952  -6.4948  -6.4942  -6.4941  -6.4819  -6.4376  -6.4348  -6.4344
    -6.4340  -6.4322  -6.4313  -6.4311  -6.4280  -6.4187  -6.4182  -6.4171
    -6.4161  -6.4155  -6.4146  -6.4033  -6.3796  -6.3793  -6.3788  -6.3775
    -6.3767  -6.3761  -6.3751  -6.3748  -6.3745  -6.3739  -6.3737  -6.3730
    -6.3723  -6.3719  -6.3714  -6.3711  -6.3709  -6.3707  -6.3704  -6.3704
    -6.3703  -6.3699  -6.3695  -6.3690  -6.3689  -6.3686  -6.3681  -6.3680
    -6.3678  -6.3666  -6.3663  -6.3660  -6.3657  -6.3654  -6.3653  -6.3649
    -6.3648  -6.3645  -6.3640  -6.3640  -6.3636  -6.3635  -6.3632  -6.3630
    -6.3629  -6.3626  -6.3623  -6.3524  -6.3470  -6.3462  -6.3446  -6.3421
    -6.3421  -6.3413  -6.3388  -6.3386  -6.3381  -6.3380  -6.3375  -6.3373
    -6.3372  -6.3365  -6.3363  -6.3347  -6.3347  -6.3342  -6.3338  -6.3335
    -6.3332  -6.3330  -6.3330  -6.3327  -6.3325  -6.3321  -6.3318  -6.3315
    -6.3313  -6.3305  -6.3303  -6.3302  -6.3299  -6.3296  -6.3294  -6.3290
    -6.3288  -6.3284  -6.3281  -6.3278  -6.3274  -6.3273  -6.3266  -6.3264
    -6.3261  -6.3261  -6.3260  -6.3254  -6.3253  -6.3252  -6.3247  -6.3245
    -6.3241  -6.3181  -6.3180  -6.3179  -6.3177  -6.3159  -6.3156  -6.3156
    -6.3155  -6.3151  -6.3143  -6.3140  -6.3139  -5.3532  -5.3217  -5.3216
    -5.3162  -5.3136  -5.3132  -5.2912  -5.2909  -5.2894  -5.2833  -5.2831
    -5.2754  -5.2753  -5.2676  -5.2676  -5.2668  -5.2667  -5.2665  -5.2632
    -5.2612  -5.2611  -5.2579  -5.2578  -5.2551  -5.2527  -5.2526  -5.2512
    -5.2512  -5.2498  -5.2489  -5.2488  -5.2468  -5.2468  -5.2468  -5.2456
    -5.2456  -5.2422  -5.2402  -5.2401  -5.2382  -5.2381  -5.2378  -5.2377
    -5.2369  -5.2361  -5.2358  -5.2357  -5.2357  -5.2352  -5.2352  -5.2352
    -5.2345  -5.2344  -5.2335  -5.2333  -5.2333  -5.2333  -5.2331  -5.2331
    -5.2321  -5.2321  -5.2318  -5.2317  -5.2305  -5.2305  -5.2290  -5.2289
    -5.2284  -5.2283  -5.2280  -5.2280  -5.2266  -5.2266  -5.2260  -5.2260
    -5.2247  -5.2232  -5.2232  -5.2232  -5.2217  -5.2217  -5.2201  -5.2188
    -5.2186  -5.2184  -5.2184  -5.2177  -5.2171  -5.2170  -5.2162  -5.2147
    -5.2146  -5.2129  -5.2129  -5.2128  -5.2119  -5.2119  -5.2111  -5.2105
    -5.2105  -5.2098  -5.2096  -5.2096  -5.2094  -5.2090  -5.2090  -5.2079
    -5.2079  -5.2076  -5.2071  -5.2067  -5.2067  -5.2059  -5.2059  -5.2056
    -5.2055  -5.2047  -5.2047  -5.2046  -5.2040  -5.2040  -5.2038  -5.2035
    -5.2033  -5.2033  -5.2031  -5.2030  -5.2027  -5.2024  -5.2024  -5.2016
    -5.2015  -5.2008  -5.2007  -5.1997  -5.1997  -5.1984  -5.1982  -5.1966
    -5.1966  -5.1960  -5.1956  -5.1956  -5.1954  -5.1954  -5.1937  -5.1928
    -5.1920  -5.1920  -5.1903  -5.1902  -5.1899  -5.1895  -5.1894  -5.1884
    -5.1884  -5.1883  -5.1877  -5.1877  -5.1867  -5.1866  -5.1866  -5.1857
    -5.1857  -5.1856  -5.1856  -5.1854  -5.1854  -5.1850  -5.1850  -5.1847
    -5.1846  -5.1844  -5.1844  -5.1842  -5.1840  -5.1838  -5.1837  -5.1835
    -5.1835  -5.1829  -5.1827  -5.1816  -5.1807  -5.1806  -5.1792  -5.1791
    -5.1787  -5.1786  -5.1772  -5.1772  -5.1766  -5.1766  -5.1761  -5.1757
    -5.1745  -5.1744  -5.1740  -5.1733  -5.1733  -5.1732  -5.1711  -5.1710
    -5.1704  -5.1704  -5.1684  -5.1677  -5.1677  -5.1669  -5.1669  -5.1661
    -5.1661  -5.1660  -5.1659  -5.1656  -5.1656  -5.1651  -5.1650  -5.1645
    -5.1645  -5.1643  -5.1643  -5.1643  -5.1642  -5.1641  -5.1640  -5.1635
    -5.1627  -5.1626  -5.1626  -5.1601  -5.1600  -5.1598  -5.1564  -5.1564
    -5.1541  -5.1540  -5.1522  -5.1491  -5.1490  -5.1474  -5.1471  -5.1471
    -5.1453  -5.1449  -5.1448  -5.1437  -5.1437  -5.1434  -5.1423  -5.1423
    -5.1421  -5.1403  -5.1389  -5.1389  -5.1376  -5.1365  -5.1365  -5.1356
    -5.1330  -5.1302  -5.1301  -5.1291  -5.1239  -5.1238  -5.1174  -5.1174
    -5.1152  -5.1151  -5.1144  -5.1141  -5.1120  -5.1119  -5.1119  -5.1112
    -5.1105  -5.1105  -5.1105  -5.1094  -5.1093  -5.1091  -5.1091  -5.1090
    -5.1090  -5.1087  -5.1087  -5.1078  -5.1077  -5.1074  -5.1073  -5.1073
    -5.1073  -5.1070  -5.1065  -5.1064  -5.1064  -5.1059  -5.1058  -5.1050
    -5.1050  -5.1049  -5.1049  -5.1037  -5.1021  -5.1021  -5.1019  -5.1008
    -5.1008  -5.1004  -5.1004  -5.0998  -5.0997  -5.0994  -5.0993  -5.0993
    -5.0991  -5.0988  -5.0988  -5.0988  -5.0983  -5.0983  -5.0977  -5.0976
    -5.0972  -5.0971  -5.0971  -5.0970  -5.0961  -5.0954  -5.0953  -5.0947
    -5.0944  -5.0943  -5.0937  -5.0937  -5.0930  -5.0930  -5.0927  -5.0923
    -5.0909  -5.0909  -5.0908  -5.0896  -5.0895  -5.0884  -5.0879  -5.0878
    -5.0869  -5.0869  -5.0867  -5.0864  -5.0864  -5.0856  -5.0855  -5.0854
    -5.0854  -5.0852  -5.0830  -5.0830  -5.0828  -5.0818  -5.0818  -5.0815
    -5.0794  -5.0794  -5.0793  -5.0793  -5.0793  -5.0792  -5.0786  -5.0784
    -5.0784  -5.0783  -5.0783  -5.0782  -5.0775  -5.0775  -5.0767  -5.0767
    -5.0762  -5.0762  -5.0756  -5.0756  -5.0754  -5.0754  -5.0748  -5.0744
    -5.0744  -5.0744  -5.0736  -5.0736  -5.0735  -5.0727  -5.0725  -5.0725
    -5.0721  -5.0721  -5.0721  -5.0719  -5.0716  -5.0715  -5.0715  -5.0711
    -5.0711  -5.0705  -5.0705  -5.0702  -5.0699  -5.0698  -5.0697  -5.0695
    -5.0691  -5.0691  -5.0676  -5.0675  -5.0670  -5.0670  -5.0663  -5.0663
    -5.0660  -5.0656  -5.0653  -5.0647  -5.0639  -5.0638  -5.0633  -5.0630
    -5.0630  -5.0622  -5.0620  -5.0620  -5.0612  -5.0604  -5.0603  -5.0583
    -5.0583  -5.0557  -5.0557  -5.0536  -5.0523  -5.0523  -5.0520  -5.0509
    -5.0509  -5.0509  -5.0504  -5.0504  -5.0502  -5.0493  -5.0493  -5.0492
    -5.0482  -5.0476  -5.0475  -5.0446  -5.0445  -5.0444  -5.0444  -5.0436
    -5.0436  -5.0426  -5.0425  -5.0420  -5.0416  -5.0416  -5.0416  -5.0410
    -5.0409  -5.0409  -5.0401  -5.0400  -5.0400  -5.0391  -5.0390  -5.0390
    -5.0382  -5.0381  -5.0364  -5.0357  -5.0355  -5.0355  -5.0341  -5.0341
    -5.0306  -5.0296  -5.0295  -5.0282  -5.0279  -5.0279  -5.0273  -5.0273
    -5.0261  -5.0253  -5.0253  -5.0252  -5.0243  -5.0243  -5.0238  -5.0236
    -5.0232  -5.0231  -5.0221  -5.0221  -5.0217  -5.0217  -5.0211  -5.0211
    -5.0204  -5.0200  -5.0200  -5.0198  -5.0198  -5.0196  -5.0190  -5.0188
    -5.0188  -5.0186  -5.0185  -5.0185  -5.0182  -5.0182  -5.0179  -5.0178
    -5.0178  -5.0175  -5.0174  -5.0171  -5.0170  -5.0168  -5.0164  -5.0163
    -5.0157  -5.0156  -5.0155  -5.0150  -5.0149  -5.0149  -5.0148  -5.0147
    -5.0146  -5.0145  -5.0144  -5.0141  -5.0139  -5.0137  -5.0137  -5.0130
    -5.0127  -5.0127  -5.0124  -5.0123  -5.0123  -5.0115  -5.0115  -5.0114
    -5.0113  -5.0111  -5.0111  -5.0109  -5.0105  -5.0105  -5.0101  -5.0098
    -5.0094  -5.0094  -5.0089  -5.0067  -5.0067  -5.0053  -5.0046  -5.0046
    -5.0022  -5.0016  -5.0015  -5.0014  -5.0010  -5.0007  -5.0007  -5.0002
    -5.0002  -4.9998  -4.9997  -4.9990  -4.9983  -4.9982  -4.9982  -4.9979
    -4.9978  -4.9966  -4.9965  -4.9965  -4.9960  -4.9960  -4.9957  -4.9947
    -4.9946  -4.9946  -4.9934  -4.9929  -4.9929  -4.9916  -4.9916  -4.9909
    -4.9828  -4.9820  -4.9820  -4.9802  -4.9801  -4.9800  -4.9797  -4.7799
    -4.7798  -4.7783  -4.7770  -4.7769  -4.7747  -4.7747  -4.7740  -4.7739
    -4.7738  -4.7735  -4.7110  -4.3295  -4.3294  -4.3290  -4.3276  -4.3275
    -4.3129  -4.2904  -4.2773  -4.0889  -4.0888  -4.0873  -4.0873  -4.0871
    -4.0854  -4.0841  -4.0837  -4.0837  -4.0834  -4.0833  -4.0536  -4.0177
    -4.0174  -4.0151  -4.0149  -4.0134  -4.0011  -3.9546  -3.9546  -3.9513
    -3.9500  -3.9500  -3.9490  -3.9490  -3.9485  -3.9479  -3.9478  -3.9476
    -3.8929  -3.8188  -3.8188  -3.8168  -3.8166  -3.8143  -3.8143  -3.8137
    -3.8129  -3.8122  -3.8120  -3.8115  -3.6951  -3.5115  -3.3967  -3.3966
    -3.3939  -3.3934  -3.3934  -3.3929  -3.3916  -3.3916  -3.3896  -3.3889
    -3.3889  -3.3858  -3.3846  -3.3846  -3.3843  -3.3809  -3.3809  -3.3463
    -3.2919  -3.2899  -3.2899  -3.2894  -3.2893  -3.2842  -3.2842  -3.2841
    -3.2830  -3.2830  -3.2828  -3.2796  -3.2732  -3.2730  -3.2708  -3.2707
    -3.2694  -3.2693  -3.2682  -3.2677  -3.2664  -3.2662  -3.2661  -3.2604
    -3.2523  -3.2523  -3.2489  -3.2488  -3.2485  -3.1200  -3.0689  -3.0653
    -3.0653  -3.0630  -3.0629  -3.0603  -3.0602  -3.0589  -3.0587  -3.0587
    -3.0581  -2.9832  -2.9472  -2.9470  -2.9461  -2.9424  -2.9423  -2.9301
    -2.9214  -2.9213  -2.9191  -2.9189  -2.9162  -2.9080  -2.9053  -2.9051
    -2.9041  -2.9034  -2.9032   2.0752   2.3457   2.5579   2.5580   2.5586
     2.5592   2.5594   2.5941   2.6203   2.6208   2.6221   2.6223   2.6225
     2.6225   2.6233   2.6234   2.6238   2.6239   2.6242   2.6245   2.6251
     2.6251   2.6253   2.6254   2.6256   2.6261   2.6264   2.6277   2.6805
     2.6809   2.6832   2.7133   2.7863   2.7870   2.7996   2.8054   2.8073
     2.8077   2.9400   2.9425   2.9425   2.9533   2.9534   2.9578   2.9932
     2.9932   2.9938   2.9947   2.9957   2.9958   2.9961   2.9962   3.0059
     3.0451   3.0454   3.0563   3.1332   3.1336   3.1339   3.1462   3.1463
     3.1583   3.2369   3.2370   3.2372   3.2393   3.2395   3.2395   3.2401
     3.2402   3.2563   3.2565   3.2585   3.2700   3.2841   3.2849   3.2858
     3.2863   3.2874   3.2875   3.2883   3.2896   3.3435   3.3830   3.3832
     3.4590   3.6050   3.6078   3.7016   3.7034   3.7034   3.7045   3.7045
     3.7061   3.7063   3.7072   3.7077   3.7083   3.7084   3.7086   3.7088
     3.7089   3.7454   3.7456   3.8212   3.8525   3.9349   3.9351   3.9487
     3.9490   3.9517   3.9534   3.9850   3.9853   3.9854   3.9870   3.9880
     3.9880   3.9891   3.9892   4.0518   4.0701   4.0705   4.4302   4.5296
[...]
N            -3.2444387472        9.3659634598       15.2071926257
N            -4.8692168784       12.1861307746        4.6288839777
N            -4.8668478781       12.1761794003        9.9191443107
N            -4.8660411237       12.1758172780       15.2083000432
N             4.8559192920        0.9341153093        4.6288819621
N             4.8667541473        0.9366035070        9.9189231508
N             4.8673351957        0.9361730703       15.2081037237
N             3.2369285077        3.7382896046        4.6288819621
N             3.2445007778        3.7464287657        9.9189231508
N             3.2444185328        3.7471471867       15.2081037237
N             1.6223324867        6.5571756690        4.6307798764
N             1.6222974760        6.5572438310        9.9207221044
N             1.6222966647        6.5581237100       15.2064553564
N            -0.0000791207        9.3661573589        4.6309401595
N             0.0001015994        9.3662616977        9.9201006783
N             0.0002139265        9.3663265498       15.2067096695
N            -1.6215228192       12.1756978714        4.6307798764
N            -1.6214812946       12.1756334702        9.9207221044
N            -1.6207197027       12.1751928280       15.2064553564
N             8.1076115293        0.9364241711        4.6312787725
N             8.1115828698        0.9366133744        9.9197973284
N             8.1115630128        0.9366635218       15.2070773613
N             6.4885587430        3.7461696661        4.6312651061
N             6.4894715223        3.7466966595        9.9213616699
N             6.4895988386        3.7467701656       15.2070359588
N             4.8647741595        6.5531832567        4.6312787725
N             4.8669236846        6.5565279367        9.9197973284
N             4.8669571850        6.5564856665       15.2070773613
N             3.2445318166        9.3661488897        4.6310765609
N             3.2443987880        9.3662056518        9.9202553560
N             3.2442838503        9.3662846431       15.2068531998
N             1.6222190134       12.1760770907        4.6310765609
N             1.6222016565       12.1759335036        9.9202553560
N             1.6222125962       12.1757944689       15.2068531998
N            11.3594912159        0.9364118404        4.6312700161
N            11.3557068836        0.9366753248        9.9198385205
N            11.3557254544        0.9367357016       15.2071018636
N             9.7337348457        3.7463268925        4.6313119166
N             9.7337462840        3.7465569304        9.9204254415
N             9.7337288822        3.7465383343       15.2073530586
N             8.1112829564        6.5564959977        4.6313119166
N             8.1114878942        6.5563908845        9.9204254415
N             8.1114630886        6.5563851123       15.2073530586
N             6.4907033241        9.3693998407        4.6312700161
N             6.4890393421        9.3659907706        9.9198385205
N             6.4891009153        9.3659766649       15.2071018636
N             4.8664264009       12.1758356319        4.6310199006
N             4.8660828655       12.1756372917        9.9208882451
N             4.8654283390       12.1752594006       15.2066669526
N            14.6114728525        0.9343942282        4.6289730980
N            14.6005013783        0.9365574692        9.9187942416
N            14.5998779755        0.9361479128       15.2079971226
N            12.9785286003        3.7460346926        4.6310676169
N            12.9777285048        3.7466709724        9.9212085895
N            12.9775647110        3.7467587631       15.2068446327
N            11.3560593159        6.5564224322        4.6311204140
N            11.3558563524        6.5563052512        9.9202343110
N            11.3558739049        6.5563153851       15.2071605955
N             9.7334267812        9.3667159192        4.6310676169
N             9.7335777680        9.3657048763        9.9212085895
N             9.7335719000        9.3655191314       15.2068446327
N             8.1149468388       12.1867073568        4.6289730980
N             8.1113345234       12.1761241609        9.9187942416
N             8.1106681357       12.1757890565       15.2079971226
N            -0.0030592395        1.8749825582        1.9889580770
N             0.0036219102        1.8711915197        7.2762962908
N            -0.0010009085        1.8738692221       12.5648730159
N            -1.6228672192        4.6839651107        1.9867254791
N            -1.6222424853        4.6826319104        7.2762663914
N            -1.6225051061        4.6834962947       12.5635436879
N            -3.2446167724        7.4929268221        1.9865862904
N            -3.2447083210        7.4928739665        7.2756272393
N            -3.2446072406        7.4929323253       12.5635385975
N            -4.8663741960       10.3018839894        1.9867254791
N            -4.8672164144       10.3030916249        7.2762663914
N            -4.8665991461       10.3024319965       12.5635436879
N            -6.4891204553       13.1091701254        1.9889580770
N            -6.4890630162       13.1168516900        7.2762962908
N            -6.4890554672       13.1115093604       12.5648730159
N             3.2471103270        1.8747227002        1.9897646250
N             3.2409970055        1.8711931724        7.2771660021
N             3.2455611050        1.8738282565       12.5651598164
N             1.6222174547        4.6861772898        1.9843644087
N             1.6221658119        4.6867130969        7.2761841955
N             1.6222237882        4.6835771234       12.5638183844
N            -0.0001596397        7.4935413527        1.9860536247
N            -0.0000934639        7.4934321683        7.2763820314
N            -0.0002001095        7.4933099776       12.5637480747
N            -1.6218560070       10.3024018552        1.9860536247
N            -1.6219174755       10.3025137573        7.2763820314
N            -1.6220766185       10.3024824949       12.5637480747
N            -3.2419160559       13.1111036650        1.9843644087
N            -3.2414778546       13.1107910375        7.2761841955
N            -3.2441646992       13.1124092332       12.5638183844
N             6.4901434166        1.8733819287        1.9868342665
N             6.4887341575        1.8734508546        7.2763393594
N             6.4896351279        1.8733537012       12.5636576088
N             4.8674657296        4.6839421271        1.9868342665
N             4.8668207917        4.6826872100        7.2763393594
N             4.8671871395        4.6835160499       12.5636576088
N             3.2447821623        7.4936256594        1.9858322704
N             3.2447235057        7.4935260615        7.2761589421
N             3.2447933786        7.4933856209       12.5635666439
N             1.6223375885       10.3028642325        1.9864683840
N             1.6223471113       10.3028697305        7.2760870371
N             1.6223582930       10.3028761863       12.5636323449
N             0.0006879058       13.1125617363        1.9858322704
N             0.0005723231       13.1125607372        7.2761589421
N             0.0004856345       13.1126914691       12.5635666439
N             9.7335418248        1.8733710177        1.9866861199
N             9.7335474488        1.8734571358        7.2757421810
N             9.7335905626        1.8733411813       12.5636629397
N             8.1113497766        4.6830926560        1.9865304456
N             8.1109756405        4.6828766484        7.2761997674
N             8.1117014333        4.6832956851       12.5638252386
N             6.4891554844        7.4928129988        1.9866861199
N             6.4892328769        7.4927748103        7.2757421810
N             6.4891540143        7.4928701251       12.5636629397
N             4.8662352256       10.3023380261        1.9858570472
N             4.8663071481       10.3024465223        7.2761842900
N             4.8665148192       10.3024801416       12.5635957406
N             3.2438306990       13.1124250969        1.9858570472
N             3.2439606207       13.1124331354        7.2761842900
N             3.2440935714       13.1125961743       12.5635957406
N            12.9771248428        1.8732952983        1.9870381481
N            12.9785145633        1.8733962403        7.2765477524
N            12.9777508914        1.8733101402       12.5638144925
N            11.3558839822        4.6831473231        1.9866650437
N            11.3562560470        4.6829282150        7.2763513454
N            11.3555591096        4.6833414381       12.5639745642
N             9.7336642225        7.4929143681        1.9866650437
N             9.7336605017        7.4933461397        7.2763513454
N             9.7336698947        7.4925359626       12.5639745642
N             8.1108814186       10.3018761514        1.9870381481
N             8.1116636971       10.3030292136        7.2765477524
N             8.1112072963       10.3024109044       12.5638144925
N             6.4863342620       13.1110940214        1.9843829913
N             6.4858876106       13.1108361471        7.2761368631
N             6.4886755369       13.1124457571       12.5637754841



     Writing config-only to output data dir ./GaN.save/
     NEW-OLD atomic charge density approx. for the potential

     Check: negative core charge=   -0.000003


     -----------------------------------------------
     Non-local corr. energy    =      81.65615131 Ry
     -----------------------------------------------


     total cpu time spent up to now is    95087.0 secs

     Self-consistent Calculation

     iteration #  1     ecut=    70.00 Ry     beta= 0.70
     Davidson diagonalization with overlap

---- Real-time Memory Report at c_bands before calling an iterative solver
          3680 MiB given to the printing process from OS
             0 MiB allocation reported by mallinfo(arena+hblkhd)
       1611174 MiB available memory on the node where the printing process lives
------------------
     ethr =  1.00E-06,  avg # of iterations =  4.0


     -----------------------------------------------
     Non-local corr. energy    =      81.65587152 Ry
     -----------------------------------------------


     total cpu time spent up to now is    96311.6 secs

     total energy              =  -46812.76596709 Ry
     estimated scf accuracy    <       0.00563644 Ry

     iteration #  2     ecut=    70.00 Ry     beta= 0.70
     Davidson diagonalization with overlap

---- Real-time Memory Report at c_bands before calling an iterative solver
          3680 MiB given to the printing process from OS
             0 MiB allocation reported by mallinfo(arena+hblkhd)
       1611319 MiB available memory on the node where the printing process lives
------------------
     c_bands:  2 eigenvalues not converged
     ethr =  2.09E-07,  avg # of iterations = 17.2


     -----------------------------------------------
     Non-local corr. energy    =      81.65596085 Ry
     -----------------------------------------------


     total cpu time spent up to now is   100083.1 secs

     total energy              =  -46812.76499306 Ry
     estimated scf accuracy    <       0.00691025 Ry

     iteration #  3     ecut=    70.00 Ry     beta= 0.70
     Davidson diagonalization with overlap

---- Real-time Memory Report at c_bands before calling an iterative solver
          3680 MiB given to the printing process from OS
             0 MiB allocation reported by mallinfo(arena+hblkhd)
       1601133 MiB available memory on the node where the printing process lives
------------------
     ethr =  2.09E-07,  avg # of iterations = 16.0


     -----------------------------------------------
     Non-local corr. energy    =      81.65603553 Ry
     -----------------------------------------------


     total cpu time spent up to now is   104444.8 secs

     total energy              =  -46812.76377354 Ry
     estimated scf accuracy    <       0.05271495 Ry

     iteration #  4     ecut=    70.00 Ry     beta= 0.70
     Davidson diagonalization with overlap

---- Real-time Memory Report at c_bands before calling an iterative solver
          3680 MiB given to the printing process from OS
             0 MiB allocation reported by mallinfo(arena+hblkhd)
       1601111 MiB available memory on the node where the printing process lives
------------------
     c_bands:  2 eigenvalues not converged
     ethr =  2.09E-07,  avg # of iterations = 16.7


     -----------------------------------------------
     Non-local corr. energy    =      81.65606037 Ry
     -----------------------------------------------


     total cpu time spent up to now is   108379.0 secs

     total energy              =  -46812.76765653 Ry
     estimated scf accuracy    <       0.00063632 Ry

     iteration #  5     ecut=    70.00 Ry     beta= 0.70
     Davidson diagonalization with overlap

---- Real-time Memory Report at c_bands before calling an iterative solver
          3680 MiB given to the printing process from OS
             0 MiB allocation reported by mallinfo(arena+hblkhd)
       1601000 MiB available memory on the node where the printing process lives
------------------
     c_bands:  2 eigenvalues not converged
     ethr =  2.36E-08,  avg # of iterations = 17.0


     -----------------------------------------------
     Non-local corr. energy    =      81.65609622 Ry
     -----------------------------------------------


     total cpu time spent up to now is   110832.7 secs

     total energy              =  -46812.76772198 Ry
     estimated scf accuracy    <       0.00044736 Ry

     iteration #  6     ecut=    70.00 Ry     beta= 0.70
     Davidson diagonalization with overlap

---- Real-time Memory Report at c_bands before calling an iterative solver
          3680 MiB given to the printing process from OS
             0 MiB allocation reported by mallinfo(arena+hblkhd)
       1600976 MiB available memory on the node where the printing process lives
------------------
     c_bands:  3 eigenvalues not converged
     ethr =  1.66E-08,  avg # of iterations = 10.2


     -----------------------------------------------
     Non-local corr. energy    =      81.65613869 Ry
     -----------------------------------------------


     total cpu time spent up to now is   112320.4 secs

     total energy              =  -46812.76776108 Ry
     estimated scf accuracy    <       0.00027702 Ry

     iteration #  7     ecut=    70.00 Ry     beta= 0.70
     Davidson diagonalization with overlap

---- Real-time Memory Report at c_bands before calling an iterative solver
          3680 MiB given to the printing process from OS
             0 MiB allocation reported by mallinfo(arena+hblkhd)
       1600960 MiB available memory on the node where the printing process lives
------------------
     ethr =  1.03E-08,  avg # of iterations =  7.3


     -----------------------------------------------
     Non-local corr. energy    =      81.65620949 Ry
     -----------------------------------------------


     total cpu time spent up to now is   113467.8 secs

     total energy              =  -46812.76779515 Ry
     estimated scf accuracy    <       0.00015723 Ry

     iteration #  8     ecut=    70.00 Ry     beta= 0.70
     Davidson diagonalization with overlap

---- Real-time Memory Report at c_bands before calling an iterative solver
          3680 MiB given to the printing process from OS
             0 MiB allocation reported by mallinfo(arena+hblkhd)
       1600954 MiB available memory on the node where the printing process lives
------------------
     c_bands:  1 eigenvalues not converged
     c_bands:  2 eigenvalues not converged
     ethr =  5.83E-09,  avg # of iterations = 15.8


     -----------------------------------------------
     Non-local corr. energy    =      81.65624555 Ry
     -----------------------------------------------


     total cpu time spent up to now is   115283.0 secs

     total energy              =  -46812.76780762 Ry
     estimated scf accuracy    <       0.00004708 Ry

     iteration #  9     ecut=    70.00 Ry     beta= 0.70
     Davidson diagonalization with overlap

---- Real-time Memory Report at c_bands before calling an iterative solver
          3680 MiB given to the printing process from OS
             0 MiB allocation reported by mallinfo(arena+hblkhd)
       1600936 MiB available memory on the node where the printing process lives
------------------
     c_bands:  1 eigenvalues not converged
     c_bands:  3 eigenvalues not converged
     ethr =  1.75E-09,  avg # of iterations = 17.5


     -----------------------------------------------
     Non-local corr. energy    =      81.65624201 Ry
     -----------------------------------------------


     total cpu time spent up to now is   117814.0 secs

     total energy              =  -46812.76780932 Ry
     estimated scf accuracy    <       0.00000608 Ry

     iteration # 10     ecut=    70.00 Ry     beta= 0.70
     Davidson diagonalization with overlap

---- Real-time Memory Report at c_bands before calling an iterative solver
          3680 MiB given to the printing process from OS
             0 MiB allocation reported by mallinfo(arena+hblkhd)
       1600933 MiB available memory on the node where the printing process lives
------------------
     c_bands:  1 eigenvalues not converged
     c_bands:  3 eigenvalues not converged
     ethr =  2.25E-10,  avg # of iterations = 16.8


     -----------------------------------------------
     Non-local corr. energy    =      81.65626028 Ry
     -----------------------------------------------


     total cpu time spent up to now is   122514.7 secs

     total energy              =  -46812.76781037 Ry
     estimated scf accuracy    <       0.00000078 Ry

     iteration # 11     ecut=    70.00 Ry     beta= 0.70
     Davidson diagonalization with overlap

---- Real-time Memory Report at c_bands before calling an iterative solver
          3680 MiB given to the printing process from OS
             0 MiB allocation reported by mallinfo(arena+hblkhd)
       1600442 MiB available memory on the node where the printing process lives
------------------
     c_bands:  2 eigenvalues not converged
     ethr =  2.91E-11,  avg # of iterations = 17.5


     -----------------------------------------------
     Non-local corr. energy    =      81.65627746 Ry
     -----------------------------------------------


     total cpu time spent up to now is   125603.5 secs

     total energy              =  -46812.76781042 Ry
     estimated scf accuracy    <       0.00000017 Ry

     iteration # 12     ecut=    70.00 Ry     beta= 0.70
     Davidson diagonalization with overlap

---- Real-time Memory Report at c_bands before calling an iterative solver
          3680 MiB given to the printing process from OS
             0 MiB allocation reported by mallinfo(arena+hblkhd)
       1600441 MiB available memory on the node where the printing process lives
------------------
     c_bands:  3 eigenvalues not converged
     ethr =  6.48E-12,  avg # of iterations = 17.2


     -----------------------------------------------
     Non-local corr. energy    =      81.65629097 Ry
     -----------------------------------------------


     total cpu time spent up to now is   129455.8 secs

     total energy              =  -46812.76781045 Ry
     estimated scf accuracy    <       0.00000002 Ry

     iteration # 13     ecut=    70.00 Ry     beta= 0.70
     Davidson diagonalization with overlap

---- Real-time Memory Report at c_bands before calling an iterative solver
          3680 MiB given to the printing process from OS
             0 MiB allocation reported by mallinfo(arena+hblkhd)
       1600397 MiB available memory on the node where the printing process lives
------------------
