
     Program PWSCF v.7.1 starts on 17Mar2024 at 17:10:31 

     This program is part of the open-source Quantum ESPRESSO suite
     for quantum simulation of materials; please cite
         "P. Giannozzi et al., J. Phys.:Condens. Matter 21 395502 (2009);
         "P. Giannozzi et al., J. Phys.:Condens. Matter 29 465901 (2017);
         "P. Giannozzi et al., J. Chem. Phys. 152 154105 (2020);
          URL http://www.quantum-espresso.org", 
     in publications or presentations arising from this work. More details at
     http://www.quantum-espresso.org/quote

     Parallel version (MPI & OpenMP), running on     256 processor cores
     Number of MPI processes:               256
     Threads/MPI process:                     1

     MPI processes distributed on     2 nodes
     2041318 MiB available memory on the printing compute node when the environment starts
 
     Reading input from espresso.pwi
Warning: card &CELL ignored
Warning: card    CELL_DYNAMICS    = 'BFGS' ignored
Warning: card / ignored

     Current dimensions of program PWSCF are:
     Max number of different atomic species (ntypx) = 10
     Max number of k-points (npk) =  40000
     Max angular momentum in pseudopotentials (lmaxx) =  4
     file Pb.pbe-dn-kjpaw_psl.1.0.0.UPF: wavefunction(s)  6S 6P 5D renormalized
     file I.pbe-dn-kjpaw_psl.1.0.0.UPF: wavefunction(s)  5S 5P renormalized

     **************************************************************************
     Initializing libbeef V0.1.2 with the BEEF-vdW functional.
     Citation: Wellendorff et al., PRB 85, 235149 (2012).
     **************************************************************************


     IMPORTANT: XC functional enforced from input :
     Exchange-correlation= BEEF-VDW
                           (   1   4  43  14   2   0   0)
     Any further DFT definition will be discarded
     Please, verify this is what you really want

 
     R & G space division:  proc/nbgrp/npool/nimage =     256
     WARNING: too many processors for an effective parallelization!
     wavefunctions fft division:  task group distribution
                                  #TG    x Z-proc =       8     32
     Subspace diagonalization in iterative solution of the eigenvalue problem:
     a serial algorithm will be used

 
     Parallelization info
     --------------------
     sticks:   dense  smooth     PW     G-vecs:    dense   smooth      PW
     Min         119      95     23                19837    14191    1763
     Max         120      96     24                19846    14206    1780
     Sum       30589   24439   6121              5079105  3634441  454335
 
     Using Pencil Decomposition
 


     bravais-lattice index     =            4
     lattice parameter (alat)  =      35.6120  a.u.
     unit-cell volume          =   45937.3577 (a.u.)^3
     number of atoms/cell      =          143
     number of atomic types    =            2
     number of electrons       =      2286.00
     number of Kohn-Sham states=         1372
     kinetic-energy cutoff     =      70.0000  Ry
     charge density cutoff     =     350.0000  Ry
     scf convergence threshold =      1.0E-07
     mixing beta               =       0.7000
     number of iterations used =            8  plain     mixing
     Exchange-correlation= BEEF-VDW
                           (   1   4  43  14   2   0   0)

     celldm(1)=  35.612033  celldm(2)=   0.000000  celldm(3)=   1.174479
     celldm(4)=   0.000000  celldm(5)=   0.000000  celldm(6)=   0.000000

     crystal axes: (cart. coord. in units of alat)
               a(1) = (   1.000000   0.000000   0.000000 )  
               a(2) = (  -0.500000   0.866025   0.000000 )  
               a(3) = (   0.000000   0.000000   1.174479 )  

     reciprocal axes: (cart. coord. in units 2 pi/alat)
               b(1) = (  1.000000  0.577350 -0.000000 )  
               b(2) = (  0.000000  1.154701  0.000000 )  
               b(3) = (  0.000000 -0.000000  0.851442 )  


     PseudoPot. # 1 for Pb read from file:
     //group///packages/espresso/pseudo/psl_1.0.0/pslibrary.1.0.0/pbe/PSEUDOPOTENTIALS/Pb.pbe-dn-kjpaw_psl.1.0.0.UPF
     MD5 check sum: 39ab5b8a6bbd56b7735ad9f188aac93a
     Pseudo is Projector augmented-wave + core cor, Zval = 14.0
     Generated using 'atomic' code by A. Dal Corso  v.7.1
     Shape of augmentation charge: PSQ
     Using radial grid of 1281 points,  6 beta functions with: 
                l(1) =   0
                l(2) =   0
                l(3) =   1
                l(4) =   1
                l(5) =   2
                l(6) =   2
     Q(r) pseudized with 0 coefficients 


     PseudoPot. # 2 for I  read from file:
     //group///packages/espresso/pseudo/psl_1.0.0/pslibrary.1.0.0/pbe/PSEUDOPOTENTIALS/I.pbe-dn-kjpaw_psl.1.0.0.UPF
     MD5 check sum: bfa8781bc1224d19af3f3980e3fab11e
     Pseudo is Projector augmented-wave + core cor, Zval = 17.0
     Generated using 'atomic' code by A. Dal Corso  v.7.1
     Shape of augmentation charge: PSQ
     Using radial grid of 1247 points,  6 beta functions with: 
                l(1) =   0
                l(2) =   0
                l(3) =   1
                l(4) =   1
                l(5) =   2
                l(6) =   2
     Q(r) pseudized with 0 coefficients 


     atomic species   valence    mass     pseudopotential
        Pb            14.00   207.20000     Pb( 1.00)
        I             17.00   126.90447     I ( 1.00)

     No symmetry found


                                    s                        frac. trans.

      isym =  1     identity                                     

 cryst.   s( 1) = (     1          0          0      )
                  (     0          1          0      )
                  (     0          0          1      )

 cart.    s( 1) = (  1.0000000  0.0000000  0.0000000 )
                  (  0.0000000  1.0000000  0.0000000 )
                  (  0.0000000  0.0000000  1.0000000 )


     point group C_1 (1)    
     there are  1 classes
     the character table:

       E    
A      1.00

     the symmetry operations in each class and the name of the first element:

     E        1
          identity                                               

   Cartesian axes

     site n.     atom                  positions (alat units)
         1           Pb  tau(   1) = (   0.1250136   0.2164827   1.1744753  )
         2           Pb  tau(   2) = (   0.1250034   0.2164918   0.3914896  )
         3           Pb  tau(   3) = (   0.1250085   0.2164873   0.7829825  )
         4           Pb  tau(   4) = (   0.0000128   0.4329881   1.1744712  )
         5           Pb  tau(   5) = (   0.0000026   0.4329971   0.3914855  )
         6           Pb  tau(   6) = (   0.0000077   0.4329926   0.7829784  )
         7           Pb  tau(   7) = (  -0.1249881   0.6494934   1.1744671  )
         8           Pb  tau(   8) = (  -0.1249983   0.6495025   0.3914814  )
         9           Pb  tau(   9) = (  -0.1249932   0.6494980   0.7829742  )
        10           Pb  tau(  10) = (  -0.2499889   0.8659988   1.1744630  )
        11           Pb  tau(  11) = (  -0.2499991   0.8660078   0.3914773  )
        12           Pb  tau(  12) = (  -0.2499940   0.8660033   0.7829701  )
        13           Pb  tau(  13) = (   0.3750136   0.2164818   1.1744786  )
        14           Pb  tau(  14) = (   0.3750034   0.2164908   0.3914929  )
        15           Pb  tau(  15) = (   0.3750085   0.2164863   0.7829857  )
        16           Pb  tau(  16) = (   0.2500128   0.4329871   1.1744745  )
        17           Pb  tau(  17) = (   0.2500026   0.4329962   0.3914888  )
        18           Pb  tau(  18) = (   0.2500077   0.4329916   0.7829816  )
        19           Pb  tau(  19) = (   0.1250119   0.6494925   1.1744703  )
        20           Pb  tau(  20) = (   0.1250017   0.6495015   0.3914847  )
        21           Pb  tau(  21) = (   0.1250068   0.6494970   0.7829775  )
        22           Pb  tau(  22) = (   0.0000111   0.8659978   1.1744662  )
        23           Pb  tau(  23) = (   0.0000009   0.8660069   0.3914805  )
        24           Pb  tau(  24) = (   0.0000060   0.8660024   0.7829734  )
        25           Pb  tau(  25) = (   0.6250136   0.2164808   1.1744818  )
        26           Pb  tau(  26) = (   0.6250034   0.2164898   0.3914962  )
        27           Pb  tau(  27) = (   0.6250085   0.2164853   0.7829890  )
        28           Pb  tau(  28) = (   0.5000128   0.4329862   1.1744777  )
        29           Pb  tau(  29) = (   0.5000026   0.4329952   0.3914920  )
        30           Pb  tau(  30) = (   0.5000077   0.4329907   0.7829849  )
        31           Pb  tau(  31) = (   0.3750119   0.6494915   1.1744736  )
        32           Pb  tau(  32) = (   0.3750017   0.6495006   0.3914879  )
        33           Pb  tau(  33) = (   0.3750068   0.6494960   0.7829808  )
        34           Pb  tau(  34) = (   0.2500111   0.8659969   1.1744695  )
        35           Pb  tau(  35) = (   0.2500009   0.8660059   0.3914838  )
        36           Pb  tau(  36) = (   0.2500060   0.8660014   0.7829766  )
        37           Pb  tau(  37) = (   0.8750136   0.2164798   1.1744851  )
        38           Pb  tau(  38) = (   0.8750034   0.2164889   0.3914994  )
        39           Pb  tau(  39) = (   0.8750085   0.2164844   0.7829923  )
        40           Pb  tau(  40) = (   0.7500128   0.4329852   1.1744810  )
        41           Pb  tau(  41) = (   0.7500026   0.4329942   0.3914953  )
        42           Pb  tau(  42) = (   0.7500077   0.4329897   0.7829881  )
        43           Pb  tau(  43) = (   0.6250119   0.6494906   1.1744769  )
        44           Pb  tau(  44) = (   0.6250017   0.6494996   0.3914912  )
        45           Pb  tau(  45) = (   0.6250068   0.6494951   0.7829840  )
        46           Pb  tau(  46) = (   0.5000111   0.8659959   1.1744727  )
        47           Pb  tau(  47) = (   0.5000009   0.8660050   0.3914870  )
        48           Pb  tau(  48) = (   0.5000060   0.8660004   0.7829799  )
        49           I   tau(  49) = (   0.1250105   0.0721505   0.6824253  )
        50           I   tau(  50) = (   0.1250156   0.0721459   1.0739182  )
        51           I   tau(  51) = (   0.0000045   0.2886603   0.2909283  )
        52           I   tau(  52) = (   0.0000096   0.2886558   0.6824212  )
        53           I   tau(  53) = (   0.0000147   0.2886513   1.0739140  )
        54           I   tau(  54) = (  -0.1249963   0.5051657   0.2909242  )
        55           I   tau(  55) = (  -0.1249912   0.5051612   0.6824171  )
        56           I   tau(  56) = (  -0.1249861   0.5051566   1.0739099  )
        57           I   tau(  57) = (  -0.2499971   0.7216710   0.2909201  )
        58           I   tau(  58) = (  -0.2499920   0.7216665   0.6824129  )
        59           I   tau(  59) = (  -0.2499869   0.7216620   1.0739058  )
        60           I   tau(  60) = (   0.3750054   0.0721540   0.2909357  )
        61           I   tau(  61) = (   0.3750105   0.0721495   0.6824286  )
        62           I   tau(  62) = (   0.3750156   0.0721450   1.0739214  )
        63           I   tau(  63) = (   0.2500045   0.2886594   0.2909316  )
        64           I   tau(  64) = (   0.2500096   0.2886548   0.6824244  )
        65           I   tau(  65) = (   0.2500147   0.2886503   1.0739173  )
        66           I   tau(  66) = (   0.1250037   0.5051647   0.2909275  )
        67           I   tau(  67) = (   0.1250088   0.5051602   0.6824203  )
        68           I   tau(  68) = (   0.1250139   0.5051557   1.0739132  )
        69           I   tau(  69) = (   0.0000029   0.7216701   0.2909233  )
        70           I   tau(  70) = (   0.0000080   0.7216656   0.6824162  )
        71           I   tau(  71) = (   0.0000131   0.7216610   1.0739090  )
        72           I   tau(  72) = (   0.6250054   0.0721530   0.2909390  )
        73           I   tau(  73) = (   0.6250105   0.0721485   0.6824318  )
        74           I   tau(  74) = (   0.6250156   0.0721440   1.0739247  )
        75           I   tau(  75) = (   0.5000045   0.2886584   0.2909348  )
        76           I   tau(  76) = (   0.5000096   0.2886539   0.6824277  )
        77           I   tau(  77) = (   0.5000147   0.2886494   1.0739205  )
        78           I   tau(  78) = (   0.3750037   0.5051638   0.2909307  )
        79           I   tau(  79) = (   0.3750088   0.5051592   0.6824236  )
        80           I   tau(  80) = (   0.3750139   0.5051547   1.0739164  )
        81           I   tau(  81) = (   0.2500029   0.7216691   0.2909266  )
        82           I   tau(  82) = (   0.2500080   0.7216646   0.6824194  )
        83           I   tau(  83) = (   0.2500131   0.7216601   1.0739123  )
        84           I   tau(  84) = (   0.8750054   0.0721521   0.2909422  )
        85           I   tau(  85) = (   0.8750105   0.0721476   0.6824351  )
        86           I   tau(  86) = (   0.8750156   0.0721430   1.0739279  )
        87           I   tau(  87) = (   0.7500045   0.2886574   0.2909381  )
        88           I   tau(  88) = (   0.7500096   0.2886529   0.6824310  )
        89           I   tau(  89) = (   0.7500147   0.2886484   1.0739238  )
        90           I   tau(  90) = (   0.6250037   0.5051628   0.2909340  )
        91           I   tau(  91) = (   0.6250088   0.5051583   0.6824268  )
        92           I   tau(  92) = (   0.6250139   0.5051538   1.0739197  )
        93           I   tau(  93) = (   0.5000029   0.7216681   0.2909299  )
        94           I   tau(  94) = (   0.5000080   0.7216636   0.6824227  )
        95           I   tau(  95) = (   0.5000131   0.7216591   1.0739156  )
        96           I   tau(  96) = (  -0.0000017   0.1443297   0.1005555  )
        97           I   tau(  97) = (   0.0000034   0.1443252   0.4920483  )
        98           I   tau(  98) = (   0.0000085   0.1443207   0.8835412  )
        99           I   tau(  99) = (  -0.1250025   0.3608351   0.1005514  )
       100           I   tau( 100) = (  -0.1249974   0.3608306   0.4920442  )
       101           I   tau( 101) = (  -0.1249923   0.3608260   0.8835371  )
       102           I   tau( 102) = (  -0.2500034   0.5773404   0.1005472  )
       103           I   tau( 103) = (  -0.2499983   0.5773359   0.4920401  )
       104           I   tau( 104) = (  -0.2499932   0.5773314   0.8835329  )
       105           I   tau( 105) = (  -0.3750042   0.7938458   0.1005431  )
       106           I   tau( 106) = (  -0.3749991   0.7938413   0.4920360  )
       107           I   tau( 107) = (  -0.3749940   0.7938368   0.8835288  )
       108           I   tau( 108) = (   0.2499983   0.1443288   0.1005587  )
       109           I   tau( 109) = (   0.2500034   0.1443242   0.4920516  )
       110           I   tau( 110) = (   0.2500085   0.1443197   0.8835444  )
       111           I   tau( 111) = (   0.1249975   0.3608341   0.1005546  )
       112           I   tau( 112) = (   0.1250026   0.3608296   0.4920475  )
       113           I   tau( 113) = (   0.1250077   0.3608251   0.8835403  )
       114           I   tau( 114) = (  -0.0000034   0.5773395   0.1005505  )
       115           I   tau( 115) = (   0.0000017   0.5773350   0.4920433  )
       116           I   tau( 116) = (   0.0000068   0.5773304   0.8835362  )
       117           I   tau( 117) = (  -0.1250042   0.7938448   0.1005464  )
       118           I   tau( 118) = (  -0.1249991   0.7938403   0.4920392  )
       119           I   tau( 119) = (  -0.1249940   0.7938358   0.8835321  )
       120           I   tau( 120) = (   0.4999983   0.1443278   0.1005620  )
       121           I   tau( 121) = (   0.5000034   0.1443233   0.4920548  )
       122           I   tau( 122) = (   0.5000085   0.1443188   0.8835477  )
       123           I   tau( 123) = (   0.3749975   0.3608332   0.1005579  )
       124           I   tau( 124) = (   0.3750026   0.3608286   0.4920507  )
       125           I   tau( 125) = (   0.3750077   0.3608241   0.8835436  )
       126           I   tau( 126) = (   0.2499966   0.5773385   0.1005537  )
       127           I   tau( 127) = (   0.2500017   0.5773340   0.4920466  )
       128           I   tau( 128) = (   0.2500068   0.5773295   0.8835394  )
       129           I   tau( 129) = (   0.1249958   0.7938439   0.1005496  )
       130           I   tau( 130) = (   0.1250009   0.7938394   0.4920425  )
       131           I   tau( 131) = (   0.1250060   0.7938348   0.8835353  )
       132           I   tau( 132) = (   0.7499983   0.1443268   0.1005653  )
       133           I   tau( 133) = (   0.7500034   0.1443223   0.4920581  )
       134           I   tau( 134) = (   0.7500085   0.1443178   0.8835509  )
       135           I   tau( 135) = (   0.6249975   0.3608322   0.1005611  )
       136           I   tau( 136) = (   0.6250026   0.3608277   0.4920540  )
       137           I   tau( 137) = (   0.6250077   0.3608232   0.8835468  )
       138           I   tau( 138) = (   0.4999966   0.5773376   0.1005570  )
       139           I   tau( 139) = (   0.5000017   0.5773330   0.4920499  )
       140           I   tau( 140) = (   0.5000068   0.5773285   0.8835427  )
       141           I   tau( 141) = (   0.3749958   0.7938429   0.1005529  )
       142           I   tau( 142) = (   0.3750009   0.7938384   0.4920457  )
       143           I   tau( 143) = (   0.3750060   0.7938339   0.8835386  )

   Crystallographic axes

     site n.     atom                  positions (cryst. coord.)
         1           Pb  tau(   1) = (  0.2500000  0.2499727  0.9999973  )
         2           Pb  tau(   2) = (  0.2499950  0.2499832  0.3333306  )
         3           Pb  tau(   3) = (  0.2499975  0.2499780  0.6666639  )
         4           Pb  tau(   4) = (  0.2499986  0.4999716  0.9999938  )
         5           Pb  tau(   5) = (  0.2499936  0.4999820  0.3333271  )
         6           Pb  tau(   6) = (  0.2499961  0.4999768  0.6666604  )
         7           Pb  tau(   7) = (  0.2499972  0.7499704  0.9999902  )
         8           Pb  tau(   8) = (  0.2499922  0.7499809  0.3333236  )
         9           Pb  tau(   9) = (  0.2499947  0.7499757  0.6666569  )
        10           Pb  tau(  10) = (  0.2499957  0.9999693  0.9999867  )
        11           Pb  tau(  11) = (  0.2499908  0.9999797  0.3333201  )
        12           Pb  tau(  12) = (  0.2499932  0.9999745  0.6666534  )
        13           Pb  tau(  13) = (  0.4999994  0.2499716  1.0000000  )
        14           Pb  tau(  14) = (  0.4999944  0.2499821  0.3333334  )
        15           Pb  tau(  15) = (  0.4999969  0.2499768  0.6666667  )
        16           Pb  tau(  16) = (  0.4999980  0.4999705  0.9999965  )
        17           Pb  tau(  17) = (  0.4999930  0.4999809  0.3333299  )
        18           Pb  tau(  18) = (  0.4999955  0.4999757  0.6666632  )
        19           Pb  tau(  19) = (  0.4999966  0.7499693  0.9999930  )
        20           Pb  tau(  20) = (  0.4999916  0.7499798  0.3333264  )
        21           Pb  tau(  21) = (  0.4999941  0.7499745  0.6666597  )
        22           Pb  tau(  22) = (  0.4999952  0.9999682  0.9999895  )
        23           Pb  tau(  23) = (  0.4999902  0.9999786  0.3333228  )
        24           Pb  tau(  24) = (  0.4999927  0.9999734  0.6666562  )
        25           Pb  tau(  25) = (  0.7499989  0.2499705  1.0000028  )
        26           Pb  tau(  26) = (  0.7499939  0.2499809  0.3333362  )
        27           Pb  tau(  27) = (  0.7499964  0.2499757  0.6666695  )
        28           Pb  tau(  28) = (  0.7499975  0.4999694  0.9999993  )
        29           Pb  tau(  29) = (  0.7499925  0.4999798  0.3333326  )
        30           Pb  tau(  30) = (  0.7499950  0.4999746  0.6666660  )
        31           Pb  tau(  31) = (  0.7499960  0.7499682  0.9999958  )
        32           Pb  tau(  32) = (  0.7499910  0.7499786  0.3333291  )
        33           Pb  tau(  33) = (  0.7499935  0.7499734  0.6666625  )
        34           Pb  tau(  34) = (  0.7499946  0.9999671  0.9999923  )
        35           Pb  tau(  35) = (  0.7499896  0.9999775  0.3333256  )
        36           Pb  tau(  36) = (  0.7499921  0.9999723  0.6666590  )
        37           Pb  tau(  37) = (  0.9999983  0.2499694  1.0000056  )
        38           Pb  tau(  38) = (  0.9999933  0.2499798  0.3333389  )
        39           Pb  tau(  39) = (  0.9999958  0.2499746  0.6666723  )
        40           Pb  tau(  40) = (  0.9999969  0.4999682  1.0000021  )
        41           Pb  tau(  41) = (  0.9999919  0.4999787  0.3333354  )
        42           Pb  tau(  42) = (  0.9999944  0.4999735  0.6666687  )
        43           Pb  tau(  43) = (  0.9999955  0.7499671  0.9999986  )
        44           Pb  tau(  44) = (  0.9999905  0.7499775  0.3333319  )
        45           Pb  tau(  45) = (  0.9999930  0.7499723  0.6666652  )
        46           Pb  tau(  46) = (  0.9999941  0.9999659  0.9999951  )
        47           Pb  tau(  47) = (  0.9999891  0.9999764  0.3333284  )
        48           Pb  tau(  48) = (  0.9999916  0.9999712  0.6666617  )
        49           I   tau(  49) = (  0.1666666  0.0833122  0.5810454  )
        50           I   tau(  50) = (  0.1666691  0.0833070  0.9143787  )
        51           I   tau(  51) = (  0.1666626  0.3333162  0.2477085  )
        52           I   tau(  52) = (  0.1666651  0.3333110  0.5810418  )
        53           I   tau(  53) = (  0.1666676  0.3333058  0.9143752  )
        54           I   tau(  54) = (  0.1666612  0.5833151  0.2477050  )
        55           I   tau(  55) = (  0.1666637  0.5833099  0.5810383  )
        56           I   tau(  56) = (  0.1666662  0.5833047  0.9143717  )
        57           I   tau(  57) = (  0.1666598  0.8333139  0.2477015  )
        58           I   tau(  58) = (  0.1666623  0.8333087  0.5810348  )
        59           I   tau(  59) = (  0.1666648  0.8333035  0.9143682  )
        60           I   tau(  60) = (  0.4166635  0.0833163  0.2477148  )
        61           I   tau(  61) = (  0.4166660  0.0833111  0.5810481  )
        62           I   tau(  62) = (  0.4166685  0.0833058  0.9143815  )
        63           I   tau(  63) = (  0.4166621  0.3333151  0.2477113  )
        64           I   tau(  64) = (  0.4166646  0.3333099  0.5810446  )
        65           I   tau(  65) = (  0.4166671  0.3333047  0.9143780  )
        66           I   tau(  66) = (  0.4166607  0.5833140  0.2477078  )
        67           I   tau(  67) = (  0.4166632  0.5833088  0.5810411  )
        68           I   tau(  68) = (  0.4166657  0.5833035  0.9143744  )
        69           I   tau(  69) = (  0.4166593  0.8333128  0.2477043  )
        70           I   tau(  70) = (  0.4166618  0.8333076  0.5810376  )
        71           I   tau(  71) = (  0.4166643  0.8333024  0.9143709  )
        72           I   tau(  72) = (  0.6666629  0.0833152  0.2477176  )
        73           I   tau(  73) = (  0.6666654  0.0833099  0.5810509  )
        74           I   tau(  74) = (  0.6666679  0.0833047  0.9143842  )
        75           I   tau(  75) = (  0.6666615  0.3333140  0.2477141  )
        76           I   tau(  76) = (  0.6666640  0.3333088  0.5810474  )
        77           I   tau(  77) = (  0.6666665  0.3333036  0.9143807  )
        78           I   tau(  78) = (  0.6666601  0.5833129  0.2477106  )
        79           I   tau(  79) = (  0.6666626  0.5833076  0.5810439  )
        80           I   tau(  80) = (  0.6666651  0.5833024  0.9143772  )
        81           I   tau(  81) = (  0.6666587  0.8333117  0.2477070  )
        82           I   tau(  82) = (  0.6666612  0.8333065  0.5810404  )
        83           I   tau(  83) = (  0.6666637  0.8333013  0.9143737  )
        84           I   tau(  84) = (  0.9166624  0.0833141  0.2477203  )
        85           I   tau(  85) = (  0.9166649  0.0833088  0.5810537  )
        86           I   tau(  86) = (  0.9166674  0.0833036  0.9143870  )
        87           I   tau(  87) = (  0.9166610  0.3333129  0.2477168  )
        88           I   tau(  88) = (  0.9166635  0.3333077  0.5810502  )
        89           I   tau(  89) = (  0.9166660  0.3333025  0.9143835  )
        90           I   tau(  90) = (  0.9166596  0.5833118  0.2477133  )
        91           I   tau(  91) = (  0.9166621  0.5833065  0.5810467  )
        92           I   tau(  92) = (  0.9166646  0.5833013  0.9143800  )
        93           I   tau(  93) = (  0.9166582  0.8333106  0.2477098  )
        94           I   tau(  94) = (  0.9166607  0.8333054  0.5810431  )
        95           I   tau(  95) = (  0.9166632  0.8333002  0.9143765  )
        96           I   tau(  96) = (  0.0833271  0.1666576  0.0856171  )
        97           I   tau(  97) = (  0.0833296  0.1666524  0.4189505  )
        98           I   tau(  98) = (  0.0833321  0.1666472  0.7522838  )
        99           I   tau(  99) = (  0.0833257  0.4166565  0.0856136  )
       100           I   tau( 100) = (  0.0833282  0.4166513  0.4189470  )
       101           I   tau( 101) = (  0.0833307  0.4166460  0.7522803  )
       102           I   tau( 102) = (  0.0833243  0.6666553  0.0856101  )
       103           I   tau( 103) = (  0.0833268  0.6666501  0.4189434  )
       104           I   tau( 104) = (  0.0833293  0.6666449  0.7522768  )
       105           I   tau( 105) = (  0.0833229  0.9166542  0.0856066  )
       106           I   tau( 106) = (  0.0833254  0.9166489  0.4189399  )
       107           I   tau( 107) = (  0.0833279  0.9166437  0.7522733  )
       108           I   tau( 108) = (  0.3333265  0.1666565  0.0856199  )
       109           I   tau( 109) = (  0.3333290  0.1666513  0.4189532  )
       110           I   tau( 110) = (  0.3333315  0.1666461  0.7522866  )
       111           I   tau( 111) = (  0.3333251  0.4166554  0.0856164  )
       112           I   tau( 112) = (  0.3333276  0.4166501  0.4189497  )
       113           I   tau( 113) = (  0.3333301  0.4166449  0.7522831  )
       114           I   tau( 114) = (  0.3333237  0.6666542  0.0856129  )
       115           I   tau( 115) = (  0.3333262  0.6666490  0.4189462  )
       116           I   tau( 116) = (  0.3333287  0.6666438  0.7522795  )
       117           I   tau( 117) = (  0.3333223  0.9166531  0.0856094  )
       118           I   tau( 118) = (  0.3333248  0.9166478  0.4189427  )
       119           I   tau( 119) = (  0.3333273  0.9166426  0.7522760  )
       120           I   tau( 120) = (  0.5833260  0.1666554  0.0856227  )
       121           I   tau( 121) = (  0.5833285  0.1666502  0.4189560  )
       122           I   tau( 122) = (  0.5833310  0.1666450  0.7522893  )
       123           I   tau( 123) = (  0.5833246  0.4166542  0.0856192  )
       124           I   tau( 124) = (  0.5833271  0.4166490  0.4189525  )
       125           I   tau( 125) = (  0.5833296  0.4166438  0.7522858  )
       126           I   tau( 126) = (  0.5833232  0.6666531  0.0856157  )
       127           I   tau( 127) = (  0.5833257  0.6666479  0.4189490  )
       128           I   tau( 128) = (  0.5833282  0.6666427  0.7522823  )
       129           I   tau( 129) = (  0.5833218  0.9166519  0.0856121  )
       130           I   tau( 130) = (  0.5833243  0.9166467  0.4189455  )
       131           I   tau( 131) = (  0.5833268  0.9166415  0.7522788  )
       132           I   tau( 132) = (  0.8333254  0.1666543  0.0856254  )
       133           I   tau( 133) = (  0.8333279  0.1666491  0.4189588  )
       134           I   tau( 134) = (  0.8333304  0.1666438  0.7522921  )
       135           I   tau( 135) = (  0.8333240  0.4166531  0.0856219  )
       136           I   tau( 136) = (  0.8333265  0.4166479  0.4189553  )
       137           I   tau( 137) = (  0.8333290  0.4166427  0.7522886  )
       138           I   tau( 138) = (  0.8333226  0.6666520  0.0856184  )
       139           I   tau( 139) = (  0.8333251  0.6666468  0.4189518  )
       140           I   tau( 140) = (  0.8333276  0.6666415  0.7522851  )
       141           I   tau( 141) = (  0.8333212  0.9166508  0.0856149  )
       142           I   tau( 142) = (  0.8333237  0.9166456  0.4189482  )
       143           I   tau( 143) = (  0.8333262  0.9166404  0.7522816  )

     number of k points=     1  Gaussian smearing, width (Ry)=  0.0100
                       cart. coord. in units 2pi/alat
        k(    1) = (   0.0000000   0.0000000   0.0000000), wk =   2.0000000

                       cryst. coord.
        k(    1) = (   0.0000000   0.0000000   0.0000000), wk =   2.0000000

     Dense  grid:  5079105 G-vectors     FFT dimensions: ( 216, 216, 250)

     Smooth grid:  3634441 G-vectors     FFT dimensions: ( 192, 192, 225)

     Dynamical RAM for                 wfc:      37.14 MB

     Dynamical RAM for     wfc (w. buffer):      37.14 MB

     Dynamical RAM for           str. fact:       0.61 MB

     Dynamical RAM for           local pot:       0.00 MB

     Dynamical RAM for          nlocal pot:      69.68 MB

     Dynamical RAM for                qrad:       3.00 MB

     Dynamical RAM for          rho,v,vnew:       1.98 MB

     Dynamical RAM for               rhoin:       0.66 MB

     Dynamical RAM for            rho*nmix:       4.84 MB

     Dynamical RAM for           G-vectors:       1.24 MB

     Dynamical RAM for          h,s,v(r/c):    1378.70 MB

     Dynamical RAM for          <psi|beta>:      53.89 MB

     Dynamical RAM for                 psi:     148.56 MB

     Dynamical RAM for                hpsi:     148.56 MB

     Dynamical RAM for                spsi:     148.56 MB

     Dynamical RAM for      wfcinit/wfcrot:     117.37 MB

     Dynamical RAM for           addusdens:      85.07 MB

     Dynamical RAM for          addusforce:     142.51 MB

     Dynamical RAM for         addusstress:      60.85 MB

     Estimated static dynamical RAM per process >     116.99 MB

     Estimated max dynamical RAM per process >       1.95 GB

     Estimated total dynamical RAM >     500.02 GB

     Atomic positions and unit cell read from directory:
     ./PbI2.save/
     Atomic positions from file used, from input discarded
 

     Check: negative core charge=   -0.000001

     The initial density is read from file :
     ./PbI2.save/charge-density



     %%%%%%%%%%%%%%%%%%%%%%%%%%%%%%%%%%%%%%%%%%%%%%%%%%%%%%%%%%%%%%%%%%%%%%%%
     %                                                                      %
     % You are using vdW-DF, which was implemented by the Thonhauser group. %
     % Please cite the following two papers that made this development      %
     % possible and the two reviews that describe the various versions:     %
     %                                                                      %
     %   T. Thonhauser et al., PRL 115, 136402 (2015).                      %
     %   T. Thonhauser et al., PRB 76, 125112 (2007).                       %
     %   K. Berland et al., Rep. Prog. Phys. 78, 066501 (2015).             %
     %   D.C. Langreth et al., J. Phys.: Condens. Matter 21, 084203 (2009). %
     %                                                                      %
     % If you are calculating stress with vdW-DF, please also cite:         %
     %                                                                      %
     %   R. Sabatini et al., J. Phys.: Condens. Matter 24, 424209 (2012).   %
     %                                                                      %
     %%%%%%%%%%%%%%%%%%%%%%%%%%%%%%%%%%%%%%%%%%%%%%%%%%%%%%%%%%%%%%%%%%%%%%%%

     %%%%%%%%%%%%%%%%%%%%%%%%%%%%%%%%%%%%%%%%%%%%%%%%%%%%%%%%%%%%%%%%%%%%%%%%
     %                                                                      %
     %  vdW-DF NEWS:                                                        %
     %                                                                      %
     %  * vdW-DF3 is now available. DOI: 10.1021/acs.jctc.0c00471           %
     %    use with input_dft = 'vdW-DF3-opt1' or 'vdW-DF3-opt2'             %
     %                                                                      %
     %  * Unscreened and range-separated vdW-DF hybrid functionals          %
     %    DOI: 10.1063/1.4986522 and 10.1088/1361-648X/ac2ad2               %
     %    use with input_dft = 'vdW-DF-cx0' (etc) and 'vdW-DF-ahcx'         %
     %                                                                      %
     %%%%%%%%%%%%%%%%%%%%%%%%%%%%%%%%%%%%%%%%%%%%%%%%%%%%%%%%%%%%%%%%%%%%%%%%


     Carrying out vdW-DF run using the following parameters:
     Nqs    =  20  Npoints =  1024  r_max =  100.000
     q_mesh =  0.00001000  0.04494208  0.09755937  0.15916263
               0.23128650  0.31572767  0.41458969  0.53033537
               0.66584808  0.82450364  1.01025438  1.22772762
               1.48234092  1.78043706  2.12944203  2.53805004
               3.01644009  3.57652955  4.23227104  5.00000000


     -----------------------------------------------
     Non-local corr. energy    =      68.48529769 Ry
     -----------------------------------------------

     Starting wfcs from file
     Checking if some PAW data can be deallocated... 
       PAW data deallocated on  160 nodes for type:  1
       PAW data deallocated on   96 nodes for type:  2

     total cpu time spent up to now is       45.2 secs

     Self-consistent Calculation

     iteration #  1     ecut=    70.00 Ry     beta= 0.70
     Davidson diagonalization with overlap

---- Real-time Memory Report at c_bands before calling an iterative solver
           356 MiB given to the printing process from OS
             0 MiB allocation reported by mallinfo(arena+hblkhd)
       2012507 MiB available memory on the node where the printing process lives
------------------
     ethr =  1.00E-05,  avg # of iterations =  2.0

     Threshold (ethr) on eigenvalues was too large:
     Diagonalizing with lowered threshold

     Davidson diagonalization with overlap

---- Real-time Memory Report at c_bands before calling an iterative solver
          1377 MiB given to the printing process from OS
             0 MiB allocation reported by mallinfo(arena+hblkhd)
       1987872 MiB available memory on the node where the printing process lives
------------------
     c_bands:  1 eigenvalues not converged
     ethr =  1.09E-12,  avg # of iterations = 20.0


     -----------------------------------------------
     Non-local corr. energy    =      68.48529851 Ry
     -----------------------------------------------


     total cpu time spent up to now is      701.6 secs

     End of self-consistent calculation

          k = 0.0000 0.0000 0.0000 (454335 PWs)   bands (ev):

   -41.3269 -41.3269 -41.3268 -41.3078 -41.3078 -41.3077 -41.3053 -41.3053
   -41.3052 -41.2488 -41.2488 -41.2487 -41.2484 -41.2484 -41.2483 -41.0973
   -41.0973 -41.0972 -41.0965 -41.0965 -41.0965 -41.0845 -41.0845 -41.0845
   -41.0841 -41.0841 -41.0841 -41.0810 -41.0809 -41.0809 -41.0142 -41.0141
   -41.0141 -41.0118 -41.0118 -41.0035 -41.0034 -41.0034 -41.0028 -41.0028
   -41.0028 -41.0006 -41.0006 -41.0006 -41.0006 -41.0006 -41.0006 -41.0000
   -41.0000 -41.0000 -41.0000 -41.0000 -40.9999 -40.9976 -40.9976 -40.9976
   -40.9972 -40.9972 -40.9972 -40.9960 -40.9960 -40.9960 -40.9939 -40.9939
   -40.9939 -40.9939 -40.9939 -40.9939 -40.9894 -40.9894 -40.9894 -40.9894
   -40.9894 -40.9894 -40.9888 -40.9888 -40.9888 -40.9888 -40.9888 -40.9888
   -40.9847 -40.9847 -40.9847 -40.9815 -40.9815 -40.9815 -40.9796 -40.9796
   -40.9796 -40.9785 -40.9785 -40.9785 -40.9785 -40.9785 -40.9785 -40.9781
   -40.9781 -40.9781 -40.9780 -40.9780 -40.9780 -40.9766 -40.9766 -40.9766
   -40.9765 -40.9765 -40.9765 -40.9754 -40.9753 -40.9753 -40.9753 -40.9753
   -40.9753 -40.9751 -40.9751 -40.9751 -40.9751 -40.9751 -40.9750 -40.9709
   -40.9708 -40.9708 -40.9703 -40.9702 -40.9702 -40.9685 -40.9684 -40.9684
   -40.9680 -40.9680 -40.9680 -40.9676 -40.9675 -40.9675 -40.9659 -40.9658
   -40.9658 -40.9651 -40.9651 -40.9651 -40.9632 -40.9631 -40.9631 -40.9631
   -40.9631 -40.9630 -40.9624 -40.9624 -40.9624 -40.9615 -40.9615 -40.9615
   -40.9613 -40.9613 -40.9612 -40.7479 -40.7479 -40.7479 -40.7465 -40.7465
   -40.7465 -40.7461 -40.7461 -40.7460 -40.7459 -40.7459 -40.7459 -40.7459
   -40.7459 -40.7459 -40.7456 -40.7456 -40.7456 -40.7455 -40.7455 -40.7455
   -40.7447 -40.7447 -40.7447 -40.7447 -40.7447 -40.7447 -40.7442 -40.7442
   -40.7442 -40.7442 -40.7442 -40.7442 -40.7442 -40.7442 -40.7442 -40.7440
   -40.7440 -40.7440 -40.7439 -40.7439 -40.7439 -40.7434 -40.7434 -40.7433
   -40.7431 -40.7431 -40.7431 -40.7431 -40.7431 -40.7431 -40.7429 -40.7429
   -40.7429 -40.7428 -40.7428 -40.7428 -40.7427 -40.7427 -40.7427 -40.7427
   -40.7427 -40.7426 -40.7425 -40.7425 -40.7425 -40.7425 -40.7425 -40.7424
   -40.7422 -40.7422 -40.7422 -40.7422 -40.7422 -40.7422 -40.7421 -40.7421
   -40.7421 -40.7421 -40.7421 -40.7421 -40.7420 -40.7420 -40.7420 -40.7419
   -40.7419 -40.7419 -40.7419 -40.7419 -40.7418 -40.7418 -40.7418 -40.7418
   -40.7418 -40.7418 -40.7418 -40.7418 -40.7418 -40.7418 -40.7418 -40.7418
   -40.7417 -40.7417 -40.7417 -40.7417 -40.7416 -40.7416 -40.7416 -40.7416
   -40.7416 -40.7416 -40.7415 -40.7415 -40.7415 -40.7415 -40.7415 -40.7415
   -40.7414 -40.7413 -40.7413 -40.7413 -40.7413 -40.7413 -40.7413 -40.7413
   -40.7412 -40.7412 -40.7412 -40.7412 -40.7412 -40.7412 -40.7412 -40.7412
   -40.7412 -40.7411 -40.7411 -40.7411 -40.7411 -40.7411 -40.7411 -40.7410
   -40.7409 -40.7409 -40.7409 -40.7409 -40.7409 -40.7408 -40.7408 -40.7408
   -40.7407 -40.7407 -40.7407 -40.7406 -40.7406 -40.7405 -40.7405 -40.7405
   -40.7405 -40.7405 -40.7405 -40.7405 -40.7404 -40.7404 -40.7404 -40.7404
   -40.7404 -40.7404 -40.7404 -40.7403 -40.7403 -40.7403 -40.7403 -40.7403
   -40.7402 -40.7402 -40.7402 -40.7402 -40.7402 -40.7401 -40.7399 -40.7399
   -40.7399 -40.7398 -40.7398 -40.7398 -40.7395 -40.7395 -40.7395 -40.7387
   -40.7387 -40.7387 -40.7386 -40.7386 -40.7386 -40.7386 -40.7386 -40.7385
   -40.7385 -40.7385 -40.7385 -40.7384 -40.7384 -40.7384 -40.7382 -40.7382
   -40.7382 -40.7382 -40.7382 -40.7381 -40.7381 -40.7381 -40.7377 -40.7377
   -40.7376 -40.7376 -40.7376 -40.7376 -40.7376 -40.7376 -40.7376 -40.7376
   -40.7376 -40.7375 -40.7375 -40.7375 -40.7375 -40.7374 -40.7374 -40.7373
   -40.7373 -40.7373 -40.7373 -40.7373 -40.7373 -40.7373 -40.7371 -40.7371
   -40.7371 -40.7371 -40.7371 -40.7371 -40.7371 -40.7371 -40.7371 -40.7370
   -40.7370 -40.7369 -40.7369 -40.7369 -40.7369 -40.7369 -40.7369 -40.7369
   -40.7369 -40.7368 -40.7368 -40.7365 -40.7365 -40.7365 -40.7365 -40.7365
   -40.7365 -40.7364 -40.7364 -40.7364 -40.7364 -40.7364 -40.7362 -40.7362
   -40.7362 -40.7361 -40.7361 -40.7361 -40.7360 -40.7360 -40.7360 -40.7360
   -40.7358 -40.7358 -40.7358 -40.7358 -40.7358 -40.7358 -40.7357 -40.7357
   -40.7356 -40.7356 -40.7356 -40.7355 -40.7354 -40.7354 -40.7354 -40.7354
   -40.7354 -40.7353 -40.7352 -40.7352 -40.7346 -40.7346 -40.7346 -40.7346
   -40.7344 -40.7344 -40.7330 -40.7330 -40.7305 -40.7305 -40.7305 -40.7303
   -40.7303 -40.7303 -40.7298 -40.7297 -40.7297 -40.7297 -40.7297 -40.7296
   -40.7294 -40.7294 -40.7294 -13.3390 -13.3369 -13.3369 -13.3036 -13.3025
   -13.3025 -13.3004 -13.3004 -13.2991 -13.2928 -13.2927 -13.2874 -13.2759
   -13.2753 -13.2752 -13.1932 -13.1900 -13.1900 -13.1820 -13.1820 -13.1780
   -13.1767 -13.1752 -13.1752 -13.1710 -13.1710 -13.1710 -13.1688 -13.1688
   -13.1679 -13.1676 -13.1668 -13.1668 -13.1650 -13.1650 -13.1646 -13.1634
   -13.1634 -13.1621 -13.1568 -13.1559 -13.1559 -13.1553 -13.1553 -13.1542
   -13.1376 -13.1301 -13.1301 -13.1245 -13.1245 -13.1200 -13.1184 -13.1184
   -13.1169 -13.1151 -13.1151 -13.1123 -13.1123 -13.1119 -13.1113 -13.1113
   -13.1104 -13.1087 -13.1087 -13.1087 -13.1084 -13.1068 -13.1064 -13.1064
   -13.1033 -13.1033 -13.0986 -13.0986 -13.0983 -13.0956 -13.0956 -13.0955
   -13.0950 -13.0944 -13.0943 -12.9141 -12.9141 -12.9107 -12.9107 -12.9091
   -12.9086 -12.9086 -12.9085 -12.9074 -12.9068 -12.9039 -12.9039 -12.9005
   -12.9005 -12.9005 -12.9005 -12.9005 -12.8996 -12.8996 -12.8986 -12.8986
   -12.8980 -12.8980 -12.8971 -12.8966 -12.8966 -12.8962 -12.8961 -12.8961
   -12.8951 -12.8945 -12.8945 -12.8944 -12.8925 -12.8925 -12.8916 -12.8916
   -12.8916 -12.8915 -12.8910 -12.8910 -12.8909 -12.8905 -12.8905 -12.8897
   -12.8897 -12.8890 -12.8889 -12.8889 -12.8888 -12.8885 -12.8885 -12.8882
   -12.8881 -12.8876 -12.8876 -12.8874 -12.8866 -12.8866 -12.8847 -12.8847
   -12.8839 -12.8839 -12.8838 -12.8834 -12.8834 -12.8834 -12.8833 -12.8828
   -12.8827 -12.8827 -12.8826 -12.8826 -12.8824 -12.8823 -12.8823 -12.8822
   -12.8822 -12.8822 -12.8821 -12.8815 -12.8812 -12.8812 -12.8812 -12.8809
   -12.8806 -12.8806 -12.8804 -12.8804 -12.8798 -12.8793 -12.8792 -12.8792
   -12.8788 -12.8786 -12.8786 -12.8785 -12.8783 -12.8782 -12.8782 -12.8781
   -12.8781 -12.8779 -12.8779 -12.8778 -12.8777 -12.8777 -12.8776 -12.8775
   -12.8775 -12.8774 -12.8773 -12.8773 -12.8772 -12.8772 -12.8772 -12.8770
   -12.8770 -12.8765 -12.8765 -12.8764 -12.8761 -12.8761 -12.8760 -12.8757
   -12.8756 -12.8756 -12.8754 -12.8753 -12.8752 -12.8752 -12.8749 -12.8749
   -12.8744 -12.8742 -12.8742 -12.8742 -12.8740 -12.8740 -12.8738 -12.8738
   -12.8734 -12.8724 -12.8724 -12.8721 -12.8721 -12.8721 -12.8719 -12.8718
   -12.8717 -12.8717 -12.8704 -12.8701 -12.8700 -12.8697 -12.8697 -12.8694
   -12.8691 -12.8691 -12.8681  -8.3449  -8.2383  -8.2382  -8.1430  -8.1147
    -8.1147  -8.0743  -8.0486  -8.0160  -7.9543  -7.9543  -7.9269  -7.8610
    -7.8534  -7.8534  -7.8522  -7.8522  -7.8517  -7.8484  -7.8380  -7.8380
    -7.8367  -7.8367  -7.8367  -7.8324  -7.8282  -7.8259  -7.8252  -7.8252
    -7.8128  -7.8128  -7.7925  -7.7925  -7.7746  -7.7656  -7.7656  -7.7465
    -7.7273  -7.7273  -7.7240  -7.7134  -7.7134  -7.7010  -7.6906  -7.6905
    -7.6293  -7.5997  -7.5985  -7.5985  -7.5974  -7.5964  -7.5964  -7.5813
    -7.5813  -7.5809  -7.5800  -7.5788  -7.5788  -7.5773  -7.5761  -7.5761
    -7.5691  -7.5626  -7.5626  -7.5603  -7.5376  -7.5376  -7.5371  -7.5367
    -7.5367  -7.5366  -7.4933  -7.4933  -7.4931  -7.4926  -7.4919  -7.4919
    -7.4817  -7.4817  -7.4788  -7.4659  -7.4651  -7.4651  -7.4635  -7.4635
    -7.4633  -7.4627  -7.4627  -7.4600  -7.4459  -7.4449  -7.4449  -7.4435
    -7.4428  -7.4428  -3.9460  -3.9460  -3.9154  -3.8718  -3.8600  -3.8600
    -3.8510  -3.8335  -3.8335  -3.6771  -3.6208  -3.6208  -3.6052  -3.6015
    -3.6015  -3.5977  -3.5952  -3.5952  -3.5930  -3.5930  -3.5888  -3.5883
    -3.5872  -3.5872  -3.5871  -3.5868  -3.5868  -3.5855  -3.5855  -3.5842
    -3.5711  -3.5711  -3.5680  -3.3838  -3.3406  -3.3381  -3.3381  -3.3340
    -3.3334  -3.3334  -3.3279  -3.3247  -3.3247  -3.3214  -3.3212  -3.3212
    -3.1319  -3.0960   0.7368   0.7368   0.7368   0.9492   0.9497   0.9497
     0.9638   1.0119   1.0119   1.0411   1.0411   1.0529   1.1144   1.1144
     1.1156   1.1431   1.1431   1.1532   1.1672   1.1752   1.1752   1.2630
     1.2850   1.2850   1.3077   1.3077   1.3101   1.3156   1.3290   1.3290
     1.3583   1.3583   1.3609   1.3629   1.3629   1.3683   1.3970   1.4112
     1.4112   1.4715   1.4715   1.4748   1.4749   1.4754   1.4766   1.4975
     1.4984   1.4984   1.5010   1.5010   1.5047   1.5288   1.5291   1.5291
     1.5310   1.5311   1.5358   1.6016   1.6245   1.6384   1.6384   1.6594
     1.6685   1.6685   1.6834   1.6834   1.7140   1.7140   1.7339   1.7352
     1.7352   1.7354   1.7414   1.7663   1.7663   1.8673   1.8844   1.8844
     1.8853   1.8860   1.8860   1.8878   1.9158   1.9158   1.9251   1.9283
     1.9283   1.9330   1.9330   1.9673   1.9768   1.9768   1.9813   1.9855
     1.9855   2.0099   2.0099   2.0126   2.0141   2.0232   2.0244   2.0269
     2.0269   2.0291   2.0291   2.0309   2.0312   2.0313   2.0383   2.0739
     2.0739   2.1166   2.1179   2.1179   2.1206   2.1206   2.1269   2.1396
     2.1522   2.1522   2.1584   2.1663   2.1664   2.1908   2.2049   2.2257
     2.2257   2.2490   2.2757   2.2757   2.2792   2.2803   2.2810   2.2810
     2.2862   2.2862   2.2927   2.3344   2.3368   2.3368   2.3371   2.3409
     2.3409   2.3981   2.4009   2.4009   2.4579   2.4579   2.4785   2.4868
     2.4868   2.4979   2.4979   2.5066   2.5137   2.5137   2.5252   2.5325
     2.5380   2.5380   2.5415   2.5433   2.5433   2.5572   2.5572   2.5725
     2.6214   2.6332   2.6413   2.6413   2.6714   2.6716   2.6716   2.6763
     2.6890   2.6890   2.6998   2.6998   2.7029   2.7049   2.7049   2.7147
     2.7214   2.7214   2.7536   2.7536   2.7559   2.7783   2.7784   2.7827
     2.7827   2.7865   2.7865   2.7917   2.7968   2.7968   2.8007   2.8007
     2.8014   2.8042   2.8425   2.8425   2.8425   2.8839   2.9005   2.9005
     2.9197   2.9215   2.9215   2.9254   2.9267   2.9267   2.9268   2.9281
     2.9281   2.9379   2.9411   2.9413   2.9413   2.9427   2.9427   2.9446
     2.9449   2.9449   2.9478   2.9497   2.9497   2.9567   2.9569   2.9569
     2.9625   2.9625   2.9630   2.9647   2.9647   2.9657   2.9943   2.9943
     3.0074   3.0074   3.0156   3.0156   3.0170   3.0195   3.0205   3.0205
     3.0243   3.0245   3.0245   3.0341   3.0573   3.0657   3.0657   3.0717
     3.0772   3.0772   3.1618   3.1802   3.1802   3.2665   3.2807   3.2807
     3.2893   3.2905   3.2905   3.2943   3.3068   3.3068   3.3077   3.3085
     3.3118   3.3118   3.3833   3.3833   3.3839   3.3867   3.3867   3.3871
     3.3907   3.3963   3.3964   3.3973   3.3975   3.3975   3.3991   5.5340
     5.8849   6.0111   6.1293   6.2884   6.2885   6.3324   6.3374   6.3374
     6.4065   6.4694   6.4695   6.4870   6.4870   6.5087   6.5331   6.5332
     6.5333   6.5522   6.5522   6.6337   6.6580   6.6580   6.7413   6.7445
     6.7445   6.7596   6.7605   6.7605   6.7682   6.7683   6.7706   6.8405
     6.8405   6.8427   6.8577   6.8577   6.8770   6.8817   6.8817   6.9098
     6.9098   6.9175   6.9175   6.9279   6.9393   6.9633   6.9633   6.9943
     6.9943   6.9963   7.0128   7.0182   7.0182   7.0615   7.0615   7.0635
     7.0912   7.0913   7.1022   7.1502   7.1502   7.1620   7.1991   7.2003
     7.2003   7.2096   7.2097   7.2145   7.2185   7.2185   7.2196   7.2332
     7.2332   7.2369   7.2397   7.2397   7.2469   7.2551   7.2551   7.2564
     7.2870   7.2870   7.2977   7.3003   7.3003   7.3017   7.3065   7.3079
     7.3079   7.3119   7.3119   7.3129   7.3768   7.3768   7.3792   7.3892
     7.3911   7.3911   7.3942   7.3943   7.4001   7.4289   7.4289   7.4306
     7.4404   7.4407   7.4407   7.4453   7.4454   7.4460   7.4814   7.4814
     7.4842   7.4903   7.4929   7.4929   7.5099   7.5099   7.5164   7.5317
     7.5336   7.5336   7.5552   7.5615   7.5615   7.5733   7.5825   7.5825
     7.6987   7.7110   7.7110   7.7150   7.7150   7.7170   7.7289   7.7403
     7.7403   7.7442   7.7442   7.7452   8.0033   8.0078   8.0078   8.8900
     9.1201   9.1201   9.1833   9.5167   9.5167   9.5187   9.6172   9.6172
     9.6174   9.6855   9.6881   9.6881   9.7240   9.7240   9.7383   9.8596
     9.8809   9.8819   9.8819   9.8870   9.8870   9.9141   9.9455   9.9455
     9.9644   9.9814   9.9966   9.9966  10.1087  10.1087  10.1694  10.1723
    10.1723  10.1728  10.1785  10.1822  10.1822  10.2022  10.2022  10.2256
    10.2618  10.2909  10.2927  10.2927  10.3043  10.3079  10.3080  10.3359
    10.3404  10.3404  10.3731  10.3738  10.3738  10.4024  10.5885  10.5885
    10.5939  10.5939  10.5978  10.6512  10.6513  10.6827  10.7031  10.7298
    10.7298  10.7380  10.7495  10.7570  10.7586  10.7586  10.7746  10.7746
    10.7917  10.8159  10.8159  10.8589  10.8589  10.9120  10.9586  10.9586
    10.9631  10.9830  10.9830  10.9901

     occupation numbers 
     1.0000   1.0000   1.0000   1.0000   1.0000   1.0000   1.0000   1.0000
     1.0000   1.0000   1.0000   1.0000   1.0000   1.0000   1.0000   1.0000
     1.0000   1.0000   1.0000   1.0000   1.0000   1.0000   1.0000   1.0000
     1.0000   1.0000   1.0000   1.0000   1.0000   1.0000   1.0000   1.0000
     1.0000   1.0000   1.0000   1.0000   1.0000   1.0000   1.0000   1.0000
     1.0000   1.0000   1.0000   1.0000   1.0000   1.0000   1.0000   1.0000
     1.0000   1.0000   1.0000   1.0000   1.0000   1.0000   1.0000   1.0000
     1.0000   1.0000   1.0000   1.0000   1.0000   1.0000   1.0000   1.0000
     1.0000   1.0000   1.0000   1.0000   1.0000   1.0000   1.0000   1.0000
     1.0000   1.0000   1.0000   1.0000   1.0000   1.0000   1.0000   1.0000
     1.0000   1.0000   1.0000   1.0000   1.0000   1.0000   1.0000   1.0000
     1.0000   1.0000   1.0000   1.0000   1.0000   1.0000   1.0000   1.0000
     1.0000   1.0000   1.0000   1.0000   1.0000   1.0000   1.0000   1.0000
     1.0000   1.0000   1.0000   1.0000   1.0000   1.0000   1.0000   1.0000
     1.0000   1.0000   1.0000   1.0000   1.0000   1.0000   1.0000   1.0000
     1.0000   1.0000   1.0000   1.0000   1.0000   1.0000   1.0000   1.0000
     1.0000   1.0000   1.0000   1.0000   1.0000   1.0000   1.0000   1.0000
     1.0000   1.0000   1.0000   1.0000   1.0000   1.0000   1.0000   1.0000
     1.0000   1.0000   1.0000   1.0000   1.0000   1.0000   1.0000   1.0000
     1.0000   1.0000   1.0000   1.0000   1.0000   1.0000   1.0000   1.0000
     1.0000   1.0000   1.0000   1.0000   1.0000   1.0000   1.0000   1.0000
     1.0000   1.0000   1.0000   1.0000   1.0000   1.0000   1.0000   1.0000
     1.0000   1.0000   1.0000   1.0000   1.0000   1.0000   1.0000   1.0000
     1.0000   1.0000   1.0000   1.0000   1.0000   1.0000   1.0000   1.0000
     1.0000   1.0000   1.0000   1.0000   1.0000   1.0000   1.0000   1.0000
     1.0000   1.0000   1.0000   1.0000   1.0000   1.0000   1.0000   1.0000
     1.0000   1.0000   1.0000   1.0000   1.0000   1.0000   1.0000   1.0000
     1.0000   1.0000   1.0000   1.0000   1.0000   1.0000   1.0000   1.0000
     1.0000   1.0000   1.0000   1.0000   1.0000   1.0000   1.0000   1.0000
     1.0000   1.0000   1.0000   1.0000   1.0000   1.0000   1.0000   1.0000
     1.0000   1.0000   1.0000   1.0000   1.0000   1.0000   1.0000   1.0000
     1.0000   1.0000   1.0000   1.0000   1.0000   1.0000   1.0000   1.0000
     1.0000   1.0000   1.0000   1.0000   1.0000   1.0000   1.0000   1.0000
     1.0000   1.0000   1.0000   1.0000   1.0000   1.0000   1.0000   1.0000
     1.0000   1.0000   1.0000   1.0000   1.0000   1.0000   1.0000   1.0000
     1.0000   1.0000   1.0000   1.0000   1.0000   1.0000   1.0000   1.0000
     1.0000   1.0000   1.0000   1.0000   1.0000   1.0000   1.0000   1.0000
     1.0000   1.0000   1.0000   1.0000   1.0000   1.0000   1.0000   1.0000
     1.0000   1.0000   1.0000   1.0000   1.0000   1.0000   1.0000   1.0000
     1.0000   1.0000   1.0000   1.0000   1.0000   1.0000   1.0000   1.0000
     1.0000   1.0000   1.0000   1.0000   1.0000   1.0000   1.0000   1.0000
     1.0000   1.0000   1.0000   1.0000   1.0000   1.0000   1.0000   1.0000
     1.0000   1.0000   1.0000   1.0000   1.0000   1.0000   1.0000   1.0000
     1.0000   1.0000   1.0000   1.0000   1.0000   1.0000   1.0000   1.0000
     1.0000   1.0000   1.0000   1.0000   1.0000   1.0000   1.0000   1.0000
     1.0000   1.0000   1.0000   1.0000   1.0000   1.0000   1.0000   1.0000
     1.0000   1.0000   1.0000   1.0000   1.0000   1.0000   1.0000   1.0000
     1.0000   1.0000   1.0000   1.0000   1.0000   1.0000   1.0000   1.0000
     1.0000   1.0000   1.0000   1.0000   1.0000   1.0000   1.0000   1.0000
     1.0000   1.0000   1.0000   1.0000   1.0000   1.0000   1.0000   1.0000
     1.0000   1.0000   1.0000   1.0000   1.0000   1.0000   1.0000   1.0000
     1.0000   1.0000   1.0000   1.0000   1.0000   1.0000   1.0000   1.0000
     1.0000   1.0000   1.0000   1.0000   1.0000   1.0000   1.0000   1.0000
     1.0000   1.0000   1.0000   1.0000   1.0000   1.0000   1.0000   1.0000
     1.0000   1.0000   1.0000   1.0000   1.0000   1.0000   1.0000   1.0000
     1.0000   1.0000   1.0000   1.0000   1.0000   1.0000   1.0000   1.0000
     1.0000   1.0000   1.0000   1.0000   1.0000   1.0000   1.0000   1.0000
     1.0000   1.0000   1.0000   1.0000   1.0000   1.0000   1.0000   1.0000
     1.0000   1.0000   1.0000   1.0000   1.0000   1.0000   1.0000   1.0000
     1.0000   1.0000   1.0000   1.0000   1.0000   1.0000   1.0000   1.0000
     1.0000   1.0000   1.0000   1.0000   1.0000   1.0000   1.0000   1.0000
     1.0000   1.0000   1.0000   1.0000   1.0000   1.0000   1.0000   1.0000
     1.0000   1.0000   1.0000   1.0000   1.0000   1.0000   1.0000   1.0000
     1.0000   1.0000   1.0000   1.0000   1.0000   1.0000   1.0000   1.0000
     1.0000   1.0000   1.0000   1.0000   1.0000   1.0000   1.0000   1.0000
     1.0000   1.0000   1.0000   1.0000   1.0000   1.0000   1.0000   1.0000
     1.0000   1.0000   1.0000   1.0000   1.0000   1.0000   1.0000   1.0000
     1.0000   1.0000   1.0000   1.0000   1.0000   1.0000   1.0000   1.0000
     1.0000   1.0000   1.0000   1.0000   1.0000   1.0000   1.0000   1.0000
     1.0000   1.0000   1.0000   1.0000   1.0000   1.0000   1.0000   1.0000
     1.0000   1.0000   1.0000   1.0000   1.0000   1.0000   1.0000   1.0000
     1.0000   1.0000   1.0000   1.0000   1.0000   1.0000   1.0000   1.0000
     1.0000   1.0000   1.0000   1.0000   1.0000   1.0000   1.0000   1.0000
     1.0000   1.0000   1.0000   1.0000   1.0000   1.0000   1.0000   1.0000
     1.0000   1.0000   1.0000   1.0000   1.0000   1.0000   1.0000   1.0000
     1.0000   1.0000   1.0000   1.0000   1.0000   1.0000   1.0000   1.0000
     1.0000   1.0000   1.0000   1.0000   1.0000   1.0000   1.0000   1.0000
     1.0000   1.0000   1.0000   1.0000   1.0000   1.0000   1.0000   1.0000
     1.0000   1.0000   1.0000   1.0000   1.0000   1.0000   1.0000   1.0000
     1.0000   1.0000   1.0000   1.0000   1.0000   1.0000   1.0000   1.0000
     1.0000   1.0000   1.0000   1.0000   1.0000   1.0000   1.0000   1.0000
     1.0000   1.0000   1.0000   1.0000   1.0000   1.0000   1.0000   1.0000
     1.0000   1.0000   1.0000   1.0000   1.0000   1.0000   1.0000   1.0000
     1.0000   1.0000   1.0000   1.0000   1.0000   1.0000   1.0000   1.0000
     1.0000   1.0000   1.0000   1.0000   1.0000   1.0000   1.0000   1.0000
     1.0000   1.0000   1.0000   1.0000   1.0000   1.0000   1.0000   1.0000
     1.0000   1.0000   1.0000   1.0000   1.0000   1.0000   1.0000   1.0000
     1.0000   1.0000   1.0000   1.0000   1.0000   1.0000   1.0000   1.0000
     1.0000   1.0000   1.0000   1.0000   1.0000   1.0000   1.0000   1.0000
     1.0000   1.0000   1.0000   1.0000   1.0000   1.0000   1.0000   1.0000
     1.0000   1.0000   1.0000   1.0000   1.0000   1.0000   1.0000   1.0000
     1.0000   1.0000   1.0000   1.0000   1.0000   1.0000   1.0000   1.0000
     1.0000   1.0000   1.0000   1.0000   1.0000   1.0000   1.0000   1.0000
     1.0000   1.0000   1.0000   1.0000   1.0000   1.0000   1.0000   1.0000
     1.0000   1.0000   1.0000   1.0000   1.0000   1.0000   1.0000   1.0000
     1.0000   1.0000   1.0000   1.0000   1.0000   1.0000   1.0000   1.0000
     1.0000   1.0000   1.0000   1.0000   1.0000   1.0000   1.0000   1.0000
     1.0000   1.0000   1.0000   1.0000   1.0000   1.0000   1.0000   1.0000
     1.0000   1.0000   1.0000   1.0000   1.0000   1.0000   1.0000   1.0000
     1.0000   1.0000   1.0000   1.0000   1.0000   1.0000   1.0000   1.0000
     1.0000   1.0000   1.0000   1.0000   1.0000   1.0000   1.0000   1.0000
     1.0000   1.0000   1.0000   1.0000   1.0000   1.0000   1.0000   1.0000
     1.0000   1.0000   1.0000   1.0000   1.0000   1.0000   1.0000   1.0000
     1.0000   1.0000   1.0000   1.0000   1.0000   1.0000   1.0000   1.0000
     1.0000   1.0000   1.0000   1.0000   1.0000   1.0000   1.0000   1.0000
     1.0000   1.0000   1.0000   1.0000   1.0000   1.0000   1.0000   1.0000
     1.0000   1.0000   1.0000   1.0000   1.0000   1.0000   1.0000   1.0000
     1.0000   1.0000   1.0000   1.0000   1.0000   1.0000   1.0000   1.0000
     1.0000   1.0000   1.0000   1.0000   1.0000   1.0000   1.0000   1.0000
     1.0000   1.0000   1.0000   1.0000   1.0000   1.0000   1.0000   1.0000
     1.0000   1.0000   1.0000   1.0000   1.0000   1.0000   1.0000   1.0000
     1.0000   1.0000   1.0000   1.0000   1.0000   1.0000   1.0000   1.0000
     1.0000   1.0000   1.0000   1.0000   1.0000   1.0000   1.0000   1.0000
     1.0000   1.0000   1.0000   1.0000   1.0000   1.0000   1.0000   1.0000
     1.0000   1.0000   1.0000   1.0000   1.0000   1.0000   1.0000   1.0000
     1.0000   1.0000   1.0000   1.0000   1.0000   1.0000   1.0000   1.0000
     1.0000   1.0000   1.0000   1.0000   1.0000   1.0000   1.0000   1.0000
     1.0000   1.0000   1.0000   1.0000   1.0000   1.0000   1.0000   1.0000
     1.0000   1.0000   1.0000   1.0000   1.0000   1.0000   1.0000   1.0000
     1.0000   1.0000   1.0000   1.0000   1.0000   1.0000   1.0000   1.0000
     1.0000   1.0000   1.0000   1.0000   1.0000   1.0000   1.0000   1.0000
     1.0000   1.0000   1.0000   1.0000   1.0000   1.0000   1.0000   1.0000
     1.0000   1.0000   1.0000   1.0000   1.0000   1.0000   1.0000   1.0000
     1.0000   1.0000   1.0000   1.0000   1.0000   1.0000   1.0000   1.0000
     1.0000   1.0000   1.0000   1.0000   1.0000   1.0000   1.0000   1.0000
     1.0000   1.0000   1.0000   1.0000   1.0000   1.0000   1.0000   1.0000
     1.0000   1.0000   1.0000   1.0000   1.0000   1.0000   1.0000   1.0000
     1.0000   1.0000   1.0000   1.0000   1.0000   1.0000   1.0000   1.0000
     1.0000   1.0000   1.0000   1.0000   1.0000   1.0000   1.0000   1.0000
     1.0000   1.0000   1.0000   1.0000   1.0000   1.0000   1.0000   1.0000
     1.0000   1.0000   1.0000   1.0000   1.0000   1.0000   1.0000   1.0000
     1.0000   1.0000   1.0000   1.0000   1.0000   1.0000   1.0000   1.0000
     1.0000   1.0000   1.0000   1.0000   1.0000   1.0000   1.0000   1.0000
     1.0000   1.0000   1.0000   1.0000   1.0000   1.0000   1.0000   1.0000
     1.0000   1.0000   1.0000   1.0000   1.0000   1.0000   1.0000   1.0000
     1.0000   1.0000   1.0000   1.0000   1.0000   1.0000   1.0000   1.0000
     1.0000   1.0000   1.0000   1.0000   1.0000   1.0000   1.0000   1.0000
     1.0000   1.0000   1.0000   1.0000   1.0000   1.0000   1.0000   1.0000
     1.0000   1.0000   1.0000   1.0000   1.0000   1.0000   1.0000   1.0000
     1.0000   1.0000   1.0000   1.0000   1.0000   1.0000   1.0000   1.0000
     1.0000   1.0000   1.0000   1.0000   1.0000   1.0000   1.0000   1.0000
     1.0000   1.0000   1.0000   1.0000   1.0000   1.0000   1.0000   1.0000
     1.0000   1.0000   1.0000   1.0000   1.0000   1.0000   1.0000   0.0000
     0.0000   0.0000   0.0000   0.0000   0.0000   0.0000   0.0000   0.0000
     0.0000   0.0000   0.0000   0.0000   0.0000   0.0000   0.0000   0.0000
     0.0000   0.0000   0.0000   0.0000   0.0000   0.0000   0.0000   0.0000
     0.0000   0.0000   0.0000   0.0000   0.0000   0.0000   0.0000   0.0000
     0.0000   0.0000   0.0000   0.0000   0.0000   0.0000   0.0000   0.0000
     0.0000   0.0000   0.0000   0.0000   0.0000   0.0000   0.0000   0.0000
     0.0000   0.0000   0.0000   0.0000   0.0000   0.0000   0.0000   0.0000
     0.0000   0.0000   0.0000   0.0000   0.0000   0.0000   0.0000   0.0000
     0.0000   0.0000   0.0000   0.0000   0.0000   0.0000   0.0000   0.0000
     0.0000   0.0000   0.0000   0.0000   0.0000   0.0000   0.0000   0.0000
     0.0000   0.0000   0.0000   0.0000   0.0000   0.0000   0.0000   0.0000
     0.0000   0.0000   0.0000   0.0000   0.0000   0.0000   0.0000   0.0000
     0.0000   0.0000   0.0000   0.0000   0.0000   0.0000   0.0000   0.0000
     0.0000   0.0000   0.0000   0.0000   0.0000   0.0000   0.0000   0.0000
     0.0000   0.0000   0.0000   0.0000   0.0000   0.0000   0.0000   0.0000
     0.0000   0.0000   0.0000   0.0000   0.0000   0.0000   0.0000   0.0000
     0.0000   0.0000   0.0000   0.0000   0.0000   0.0000   0.0000   0.0000
     0.0000   0.0000   0.0000   0.0000   0.0000   0.0000   0.0000   0.0000
     0.0000   0.0000   0.0000   0.0000   0.0000   0.0000   0.0000   0.0000
     0.0000   0.0000   0.0000   0.0000   0.0000   0.0000   0.0000   0.0000
     0.0000   0.0000   0.0000   0.0000   0.0000   0.0000   0.0000   0.0000
     0.0000   0.0000   0.0000   0.0000   0.0000   0.0000   0.0000   0.0000
     0.0000   0.0000   0.0000   0.0000   0.0000   0.0000   0.0000   0.0000
     0.0000   0.0000   0.0000   0.0000   0.0000   0.0000   0.0000   0.0000
     0.0000   0.0000   0.0000   0.0000   0.0000   0.0000   0.0000   0.0000
     0.0000   0.0000   0.0000   0.0000   0.0000   0.0000   0.0000   0.0000
     0.0000   0.0000   0.0000   0.0000   0.0000   0.0000   0.0000   0.0000
     0.0000   0.0000   0.0000   0.0000   0.0000   0.0000   0.0000   0.0000
     0.0000   0.0000   0.0000   0.0000

     the Fermi energy is     4.6109 ev

!    total energy              =  -96571.02768267 Ry
     total all-electron energy =  -3359210.587924 Ry
     estimated scf accuracy    <       0.00000003 Ry
     smearing contrib. (-TS)   =      -0.00000000 Ry
     internal energy E=F+TS    =  -96571.02768267 Ry

     The total energy is F=E-TS. E is the sum of the following terms:
     one-electron contribution =  -17950.41648488 Ry
     hartree contribution      =   10014.63881346 Ry
     xc contribution           =   -6750.25511330 Ry
     ewald contribution        =  -14600.66903322 Ry
     one-center paw contrib.   =  -67284.32586474 Ry
      -> PAW hartree energy AE =      95.89030000 Ry
      -> PAW hartree energy PS =     -96.12690757 Ry
      -> PAW xc energy AE      =    -798.42869596 Ry
      -> PAW xc energy PS      =      33.30881277 Ry
      -> total E_H with PAW    =   10014.40220589 Ry
      -> total E_XC with PAW   =   -7515.37499649 Ry

     convergence has been achieved in   1 iterations


     -----------------------------------------------
     Non-local corr. energy    =      68.48529851 Ry
     -----------------------------------------------


     Forces acting on atoms (cartesian axes, Ry/au):

     atom    1 type  1   force =    -0.00000043   -0.00004310    0.00001154
     atom    2 type  1   force =    -0.00000072   -0.00031184    0.00026252
     atom    3 type  1   force =    -0.00000012    0.00006726    0.00029190
     atom    4 type  1   force =    -0.00007516   -0.00003996   -0.00020920
     atom    5 type  1   force =    -0.00048187    0.00045132   -0.00060177
     atom    6 type  1   force =     0.00012218    0.00011535    0.00046442
     atom    7 type  1   force =    -0.00007252   -0.00004506   -0.00020865
     atom    8 type  1   force =     0.00014892   -0.00064317   -0.00060220
     atom    9 type  1   force =     0.00016055    0.00004776    0.00046448
     atom   10 type  1   force =    -0.00003795    0.00002124    0.00001200
     atom   11 type  1   force =    -0.00027795    0.00016112    0.00026039
     atom   12 type  1   force =     0.00005761   -0.00003325    0.00029230
     atom   13 type  1   force =     0.00006368    0.00003690   -0.00012796
     atom   14 type  1   force =    -0.00037911   -0.00021893   -0.00068305
     atom   15 type  1   force =    -0.00002927   -0.00001644    0.00044352
     atom   16 type  1   force =     0.00007450   -0.00003979   -0.00020964
     atom   17 type  1   force =     0.00048111    0.00045146   -0.00060217
     atom   18 type  1   force =    -0.00012169    0.00011557    0.00046411
     atom   19 type  1   force =    -0.00000010    0.00000032   -0.00025833
     atom   20 type  1   force =     0.00000217   -0.00000158   -0.00045178
     atom   21 type  1   force =     0.00000118   -0.00000094    0.00051572
     atom   22 type  1   force =     0.00000281    0.00008530   -0.00020863
     atom   23 type  1   force =     0.00063310    0.00019178   -0.00060203
     atom   24 type  1   force =     0.00003954   -0.00016325    0.00046455
     atom   25 type  1   force =     0.00000006    0.00018677   -0.00033824
     atom   26 type  1   force =     0.00000074    0.00049904    0.00003825
     atom   27 type  1   force =     0.00000020   -0.00019038    0.00034481
     atom   28 type  1   force =     0.00016116   -0.00009310   -0.00033866
     atom   29 type  1   force =     0.00043579   -0.00025024    0.00003879
     atom   30 type  1   force =    -0.00016518    0.00009601    0.00034458
     atom   31 type  1   force =     0.00007184   -0.00004458   -0.00020986
     atom   32 type  1   force =    -0.00014966   -0.00063962   -0.00060086
     atom   33 type  1   force =    -0.00016072    0.00004840    0.00046381
     atom   34 type  1   force =    -0.00000263    0.00008536   -0.00020924
     atom   35 type  1   force =    -0.00063049    0.00019007   -0.00060041
     atom   36 type  1   force =    -0.00003853   -0.00016391    0.00046429
     atom   37 type  1   force =    -0.00006411    0.00003696   -0.00012813
     atom   38 type  1   force =     0.00037824   -0.00021882   -0.00068279
     atom   39 type  1   force =     0.00002897   -0.00001730    0.00044372
     atom   40 type  1   force =    -0.00016142   -0.00009320   -0.00033850
     atom   41 type  1   force =    -0.00043429   -0.00025025    0.00003857
     atom   42 type  1   force =     0.00016456    0.00009549    0.00034479
     atom   43 type  1   force =    -0.00000020   -0.00007385   -0.00012875
     atom   44 type  1   force =    -0.00000039    0.00043898   -0.00068165
     atom   45 type  1   force =    -0.00000093    0.00003401    0.00044361
     atom   46 type  1   force =     0.00003753    0.00002144    0.00001138
     atom   47 type  1   force =     0.00026702    0.00015542    0.00026731
     atom   48 type  1   force =    -0.00005870   -0.00003370    0.00029186
     atom   49 type  2   force =    -0.00000118    0.00000061   -0.00017338
     atom   50 type  2   force =    -0.00000051   -0.00000003    0.00005701
     atom   51 type  2   force =     0.00011706    0.00007031    0.00004310
     atom   52 type  2   force =     0.00006375   -0.00013005   -0.00038127
     atom   53 type  2   force =     0.00006453    0.00000505    0.00002718
     atom   54 type  2   force =     0.00024302    0.00014339    0.00042549
     atom   55 type  2   force =    -0.00013710   -0.00007954   -0.00029327
     atom   56 type  2   force =     0.00006801    0.00003855    0.00004807
     atom   57 type  2   force =     0.00012342    0.00006326    0.00004393
     atom   58 type  2   force =    -0.00008048    0.00012080   -0.00038146
     atom   59 type  2   force =     0.00003755    0.00005321    0.00002679
     atom   60 type  2   force =     0.00000632   -0.00013773    0.00004389
     atom   61 type  2   force =    -0.00014457    0.00000964   -0.00038118
     atom   62 type  2   force =    -0.00002759   -0.00005947    0.00002713
     atom   63 type  2   force =    -0.00011870    0.00007089    0.00004293
     atom   64 type  2   force =    -0.00006485   -0.00012952   -0.00038137
     atom   65 type  2   force =    -0.00006545    0.00000514    0.00002724
     atom   66 type  2   force =    -0.00000069    0.00013098    0.00010642
     atom   67 type  2   force =    -0.00000006   -0.00007059   -0.00016560
     atom   68 type  2   force =    -0.00000035    0.00002941    0.00003163
     atom   69 type  2   force =     0.00011351   -0.00006581    0.00010604
     atom   70 type  2   force =    -0.00006193    0.00003614   -0.00016618
     atom   71 type  2   force =     0.00002584   -0.00001488    0.00003159
     atom   72 type  2   force =    -0.00000087   -0.00027572    0.00042134
     atom   73 type  2   force =     0.00000071    0.00015873   -0.00029405
     atom   74 type  2   force =     0.00000083   -0.00007778    0.00004795
     atom   75 type  2   force =     0.00009961    0.00005702   -0.00001800
     atom   76 type  2   force =    -0.00000868   -0.00000433   -0.00009617
     atom   77 type  2   force =    -0.00007172   -0.00004193    0.00006719
     atom   78 type  2   force =    -0.00024359    0.00014274    0.00042303
     atom   79 type  2   force =     0.00013696   -0.00007849   -0.00029321
     atom   80 type  2   force =    -0.00006780    0.00003945    0.00004760
     atom   81 type  2   force =    -0.00011390   -0.00006535    0.00010541
     atom   82 type  2   force =     0.00006190    0.00003628   -0.00016527
     atom   83 type  2   force =    -0.00002542   -0.00001427    0.00003137
     atom   84 type  2   force =    -0.00000410   -0.00013752    0.00004317
     atom   85 type  2   force =     0.00014454    0.00001002   -0.00038024
     atom   86 type  2   force =     0.00002810   -0.00005882    0.00002723
     atom   87 type  2   force =    -0.00009724    0.00005640   -0.00001728
     atom   88 type  2   force =     0.00000910   -0.00000501   -0.00009605
     atom   89 type  2   force =     0.00007333   -0.00004216    0.00006739
     atom   90 type  2   force =     0.00000074   -0.00011579   -0.00001585
     atom   91 type  2   force =    -0.00000028    0.00001058   -0.00009595
     atom   92 type  2   force =     0.00000063    0.00008240    0.00006692
     atom   93 type  2   force =    -0.00012324    0.00006623    0.00004313
     atom   94 type  2   force =     0.00007982    0.00012118   -0.00038079
     atom   95 type  2   force =    -0.00003737    0.00005409    0.00002672
     atom   96 type  2   force =     0.00002026   -0.00001234    0.00012529
     atom   97 type  2   force =    -0.00010207    0.00005680    0.00006272
     atom   98 type  2   force =     0.00001525   -0.00000849   -0.00011399
     atom   99 type  2   force =     0.00013591    0.00004859    0.00007309
     atom  100 type  2   force =     0.00025332    0.00018967    0.00043777
     atom  101 type  2   force =    -0.00006223    0.00000914   -0.00012363
     atom  102 type  2   force =     0.00011004    0.00009276    0.00007245
     atom  103 type  2   force =     0.00029091    0.00012431    0.00043799
     atom  104 type  2   force =    -0.00002372   -0.00005802   -0.00012366
     atom  105 type  2   force =    -0.00000082    0.00002364    0.00012478
     atom  106 type  2   force =    -0.00000074   -0.00012679    0.00006228
     atom  107 type  2   force =    -0.00000088    0.00001834   -0.00011423
     atom  108 type  2   force =    -0.00002077   -0.00001161    0.00012477
     atom  109 type  2   force =     0.00010349    0.00005828    0.00006049
     atom  110 type  2   force =    -0.00001569   -0.00000777   -0.00011468
     atom  111 type  2   force =     0.00000018    0.00004176    0.00009490
     atom  112 type  2   force =     0.00000257    0.00032036    0.00029309
     atom  113 type  2   force =     0.00000038   -0.00011964   -0.00037390
     atom  114 type  2   force =    -0.00000390   -0.00000298    0.00009797
     atom  115 type  2   force =     0.00040918    0.00023831    0.00079063
     atom  116 type  2   force =    -0.00017807   -0.00010315   -0.00031120
     atom  117 type  2   force =     0.00003624   -0.00002060    0.00009472
     atom  118 type  2   force =     0.00028093   -0.00017033    0.00029802
     atom  119 type  2   force =    -0.00010392    0.00006059   -0.00037429
     atom  120 type  2   force =    -0.00002480   -0.00014165    0.00007258
     atom  121 type  2   force =     0.00003755   -0.00031320    0.00043771
     atom  122 type  2   force =     0.00003899    0.00004955   -0.00012445
     atom  123 type  2   force =    -0.00013624    0.00004991    0.00007226
     atom  124 type  2   force =    -0.00025344    0.00019186    0.00043735
     atom  125 type  2   force =     0.00006219    0.00000962   -0.00012407
     atom  126 type  2   force =     0.00000459   -0.00000245    0.00009764
     atom  127 type  2   force =    -0.00040796    0.00023791    0.00078932
     atom  128 type  2   force =     0.00017919   -0.00010331   -0.00031098
     atom  129 type  2   force =     0.00000074    0.00000570    0.00009784
     atom  130 type  2   force =     0.00000014   -0.00046943    0.00078977
     atom  131 type  2   force =     0.00000036    0.00020481   -0.00031172
     atom  132 type  2   force =     0.00002547   -0.00014213    0.00007281
     atom  133 type  2   force =    -0.00003638   -0.00031336    0.00043719
     atom  134 type  2   force =    -0.00003930    0.00004887   -0.00012399
     atom  135 type  2   force =    -0.00000051    0.00000031   -0.00004320
     atom  136 type  2   force =    -0.00000064    0.00000092   -0.00094156
     atom  137 type  2   force =    -0.00000082    0.00000008   -0.00011392
     atom  138 type  2   force =    -0.00011128    0.00009322    0.00007202
     atom  139 type  2   force =    -0.00029250    0.00012435    0.00043706
     atom  140 type  2   force =     0.00002262   -0.00005816   -0.00012355
     atom  141 type  2   force =    -0.00003622   -0.00002070    0.00009506
     atom  142 type  2   force =    -0.00027224   -0.00016826    0.00029015
     atom  143 type  2   force =     0.00010367    0.00005999   -0.00037369
     The non-local contrib.  to forces
     atom    1 type  1   force =     0.00000608    0.00060670   -0.00326914
     atom    2 type  1   force =     0.00000992    0.13990643    0.09099329
     atom    3 type  1   force =     0.00001048   -0.00141130    0.00407533
     atom    4 type  1   force =     0.00164432    0.00080756   -0.00299571
     atom    5 type  1   force =    -0.02591741    0.01756921   -0.01743557
     atom    6 type  1   force =    -0.00178069   -0.00161357    0.00307411
     atom    7 type  1   force =     0.00155041    0.00096282   -0.00300123
     atom    8 type  1   force =     0.00230270   -0.03127631   -0.01740285
     atom    9 type  1   force =    -0.00225774   -0.00079684    0.00307698
     atom   10 type  1   force =     0.00057657   -0.00034780   -0.00326715
     atom   11 type  1   force =     0.12116000   -0.06999695    0.09093286
     atom   12 type  1   force =    -0.00118719    0.00065995    0.00407132
     atom   13 type  1   force =     0.00713407    0.00408365   -0.01039441
     atom   14 type  1   force =     0.00956108    0.00548076    0.00815244
     atom   15 type  1   force =     0.00015400    0.00006022    0.00246568
     atom   16 type  1   force =    -0.00161968    0.00080873   -0.00299759
     atom   17 type  1   force =     0.02593075    0.01757296   -0.01743058
     atom   18 type  1   force =     0.00180102   -0.00160932    0.00307197
     atom   19 type  1   force =     0.00001144   -0.00002987   -0.00177781
     atom   20 type  1   force =     0.00000548   -0.00001547   -0.00980838
     atom   21 type  1   force =     0.00000424   -0.00001130    0.01062229
     atom   22 type  1   force =    -0.00008034   -0.00186689   -0.00300224
     atom   23 type  1   force =     0.02821913    0.01361087   -0.01743277
     atom   24 type  1   force =    -0.00046692    0.00232636    0.00307905
     atom   25 type  1   force =     0.00001083   -0.00148704   -0.00046754
     atom   26 type  1   force =     0.00001313    0.01083444    0.00442721
     atom   27 type  1   force =     0.00000900    0.00004848    0.00237347
     atom   28 type  1   force =    -0.00123716    0.00069856   -0.00047268
     atom   29 type  1   force =     0.00939178   -0.00545798    0.00440845
     atom   30 type  1   force =     0.00007205   -0.00006667    0.00237141
     atom   31 type  1   force =    -0.00152752    0.00096211   -0.00300016
     atom   32 type  1   force =    -0.00228158   -0.03127505   -0.01741056
     atom   33 type  1   force =     0.00227428   -0.00079640    0.00307460
     atom   34 type  1   force =     0.00010266   -0.00186917   -0.00300013
     atom   35 type  1   force =    -0.02819988    0.01361852   -0.01744448
     atom   36 type  1   force =     0.00048813    0.00232441    0.00307813
     atom   37 type  1   force =    -0.00712476    0.00409059   -0.01040935
     atom   38 type  1   force =    -0.00954003    0.00548007    0.00814917
     atom   39 type  1   force =    -0.00013587    0.00005848    0.00246746
     atom   40 type  1   force =     0.00126263    0.00070005   -0.00046801
     atom   41 type  1   force =    -0.00937608   -0.00546447    0.00441178
     atom   42 type  1   force =    -0.00005588   -0.00006859    0.00237272
     atom   43 type  1   force =     0.00001148   -0.00821694   -0.01035696
     atom   44 type  1   force =     0.00000993   -0.01107097    0.00814472
     atom   45 type  1   force =     0.00000822   -0.00019897    0.00246414
     atom   46 type  1   force =    -0.00055569   -0.00034278   -0.00326719
     atom   47 type  1   force =    -0.12114759   -0.06999917    0.09095409
     atom   48 type  1   force =     0.00120555    0.00065785    0.00407385
     atom   49 type  2   force =    -0.00000631    0.00001195    0.23950612
     atom   50 type  2   force =    -0.00000207    0.00000839    0.24922494
     atom   51 type  2   force =     0.00984972    0.00431388    0.25569922
     atom   52 type  2   force =     0.00020035    0.00169314    0.23714948
     atom   53 type  2   force =     0.00015641    0.00089880    0.24833460
     atom   54 type  2   force =     0.01735076    0.01003701    0.26992254
     atom   55 type  2   force =     0.00026340    0.00016665    0.23862905
     atom   56 type  2   force =     0.00075393    0.00045058    0.24823122
     atom   57 type  2   force =     0.00865054    0.00640114    0.25570237
     atom   58 type  2   force =     0.00155625   -0.00064593    0.23714976
     atom   59 type  2   force =     0.00084020   -0.00029309    0.24833541
     atom   60 type  2   force =    -0.00120934   -0.01067926    0.25570190
     atom   61 type  2   force =     0.00134635   -0.00101518    0.23714904
     atom   62 type  2   force =     0.00067783   -0.00057468    0.24833783
     atom   63 type  2   force =    -0.00986710    0.00430604    0.25570084
     atom   64 type  2   force =    -0.00021529    0.00169121    0.23715005
     atom   65 type  2   force =    -0.00016519    0.00089442    0.24833471
     atom   66 type  2   force =    -0.00001184    0.00479666    0.25390107
     atom   67 type  2   force =    -0.00000828   -0.00113254    0.23098339
     atom   68 type  2   force =    -0.00000902   -0.00055146    0.24930582
     atom   69 type  2   force =     0.00414365   -0.00239206    0.25390819
     atom   70 type  2   force =    -0.00099339    0.00057974    0.23098748
     atom   71 type  2   force =    -0.00049618    0.00029301    0.24930863
     atom   72 type  2   force =    -0.00000337   -0.02002885    0.26991632
     atom   73 type  2   force =    -0.00000128   -0.00029967    0.23862572
     atom   74 type  2   force =    -0.00000481   -0.00086284    0.24823258
     atom   75 type  2   force =     0.00013814    0.00009076    0.25850547
     atom   76 type  2   force =     0.00034927    0.00021551    0.23915582
     atom   77 type  2   force =    -0.00127053   -0.00071764    0.24920518
     atom   78 type  2   force =    -0.01735644    0.01003647    0.26992365
     atom   79 type  2   force =    -0.00027005    0.00016879    0.23862812
     atom   80 type  2   force =    -0.00076257    0.00044984    0.24823143
     atom   81 type  2   force =    -0.00415570   -0.00238590    0.25390214
     atom   82 type  2   force =     0.00098361    0.00058420    0.23098591
     atom   83 type  2   force =     0.00048145    0.00029574    0.24930712
     atom   84 type  2   force =     0.00120726   -0.01067123    0.25569872
     atom   85 type  2   force =    -0.00135578   -0.00100837    0.23714949
     atom   86 type  2   force =    -0.00068574   -0.00057165    0.24833711
     atom   87 type  2   force =    -0.00014084    0.00009903    0.25850581
     atom   88 type  2   force =    -0.00035062    0.00021598    0.23915651
     atom   89 type  2   force =     0.00126200   -0.00071424    0.24920544
     atom   90 type  2   force =     0.00000576   -0.00013475    0.25850583
     atom   91 type  2   force =    -0.00000038   -0.00039017    0.23915460
     atom   92 type  2   force =    -0.00000157    0.00147596    0.24920295
     atom   93 type  2   force =    -0.00864736    0.00641299    0.25570060
     atom   94 type  2   force =    -0.00156124   -0.00064318    0.23715068
     atom   95 type  2   force =    -0.00084321   -0.00029179    0.24833449
     atom   96 type  2   force =     0.00556554   -0.00320120   -0.22630667
     atom   97 type  2   force =    -0.01037797    0.00601474   -0.24077510
     atom   98 type  2   force =     0.00096485   -0.00054398   -0.24867054
[...]
              0.135505054141895E+02
             -0.758518669301072E+02
              0.614784914380065E+03
             -0.353286789363680E+02
              0.132287429691140E+03
              0.443333369844372E+03
              0.972392045571346E+02
             -0.349883905536006E+03
             -0.509923805034533E+03
              0.533142833000238E+01
             -0.573525645675660E+03
              0.194604479052550E+03
             -0.116097333986458E+03
             -0.269423165959188E+03
              0.242211934527826E+03
              0.928529653910127E+02
              0.218470336321700E+03
              0.193542616501368E+02
              0.348019755971199E+03
             -0.568654660052188E+03
             -0.521453716714877E+02
             -0.495991426155296E+03
              0.893927252836070E+02
              0.268641553370592E+03
             -0.496248292709388E+02
             -0.186842223098554E+03
              0.399601419129610E+03
             -0.185208794684306E+03
              0.130196719906428E+03
             -0.116169185406327E+03
              0.285261549173819E+03
              0.344548167975896E+03
             -0.148615142465207E+03
              0.296343332315929E+03
              0.113749631986276E+03
             -0.305612921215565E+03
             -0.182846434849127E+03
              0.492865924686535E+03
              0.233640842055854E+03
             -0.225468424221360E+02
             -0.663374455818393E+02
              0.724452128435725E+03
              0.434469691623346E+03
              0.159235689316834E+03
             -0.464272494803914E+03
              0.727130285990617E+03
             -0.328793548335551E+03
             -0.407704547116527E+03
             -0.631571191429783E+03
              0.304379642785517E+03
             -0.577819256266633E+03
              0.250537037715666E+03
              0.411347294022055E+03
              0.304838691036337E+03
              0.646532593892018E+02
              0.181818425585981E+03
             -0.455399181155463E+03
             -0.161914167591340E+03
             -0.146947138528684E+03
              0.220017997267244E+03
              0.491170306319908E+03
              0.484162732696701E+03
              0.370587903256202E+03
             -0.915434472082425E+02
              0.131611839870408E+03
              0.184630230461144E+02
             -0.145539970348953E+03
              0.217119845196359E+03
              0.207982777259842E+03
             -0.296595304854143E+03
             -0.300293915260660E+03
             -0.137710593031557E+03
              0.318951357257310E+03
              0.162271716982745E+03
             -0.217171688993171E+03
             -0.378368498707548E+03
             -0.519885427618344E+03
              0.108437960239000E+02
              0.148021144357483E+03
             -0.201126938302216E+03
              0.738487950392216E+03
              0.697959813242278E+01
             -0.857902014524811E+03
              0.215143382506796E+03
              0.354031467488731E+03
             -0.128581561666280E+03
              0.135552316588356E+02
             -0.193973613427218E+03
              0.329440689930702E+03
              0.162569366053968E+03
             -0.433496608216637E+03
              0.514771796624642E+03
              0.351258011581824E+02
             -0.205559405812981E+03
             -0.253429227522508E+03
              0.103202733791734E+04
              0.461304057192204E+03
             -0.115736925401805E+03
              0.254446747708784E+03
             -0.502963727105368E+03
             -0.109136774918867E+03
             -0.446995209371263E+03
              0.172634066967950E+03
              0.320832506704951E+03
              0.352903964263834E+03
             -0.154675575937848E+03
              0.268143289815489E+02
              0.439718370111814E+03
              0.140603949358796E+03
              0.262176206314349E+03
              0.106643358990541E+03
             -0.590090625611667E+02
              0.110801136848022E+01
             -0.817203957522263E+02
              0.911060450737045E+02
              0.306063648691766E+02
             -0.399402403106946E+03
              0.611955489919581E+03
              0.235506418722118E+03
             -0.433646536541799E+03
             -0.318677626889747E+03
             -0.449836789624727E+03
             -0.194980003324227E+03
             -0.141412221669929E+03
             -0.355815150829570E+03
             -0.351255938526530E+03
              0.422824487250891E+03
              0.336579202144542E+03
             -0.465015054096157E+02
              0.505259905583639E+03
              0.728118336550542E+02
             -0.812008157750361E+03
              0.436025360115892E+03
              0.743887107208409E+02
              0.342383835589669E+03
              0.462799487428176E+02
              0.386013420844663E+02
              0.697700711010179E+02
              0.184978714192934E+03
             -0.338807033938565E+03
             -0.159848570647469E+03
             -0.320449378174093E+03
             -0.265132352380858E+03
              0.110531598869877E+03
             -0.294196719462776E+03
              0.141725175504601E+03
              0.194615737720307E+03
             -0.180342994013192E+03
             -0.115194812196387E+03
              0.762465898049209E+01
              0.504811824960902E+03
              0.763513894522521E+02
              0.484574319631196E+03
              0.173739969275381E+03
             -0.640589838673056E+03
             -0.212443353540707E+03
              0.218440454296648E+03
              0.504086214681111E+03
              0.831572315955106E+02
              0.207214036702125E+03
              0.463862431007724E+03
             -0.268572113441129E+03
             -0.412309799974102E+03
              0.571730541741846E+03
              0.333235122024644E+02
             -0.604255206783517E+03
              0.220787857349166E+03
              0.382485797233735E+03
             -0.978470695812912E+02
             -0.398378295884574E+03
              0.830458647913883E+02
              0.172075993998988E+02
             -0.193556499193149E+03
              0.740363385107648E+02
             -0.644666225377946E+02
              0.899064263726740E+03
              0.261757388620926E+03
             -0.380792182971943E+03
              0.112464812551833E+03
              0.547398473321942E+03
             -0.370092976012748E+03
             -0.963628702448816E+02
             -0.350001748365155E+03
              0.280501157126697E+03
              0.886605874457532E+02
              0.185468567413671E+03
              0.336022536542955E+02
              0.635865694050522E+03
             -0.361697638943240E+03
             -0.285591951385721E+03
             -0.275722879214653E+03
              0.242250810601209E+03
              0.631892741875225E+03
             -0.105649467416474E+03
              0.258548822082975E+03
             -0.367225666732061E+03
              0.705411396576460E+02
             -0.117536267749704E+03
              0.258291974120007E+02
             -0.142409207435785E+03
             -0.116056242331207E+03
             -0.114055884616569E+03
              0.938896282987489E+02
              0.183556133648005E+03
             -0.400437888590945E+03
              0.296547007134757E+03
             -0.477278887711847E+03
              0.360086173772960E+03
             -0.380538435566521E+03
              0.616967170048092E+03
              0.338980263446027E+03
              0.390185505054014E+03
              0.968928549741972E+02
              0.113910878988205E+03
             -0.852330584626633E+03
              0.138225736738127E+03
              0.312444553775640E+02
              0.813071233445553E+02
             -0.139159873252334E+03
              0.658946503213116E+03
             -0.152955988717942E+03
             -0.272399458241876E+03
             -0.637631245315810E+03
             -0.221277091752681E+03
             -0.305945851931025E+03
             -0.265979674128859E+03
             -0.600226264991670E+02
             -0.145629166494538E+03
             -0.185220766739686E+03
             -0.283757418715716E+03
              0.217145598223645E+03
              0.684706899529177E+03
              0.578459655613362E+03
             -0.102616283723640E+03
             -0.695353573962874E+03
             -0.296502565805761E+03
              0.142127043623735E+03
              0.142307484519187E+03
              0.227354378193559E+03
              0.159761864050842E+03
              0.282116216242084E+02
              0.679409403218403E+03
             -0.165134829698698E+03
              0.333770362026889E+03
              0.171766794702718E+03
             -0.231410690424820E+03
             -0.110902233019012E+03
              0.307814549103251E+03
             -0.164506582549429E+03
             -0.100996039713570E+03
             -0.748638648574035E+02
              0.396367045988279E+03
             -0.521385072352919E+03
             -0.418915363884839E+02
             -0.402354549014224E+03
             -0.854884625629981E+03
             -0.230274059448629E+01
             -0.126180848874648E+03
              0.332252251699333E+03
              0.369395681941151E+03
              0.505191259413050E+03
             -0.328545192384016E+03
              0.510815746314755E+03
              0.127715391013583E+03
             -0.189684963032315E+03
              0.681842861166158E+02
             -0.161243450284112E+03
             -0.953621871145824E+02
              0.295051748171210E+03
             -0.244337365028299E+03
              0.655415690552356E+03
             -0.174740373406022E+03
             -0.362303943001025E+03
              0.685452106451837E+03
             -0.371013501183794E+03
             -0.298531214896657E+02
              0.360374668053892E+02
              0.197773139866636E+03
             -0.289534339189920E+03
             -0.220625707953882E+03
              0.352041970264985E+03
             -0.529642863470194E+03
              0.436776743929959E+03
              0.645611215703626E+02
              0.312965492887510E+03
              0.453476134159259E+03
              0.116213476770195E+03
             -0.630243057066070E+03
             -0.272725591158758E+03
             -0.454934745319750E+03
             -0.270618562611096E+03
             -0.720983602075967E+02
              0.976515997771792E+02
             -0.212205024127709E+03
             -0.366437328646589E+01
             -0.632699907396926E+03
              0.353671022850519E+02
             -0.408062283966489E+03
              0.395540678379737E+03
             -0.231817205881452E+03
             -0.558934839656256E+02
              0.298575664500195E+03
              0.590756614262733E+02
              0.277462802664864E+03
             -0.529029707027174E+03
              0.878751734327989E+02
              0.361369723309284E+02
              0.227749912046852E+03
              0.365016886163276E+03
             -0.674493079381350E+02
             -0.415516078440642E+03
             -0.240328622295697E+03
             -0.169530790660252E+03
             -0.499281710704709E+02
              0.387534439347983E+03
              0.251596556039432E+03
             -0.254868639277063E+03
             -0.239081558318899E+03
              0.175555873048251E+03
              0.191215542172309E+03
             -0.516624606826033E+03
              0.120437259186189E+03
              0.370444913966710E+03
             -0.164997812362100E+02
              0.466729351724520E+03
              0.215503135306109E+03
              0.367204304651549E+03
              0.558260985615201E+03
              0.841620973429742E+02
             -0.760711680344282E+03
              0.104939930976672E+03
              0.822410293544619E+03
              0.597843113736248E+03
             -0.412203407919400E+03
              0.372049537089447E+02
              0.535037059922430E+03
              0.463681250595012E+03
              0.203830750668012E+03
             -0.123323789788495E+03
              0.204683809272279E+03
              0.423830650468577E+03
             -0.195951125380267E+03
             -0.126124683835021E+03
              0.287055236661816E+03
             -0.172342035819536E+02
              0.257746009852162E+03
             -0.797265292300991E+02
              0.537442623314111E+03
             -0.205027481210495E+03
              0.123365200789163E+03
             -0.227727647316090E+03
              0.266008007496464E+03
             -0.360815475018940E+02
              0.396338083388237E+03
              0.282737018494981E+02
              0.177467784369598E+03
             -0.252044087163225E+03
             -0.176287543514665E+03
             -0.899123456014872E+02
             -0.818976452289141E+02
              0.431526474105625E+03
              0.212411187062857E+03
              0.523642141710920E+03
              0.483318123265929E+03
              0.135588619425437E+03
              0.243205632260629E+02
              0.515060455833505E+03
              0.289481545454089E+03
              0.499657042710624E+00
              0.501674927590987E+03
             -0.411726983445206E+03
              0.144338963923243E+03
             -0.268315934879264E+03
             -0.727164321932837E+02
              0.693663452554565E+03
             -0.971246220508219E+02
             -0.289600704424961E+02
             -0.754773003374203E+02
              0.569860981072140E+03
             -0.122342011479171E+03
             -0.104539475042991E+02
              0.114964750811791E+04
             -0.340238210765963E+03
             -0.424751394018574E+03
             -0.425121715032349E+03
             -0.271557778108710E+03
              0.247628484488648E+03
             -0.111145396985386E+03
              0.629844012518729E+02
             -0.288123427300461E+02
              0.145711863439029E+03
              0.233971686698402E+03
              0.272699598334920E+03
              0.392484813518180E+03
              0.251440106247096E+03
              0.256286646124547E+03
             -0.474368407791321E+03
             -0.489912826629085E+03
             -0.110424713824397E+03
             -0.437886978412763E+03
              0.695222450118195E+03
              0.585626929877958E+03
              0.276258836030125E+03
              0.761433617943171E+03
             -0.380480281942796E+03
             -0.163906096542956E+03
             -0.236270316348397E+03
              0.658793470558639E+03
 
 BEEF-vdW xc energy contributions
            1 :    -5954.518483913030     
            2 :     5456.030130483752     
            3 :    -4606.343494929585     
            4 :     3632.168703984425     
            5 :    -2746.641522127183     
            6 :     2080.760066056461     
            7 :    -1662.209330610440     
            8 :     1435.145557781734     
            9 :    -1302.447635347821     
           10 :     1172.364382396958     
           11 :    -993.5294597841203     
           12 :     766.1482208473690     
           13 :    -527.5475883355530     
           14 :     323.4941818349980     
           15 :    -182.5866508594927     
           16 :     105.5070729124373     
           17 :    -70.15403017590415     
           18 :     46.10203206599090     
           19 :    -10.04170561249612     
           20 :    -44.51768141761477     
           21 :     106.9852343533994     
           22 :    -158.3133618215024     
           23 :     183.4040656187708     
           24 :    -180.1434689533462     
           25 :     160.2663332526072     
           26 :    -142.3995081520679     
           27 :     141.8754875136292     
           28 :    -162.9263721139969     
           29 :     196.9965037244856     
           30 :    -227.6811793635161     
           31 :    -512.7581896140664     
           32 :    -368.9166581081536     

     Writing all to output data dir ./PbI2.save/
 
     init_run     :     26.80s CPU     42.97s WALL (       1 calls)
     electrons    :    637.17s CPU    665.94s WALL (       1 calls)
     forces       :     11.07s CPU     11.52s WALL (       1 calls)
     stress       :    186.25s CPU    188.82s WALL (       1 calls)

     Called by init_run:
     wfcinit      :     20.71s CPU     36.36s WALL (       1 calls)
     potinit      :      1.38s CPU      1.63s WALL (       1 calls)
     hinit0       :      0.81s CPU      0.88s WALL (       1 calls)

     Called by electrons:
     c_bands      :    609.08s CPU    636.97s WALL (       2 calls)
     sum_band     :     17.47s CPU     17.91s WALL (       2 calls)
     v_of_rho     :      1.68s CPU      1.73s WALL (       2 calls)
     v_h          :      0.03s CPU      0.03s WALL (       2 calls)
     v_xc         :     34.14s CPU     34.55s WALL (      38 calls)
     newd         :      0.51s CPU      0.67s WALL (       2 calls)
     PAW_pot      :      0.56s CPU      0.57s WALL (       2 calls)
     mix_rho      :      0.00s CPU      0.00s WALL (       2 calls)
     vdW_kernel   :      0.15s CPU      0.15s WALL (       1 calls)

     Called by c_bands:
     init_us_2    :      0.19s CPU      0.22s WALL (       4 calls)
     init_us_2:cp :      0.19s CPU      0.22s WALL (       4 calls)
     cegterg      :    608.36s CPU    634.99s WALL (       2 calls)

     Called by sum_band:
     sum_band:wei :      0.00s CPU      0.00s WALL (       2 calls)
     sum_band:loo :     16.86s CPU     17.01s WALL (       2 calls)
     sum_band:buf :      0.00s CPU      0.00s WALL (       2 calls)
     sum_band:ini :      0.16s CPU      0.17s WALL (       2 calls)
     sum_band:cal :      4.17s CPU      4.20s WALL (       2 calls)
     sum_band:bec :      0.07s CPU      0.07s WALL (       2 calls)
     addusdens    :      0.52s CPU      0.72s WALL (       2 calls)
     addusd:skk   :      0.05s CPU      0.07s WALL (       4 calls)
     addusd:dgemm :      0.29s CPU      0.46s WALL (       4 calls)
     addusd:qvan2 :      0.17s CPU      0.17s WALL (       4 calls)

     Called by *egterg:
     cdiaghg      :    489.34s CPU    509.09s WALL (      22 calls)
     cegterg:over :     13.52s CPU     14.22s WALL (      22 calls)
     cegterg:upda :      6.72s CPU      6.87s WALL (      22 calls)
     cegterg:last :      4.30s CPU      4.33s WALL (       2 calls)
     h_psi        :     77.93s CPU     78.98s WALL (      24 calls)
     s_psi        :      8.71s CPU      8.97s WALL (      24 calls)
     g_psi        :      0.05s CPU      0.05s WALL (      22 calls)

     Called by h_psi:
     h_psi:calbec :      9.91s CPU     10.02s WALL (      24 calls)
     vloc_psi     :     59.14s CPU     59.66s WALL (      24 calls)
     vloc_psi:tg_ :      0.01s CPU      0.01s WALL (      24 calls)
     add_vuspsi   :      8.73s CPU      9.03s WALL (      24 calls)

     General routines
     calbec       :     24.54s CPU     24.78s WALL (      31 calls)
     fft          :     28.44s CPU     28.74s WALL (    2232 calls)
     ffts         :      0.05s CPU      0.05s WALL (       4 calls)
     fftw         :     70.03s CPU     70.64s WALL (   14818 calls)
     interpolate  :      0.05s CPU      0.06s WALL (       2 calls)
 
     Parallel routines
     fft_scatt_xy :      1.95s CPU      1.97s WALL (   17054 calls)
     fft_scatt_yz :     84.86s CPU     85.58s WALL (   17054 calls)
     fft_scatt_tg :      0.09s CPU      0.10s WALL (   14818 calls)

     PAW routines
     PAW_pot      :      0.56s CPU      0.57s WALL (       2 calls)
 
     PWSCF        :  15m12.33s CPU  16m13.26s WALL

 
   This run was terminated on:  17:26:45  17Mar2024            

=------------------------------------------------------------------------------=
   JOB DONE.
=------------------------------------------------------------------------------=
