
     Program PWSCF v.7.1 starts on 16Mar2024 at 21:33:47 

     This program is part of the open-source Quantum ESPRESSO suite
     for quantum simulation of materials; please cite
         "P. Giannozzi et al., J. Phys.:Condens. Matter 21 395502 (2009);
         "P. Giannozzi et al., J. Phys.:Condens. Matter 29 465901 (2017);
         "P. Giannozzi et al., J. Chem. Phys. 152 154105 (2020);
          URL http://www.quantum-espresso.org", 
     in publications or presentations arising from this work. More details at
     http://www.quantum-espresso.org/quote

     Parallel version (MPI & OpenMP), running on     256 processor cores
     Number of MPI processes:               256
     Threads/MPI process:                     1

     MPI processes distributed on     2 nodes
     2045363 MiB available memory on the printing compute node when the environment starts
 
     Reading input from espresso.pwi
Warning: card &CELL ignored
Warning: card    CELL_DYNAMICS    = 'BFGS' ignored
Warning: card / ignored

     Current dimensions of program PWSCF are:
     Max number of different atomic species (ntypx) = 10
     Max number of k-points (npk) =  40000
     Max angular momentum in pseudopotentials (lmaxx) =  4
     file Pb.pbe-dn-kjpaw_psl.1.0.0.UPF: wavefunction(s)  6S 6P 5D renormalized
     file I.pbe-dn-kjpaw_psl.1.0.0.UPF: wavefunction(s)  5S 5P renormalized

     **************************************************************************
     Initializing libbeef V0.1.2 with the BEEF-vdW functional.
     Citation: Wellendorff et al., PRB 85, 235149 (2012).
     **************************************************************************


     IMPORTANT: XC functional enforced from input :
     Exchange-correlation= BEEF-VDW
                           (   1   4  43  14   2   0   0)
     Any further DFT definition will be discarded
     Please, verify this is what you really want

 
     R & G space division:  proc/nbgrp/npool/nimage =     256
     WARNING: too many processors for an effective parallelization!
     wavefunctions fft division:  task group distribution
                                  #TG    x Z-proc =       8     32
     Subspace diagonalization in iterative solution of the eigenvalue problem:
     a serial algorithm will be used

 
     Parallelization info
     --------------------
     sticks:   dense  smooth     PW     G-vecs:    dense   smooth      PW
     Min         119      95     23                19837    14191    1763
     Max         120      96     24                19846    14206    1780
     Sum       30589   24439   6121              5079105  3634441  454335
 
     Using Pencil Decomposition
 


     bravais-lattice index     =            4
     lattice parameter (alat)  =      35.6120  a.u.
     unit-cell volume          =   45937.3577 (a.u.)^3
     number of atoms/cell      =          143
     number of atomic types    =            2
     number of electrons       =      2286.00
     number of Kohn-Sham states=         1372
     kinetic-energy cutoff     =      70.0000  Ry
     charge density cutoff     =     350.0000  Ry
     scf convergence threshold =      1.0E-07
     mixing beta               =       0.7000
     number of iterations used =            8  plain     mixing
     energy convergence thresh.=      1.0E-04
     force convergence thresh. =      1.0E-03
     Exchange-correlation= BEEF-VDW
                           (   1   4  43  14   2   0   0)
     nstep                     =           50


     celldm(1)=  35.612033  celldm(2)=   0.000000  celldm(3)=   1.174479
     celldm(4)=   0.000000  celldm(5)=   0.000000  celldm(6)=   0.000000

     crystal axes: (cart. coord. in units of alat)
               a(1) = (   1.000000   0.000000   0.000000 )  
               a(2) = (  -0.500000   0.866025   0.000000 )  
               a(3) = (   0.000000   0.000000   1.174479 )  

     reciprocal axes: (cart. coord. in units 2 pi/alat)
               b(1) = (  1.000000  0.577350 -0.000000 )  
               b(2) = (  0.000000  1.154701  0.000000 )  
               b(3) = (  0.000000 -0.000000  0.851442 )  


     PseudoPot. # 1 for Pb read from file:
     //group///packages/espresso/pseudo/psl_1.0.0/pslibrary.1.0.0/pbe/PSEUDOPOTENTIALS/Pb.pbe-dn-kjpaw_psl.1.0.0.UPF
     MD5 check sum: 39ab5b8a6bbd56b7735ad9f188aac93a
     Pseudo is Projector augmented-wave + core cor, Zval = 14.0
     Generated using 'atomic' code by A. Dal Corso  v.7.1
     Shape of augmentation charge: PSQ
     Using radial grid of 1281 points,  6 beta functions with: 
                l(1) =   0
                l(2) =   0
                l(3) =   1
                l(4) =   1
                l(5) =   2
                l(6) =   2
     Q(r) pseudized with 0 coefficients 


     PseudoPot. # 2 for I  read from file:
     //group///packages/espresso/pseudo/psl_1.0.0/pslibrary.1.0.0/pbe/PSEUDOPOTENTIALS/I.pbe-dn-kjpaw_psl.1.0.0.UPF
     MD5 check sum: bfa8781bc1224d19af3f3980e3fab11e
     Pseudo is Projector augmented-wave + core cor, Zval = 17.0
     Generated using 'atomic' code by A. Dal Corso  v.7.1
     Shape of augmentation charge: PSQ
     Using radial grid of 1247 points,  6 beta functions with: 
                l(1) =   0
                l(2) =   0
                l(3) =   1
                l(4) =   1
                l(5) =   2
                l(6) =   2
     Q(r) pseudized with 0 coefficients 


     atomic species   valence    mass     pseudopotential
        Pb            14.00   207.20000     Pb( 1.00)
        I             17.00   126.90447     I ( 1.00)

     No symmetry found


                                    s                        frac. trans.

      isym =  1     identity                                     

 cryst.   s( 1) = (     1          0          0      )
                  (     0          1          0      )
                  (     0          0          1      )

 cart.    s( 1) = (  1.0000000  0.0000000  0.0000000 )
                  (  0.0000000  1.0000000  0.0000000 )
                  (  0.0000000  0.0000000  1.0000000 )


     point group C_1 (1)    
     there are  1 classes
     the character table:

       E    
A      1.00

     the symmetry operations in each class and the name of the first element:

     E        1
          identity                                               

   Cartesian axes

     site n.     atom                  positions (alat units)
         1           Pb  tau(   1) = (   0.1250136   0.2164827   1.1744753  )
         2           Pb  tau(   2) = (   0.1250034   0.2164918   0.3914896  )
         3           Pb  tau(   3) = (   0.1250085   0.2164873   0.7829825  )
         4           Pb  tau(   4) = (   0.0000128   0.4329881   1.1744712  )
         5           Pb  tau(   5) = (   0.0000026   0.4329971   0.3914855  )
         6           Pb  tau(   6) = (   0.0000077   0.4329926   0.7829784  )
         7           Pb  tau(   7) = (  -0.1249881   0.6494934   1.1744671  )
         8           Pb  tau(   8) = (  -0.1249983   0.6495025   0.3914814  )
         9           Pb  tau(   9) = (  -0.1249932   0.6494980   0.7829742  )
        10           Pb  tau(  10) = (  -0.2499889   0.8659988   1.1744630  )
        11           Pb  tau(  11) = (  -0.2499991   0.8660078   0.3914773  )
        12           Pb  tau(  12) = (  -0.2499940   0.8660033   0.7829701  )
        13           Pb  tau(  13) = (   0.3750136   0.2164818   1.1744786  )
        14           Pb  tau(  14) = (   0.3750034   0.2164908   0.3914929  )
        15           Pb  tau(  15) = (   0.3750085   0.2164863   0.7829857  )
        16           Pb  tau(  16) = (   0.2500128   0.4329871   1.1744745  )
        17           Pb  tau(  17) = (   0.2500026   0.4329962   0.3914888  )
        18           Pb  tau(  18) = (   0.2500077   0.4329916   0.7829816  )
        19           Pb  tau(  19) = (   0.1250119   0.6494925   1.1744703  )
        20           Pb  tau(  20) = (   0.1250017   0.6495015   0.3914847  )
        21           Pb  tau(  21) = (   0.1250068   0.6494970   0.7829775  )
        22           Pb  tau(  22) = (   0.0000111   0.8659978   1.1744662  )
        23           Pb  tau(  23) = (   0.0000009   0.8660069   0.3914805  )
        24           Pb  tau(  24) = (   0.0000060   0.8660024   0.7829734  )
        25           Pb  tau(  25) = (   0.6250136   0.2164808   1.1744818  )
        26           Pb  tau(  26) = (   0.6250034   0.2164898   0.3914962  )
        27           Pb  tau(  27) = (   0.6250085   0.2164853   0.7829890  )
        28           Pb  tau(  28) = (   0.5000128   0.4329862   1.1744777  )
        29           Pb  tau(  29) = (   0.5000026   0.4329952   0.3914920  )
        30           Pb  tau(  30) = (   0.5000077   0.4329907   0.7829849  )
        31           Pb  tau(  31) = (   0.3750119   0.6494915   1.1744736  )
        32           Pb  tau(  32) = (   0.3750017   0.6495006   0.3914879  )
        33           Pb  tau(  33) = (   0.3750068   0.6494960   0.7829808  )
        34           Pb  tau(  34) = (   0.2500111   0.8659969   1.1744695  )
        35           Pb  tau(  35) = (   0.2500009   0.8660059   0.3914838  )
        36           Pb  tau(  36) = (   0.2500060   0.8660014   0.7829766  )
        37           Pb  tau(  37) = (   0.8750136   0.2164798   1.1744851  )
        38           Pb  tau(  38) = (   0.8750034   0.2164889   0.3914994  )
        39           Pb  tau(  39) = (   0.8750085   0.2164844   0.7829923  )
        40           Pb  tau(  40) = (   0.7500128   0.4329852   1.1744810  )
        41           Pb  tau(  41) = (   0.7500026   0.4329942   0.3914953  )
        42           Pb  tau(  42) = (   0.7500077   0.4329897   0.7829881  )
        43           Pb  tau(  43) = (   0.6250119   0.6494906   1.1744769  )
        44           Pb  tau(  44) = (   0.6250017   0.6494996   0.3914912  )
        45           Pb  tau(  45) = (   0.6250068   0.6494951   0.7829840  )
        46           Pb  tau(  46) = (   0.5000111   0.8659959   1.1744727  )
        47           Pb  tau(  47) = (   0.5000009   0.8660050   0.3914870  )
        48           Pb  tau(  48) = (   0.5000060   0.8660004   0.7829799  )
        49           I   tau(  49) = (   0.1250105   0.0721505   0.6824253  )
        50           I   tau(  50) = (   0.1250156   0.0721459   1.0739182  )
        51           I   tau(  51) = (   0.0000045   0.2886603   0.2909283  )
        52           I   tau(  52) = (   0.0000096   0.2886558   0.6824212  )
        53           I   tau(  53) = (   0.0000147   0.2886513   1.0739140  )
        54           I   tau(  54) = (  -0.1249963   0.5051657   0.2909242  )
        55           I   tau(  55) = (  -0.1249912   0.5051612   0.6824171  )
        56           I   tau(  56) = (  -0.1249861   0.5051566   1.0739099  )
        57           I   tau(  57) = (  -0.2499971   0.7216710   0.2909201  )
        58           I   tau(  58) = (  -0.2499920   0.7216665   0.6824129  )
        59           I   tau(  59) = (  -0.2499869   0.7216620   1.0739058  )
        60           I   tau(  60) = (   0.3750054   0.0721540   0.2909357  )
        61           I   tau(  61) = (   0.3750105   0.0721495   0.6824286  )
        62           I   tau(  62) = (   0.3750156   0.0721450   1.0739214  )
        63           I   tau(  63) = (   0.2500045   0.2886594   0.2909316  )
        64           I   tau(  64) = (   0.2500096   0.2886548   0.6824244  )
        65           I   tau(  65) = (   0.2500147   0.2886503   1.0739173  )
        66           I   tau(  66) = (   0.1250037   0.5051647   0.2909275  )
        67           I   tau(  67) = (   0.1250088   0.5051602   0.6824203  )
        68           I   tau(  68) = (   0.1250139   0.5051557   1.0739132  )
        69           I   tau(  69) = (   0.0000029   0.7216701   0.2909233  )
        70           I   tau(  70) = (   0.0000080   0.7216656   0.6824162  )
        71           I   tau(  71) = (   0.0000131   0.7216610   1.0739090  )
        72           I   tau(  72) = (   0.6250054   0.0721530   0.2909390  )
        73           I   tau(  73) = (   0.6250105   0.0721485   0.6824318  )
        74           I   tau(  74) = (   0.6250156   0.0721440   1.0739247  )
        75           I   tau(  75) = (   0.5000045   0.2886584   0.2909348  )
        76           I   tau(  76) = (   0.5000096   0.2886539   0.6824277  )
        77           I   tau(  77) = (   0.5000147   0.2886494   1.0739205  )
        78           I   tau(  78) = (   0.3750037   0.5051638   0.2909307  )
        79           I   tau(  79) = (   0.3750088   0.5051592   0.6824236  )
        80           I   tau(  80) = (   0.3750139   0.5051547   1.0739164  )
        81           I   tau(  81) = (   0.2500029   0.7216691   0.2909266  )
        82           I   tau(  82) = (   0.2500080   0.7216646   0.6824194  )
        83           I   tau(  83) = (   0.2500131   0.7216601   1.0739123  )
        84           I   tau(  84) = (   0.8750054   0.0721521   0.2909422  )
        85           I   tau(  85) = (   0.8750105   0.0721476   0.6824351  )
        86           I   tau(  86) = (   0.8750156   0.0721430   1.0739279  )
        87           I   tau(  87) = (   0.7500045   0.2886574   0.2909381  )
        88           I   tau(  88) = (   0.7500096   0.2886529   0.6824310  )
        89           I   tau(  89) = (   0.7500147   0.2886484   1.0739238  )
        90           I   tau(  90) = (   0.6250037   0.5051628   0.2909340  )
        91           I   tau(  91) = (   0.6250088   0.5051583   0.6824268  )
        92           I   tau(  92) = (   0.6250139   0.5051538   1.0739197  )
        93           I   tau(  93) = (   0.5000029   0.7216681   0.2909299  )
        94           I   tau(  94) = (   0.5000080   0.7216636   0.6824227  )
        95           I   tau(  95) = (   0.5000131   0.7216591   1.0739156  )
        96           I   tau(  96) = (  -0.0000017   0.1443297   0.1005555  )
        97           I   tau(  97) = (   0.0000034   0.1443252   0.4920483  )
        98           I   tau(  98) = (   0.0000085   0.1443207   0.8835412  )
        99           I   tau(  99) = (  -0.1250025   0.3608351   0.1005514  )
       100           I   tau( 100) = (  -0.1249974   0.3608306   0.4920442  )
       101           I   tau( 101) = (  -0.1249923   0.3608260   0.8835371  )
       102           I   tau( 102) = (  -0.2500034   0.5773404   0.1005472  )
       103           I   tau( 103) = (  -0.2499983   0.5773359   0.4920401  )
       104           I   tau( 104) = (  -0.2499932   0.5773314   0.8835329  )
       105           I   tau( 105) = (  -0.3750042   0.7938458   0.1005431  )
       106           I   tau( 106) = (  -0.3749991   0.7938413   0.4920360  )
       107           I   tau( 107) = (  -0.3749940   0.7938368   0.8835288  )
       108           I   tau( 108) = (   0.2499983   0.1443288   0.1005587  )
       109           I   tau( 109) = (   0.2500034   0.1443242   0.4920516  )
       110           I   tau( 110) = (   0.2500085   0.1443197   0.8835444  )
       111           I   tau( 111) = (   0.1249975   0.3608341   0.1005546  )
       112           I   tau( 112) = (   0.1250026   0.3608296   0.4920475  )
       113           I   tau( 113) = (   0.1250077   0.3608251   0.8835403  )
       114           I   tau( 114) = (  -0.0000034   0.5773395   0.1005505  )
       115           I   tau( 115) = (   0.0000017   0.5773350   0.4920433  )
       116           I   tau( 116) = (   0.0000068   0.5773304   0.8835362  )
       117           I   tau( 117) = (  -0.1250042   0.7938448   0.1005464  )
       118           I   tau( 118) = (  -0.1249991   0.7938403   0.4920392  )
       119           I   tau( 119) = (  -0.1249940   0.7938358   0.8835321  )
       120           I   tau( 120) = (   0.4999983   0.1443278   0.1005620  )
       121           I   tau( 121) = (   0.5000034   0.1443233   0.4920548  )
       122           I   tau( 122) = (   0.5000085   0.1443188   0.8835477  )
       123           I   tau( 123) = (   0.3749975   0.3608332   0.1005579  )
       124           I   tau( 124) = (   0.3750026   0.3608286   0.4920507  )
       125           I   tau( 125) = (   0.3750077   0.3608241   0.8835436  )
       126           I   tau( 126) = (   0.2499966   0.5773385   0.1005537  )
       127           I   tau( 127) = (   0.2500017   0.5773340   0.4920466  )
       128           I   tau( 128) = (   0.2500068   0.5773295   0.8835394  )
       129           I   tau( 129) = (   0.1249958   0.7938439   0.1005496  )
       130           I   tau( 130) = (   0.1250009   0.7938394   0.4920425  )
       131           I   tau( 131) = (   0.1250060   0.7938348   0.8835353  )
       132           I   tau( 132) = (   0.7499983   0.1443268   0.1005653  )
       133           I   tau( 133) = (   0.7500034   0.1443223   0.4920581  )
       134           I   tau( 134) = (   0.7500085   0.1443178   0.8835509  )
       135           I   tau( 135) = (   0.6249975   0.3608322   0.1005611  )
       136           I   tau( 136) = (   0.6250026   0.3608277   0.4920540  )
       137           I   tau( 137) = (   0.6250077   0.3608232   0.8835468  )
       138           I   tau( 138) = (   0.4999966   0.5773376   0.1005570  )
       139           I   tau( 139) = (   0.5000017   0.5773330   0.4920499  )
       140           I   tau( 140) = (   0.5000068   0.5773285   0.8835427  )
       141           I   tau( 141) = (   0.3749958   0.7938429   0.1005529  )
       142           I   tau( 142) = (   0.3750009   0.7938384   0.4920457  )
       143           I   tau( 143) = (   0.3750060   0.7938339   0.8835386  )

   Crystallographic axes

     site n.     atom                  positions (cryst. coord.)
         1           Pb  tau(   1) = (  0.2500000  0.2499727  0.9999973  )
         2           Pb  tau(   2) = (  0.2499950  0.2499832  0.3333306  )
         3           Pb  tau(   3) = (  0.2499975  0.2499780  0.6666639  )
         4           Pb  tau(   4) = (  0.2499986  0.4999716  0.9999938  )
         5           Pb  tau(   5) = (  0.2499936  0.4999820  0.3333271  )
         6           Pb  tau(   6) = (  0.2499961  0.4999768  0.6666604  )
         7           Pb  tau(   7) = (  0.2499972  0.7499704  0.9999902  )
         8           Pb  tau(   8) = (  0.2499922  0.7499809  0.3333236  )
         9           Pb  tau(   9) = (  0.2499947  0.7499757  0.6666569  )
        10           Pb  tau(  10) = (  0.2499957  0.9999693  0.9999867  )
        11           Pb  tau(  11) = (  0.2499908  0.9999797  0.3333201  )
        12           Pb  tau(  12) = (  0.2499932  0.9999745  0.6666534  )
        13           Pb  tau(  13) = (  0.4999994  0.2499716  1.0000000  )
        14           Pb  tau(  14) = (  0.4999944  0.2499821  0.3333334  )
        15           Pb  tau(  15) = (  0.4999969  0.2499768  0.6666667  )
        16           Pb  tau(  16) = (  0.4999980  0.4999705  0.9999965  )
        17           Pb  tau(  17) = (  0.4999930  0.4999809  0.3333299  )
        18           Pb  tau(  18) = (  0.4999955  0.4999757  0.6666632  )
        19           Pb  tau(  19) = (  0.4999966  0.7499693  0.9999930  )
        20           Pb  tau(  20) = (  0.4999916  0.7499798  0.3333264  )
        21           Pb  tau(  21) = (  0.4999941  0.7499745  0.6666597  )
        22           Pb  tau(  22) = (  0.4999952  0.9999682  0.9999895  )
        23           Pb  tau(  23) = (  0.4999902  0.9999786  0.3333228  )
        24           Pb  tau(  24) = (  0.4999927  0.9999734  0.6666562  )
        25           Pb  tau(  25) = (  0.7499989  0.2499705  1.0000028  )
        26           Pb  tau(  26) = (  0.7499939  0.2499809  0.3333362  )
        27           Pb  tau(  27) = (  0.7499964  0.2499757  0.6666695  )
        28           Pb  tau(  28) = (  0.7499975  0.4999694  0.9999993  )
        29           Pb  tau(  29) = (  0.7499925  0.4999798  0.3333326  )
        30           Pb  tau(  30) = (  0.7499950  0.4999746  0.6666660  )
        31           Pb  tau(  31) = (  0.7499960  0.7499682  0.9999958  )
        32           Pb  tau(  32) = (  0.7499910  0.7499786  0.3333291  )
        33           Pb  tau(  33) = (  0.7499935  0.7499734  0.6666625  )
        34           Pb  tau(  34) = (  0.7499946  0.9999671  0.9999923  )
        35           Pb  tau(  35) = (  0.7499896  0.9999775  0.3333256  )
        36           Pb  tau(  36) = (  0.7499921  0.9999723  0.6666590  )
        37           Pb  tau(  37) = (  0.9999983  0.2499694  1.0000056  )
        38           Pb  tau(  38) = (  0.9999933  0.2499798  0.3333389  )
        39           Pb  tau(  39) = (  0.9999958  0.2499746  0.6666723  )
        40           Pb  tau(  40) = (  0.9999969  0.4999682  1.0000021  )
        41           Pb  tau(  41) = (  0.9999919  0.4999787  0.3333354  )
        42           Pb  tau(  42) = (  0.9999944  0.4999735  0.6666687  )
        43           Pb  tau(  43) = (  0.9999955  0.7499671  0.9999986  )
        44           Pb  tau(  44) = (  0.9999905  0.7499775  0.3333319  )
        45           Pb  tau(  45) = (  0.9999930  0.7499723  0.6666652  )
        46           Pb  tau(  46) = (  0.9999941  0.9999659  0.9999951  )
        47           Pb  tau(  47) = (  0.9999891  0.9999764  0.3333284  )
        48           Pb  tau(  48) = (  0.9999916  0.9999712  0.6666617  )
        49           I   tau(  49) = (  0.1666666  0.0833122  0.5810454  )
        50           I   tau(  50) = (  0.1666691  0.0833070  0.9143787  )
        51           I   tau(  51) = (  0.1666626  0.3333162  0.2477085  )
        52           I   tau(  52) = (  0.1666651  0.3333110  0.5810418  )
        53           I   tau(  53) = (  0.1666676  0.3333058  0.9143752  )
        54           I   tau(  54) = (  0.1666612  0.5833151  0.2477050  )
        55           I   tau(  55) = (  0.1666637  0.5833099  0.5810383  )
        56           I   tau(  56) = (  0.1666662  0.5833047  0.9143717  )
        57           I   tau(  57) = (  0.1666598  0.8333139  0.2477015  )
        58           I   tau(  58) = (  0.1666623  0.8333087  0.5810348  )
        59           I   tau(  59) = (  0.1666648  0.8333035  0.9143682  )
        60           I   tau(  60) = (  0.4166635  0.0833163  0.2477148  )
        61           I   tau(  61) = (  0.4166660  0.0833111  0.5810481  )
        62           I   tau(  62) = (  0.4166685  0.0833058  0.9143815  )
        63           I   tau(  63) = (  0.4166621  0.3333151  0.2477113  )
        64           I   tau(  64) = (  0.4166646  0.3333099  0.5810446  )
        65           I   tau(  65) = (  0.4166671  0.3333047  0.9143780  )
        66           I   tau(  66) = (  0.4166607  0.5833140  0.2477078  )
        67           I   tau(  67) = (  0.4166632  0.5833088  0.5810411  )
        68           I   tau(  68) = (  0.4166657  0.5833035  0.9143744  )
        69           I   tau(  69) = (  0.4166593  0.8333128  0.2477043  )
        70           I   tau(  70) = (  0.4166618  0.8333076  0.5810376  )
        71           I   tau(  71) = (  0.4166643  0.8333024  0.9143709  )
        72           I   tau(  72) = (  0.6666629  0.0833152  0.2477176  )
        73           I   tau(  73) = (  0.6666654  0.0833099  0.5810509  )
        74           I   tau(  74) = (  0.6666679  0.0833047  0.9143842  )
        75           I   tau(  75) = (  0.6666615  0.3333140  0.2477141  )
        76           I   tau(  76) = (  0.6666640  0.3333088  0.5810474  )
        77           I   tau(  77) = (  0.6666665  0.3333036  0.9143807  )
        78           I   tau(  78) = (  0.6666601  0.5833129  0.2477106  )
        79           I   tau(  79) = (  0.6666626  0.5833076  0.5810439  )
        80           I   tau(  80) = (  0.6666651  0.5833024  0.9143772  )
        81           I   tau(  81) = (  0.6666587  0.8333117  0.2477070  )
        82           I   tau(  82) = (  0.6666612  0.8333065  0.5810404  )
        83           I   tau(  83) = (  0.6666637  0.8333013  0.9143737  )
        84           I   tau(  84) = (  0.9166624  0.0833141  0.2477203  )
        85           I   tau(  85) = (  0.9166649  0.0833088  0.5810537  )
        86           I   tau(  86) = (  0.9166674  0.0833036  0.9143870  )
        87           I   tau(  87) = (  0.9166610  0.3333129  0.2477168  )
        88           I   tau(  88) = (  0.9166635  0.3333077  0.5810502  )
        89           I   tau(  89) = (  0.9166660  0.3333025  0.9143835  )
        90           I   tau(  90) = (  0.9166596  0.5833118  0.2477133  )
        91           I   tau(  91) = (  0.9166621  0.5833065  0.5810467  )
        92           I   tau(  92) = (  0.9166646  0.5833013  0.9143800  )
        93           I   tau(  93) = (  0.9166582  0.8333106  0.2477098  )
        94           I   tau(  94) = (  0.9166607  0.8333054  0.5810431  )
        95           I   tau(  95) = (  0.9166632  0.8333002  0.9143765  )
        96           I   tau(  96) = (  0.0833271  0.1666576  0.0856171  )
        97           I   tau(  97) = (  0.0833296  0.1666524  0.4189505  )
        98           I   tau(  98) = (  0.0833321  0.1666472  0.7522838  )
        99           I   tau(  99) = (  0.0833257  0.4166565  0.0856136  )
       100           I   tau( 100) = (  0.0833282  0.4166513  0.4189470  )
       101           I   tau( 101) = (  0.0833307  0.4166460  0.7522803  )
       102           I   tau( 102) = (  0.0833243  0.6666553  0.0856101  )
       103           I   tau( 103) = (  0.0833268  0.6666501  0.4189434  )
       104           I   tau( 104) = (  0.0833293  0.6666449  0.7522768  )
       105           I   tau( 105) = (  0.0833229  0.9166542  0.0856066  )
       106           I   tau( 106) = (  0.0833254  0.9166489  0.4189399  )
       107           I   tau( 107) = (  0.0833279  0.9166437  0.7522733  )
       108           I   tau( 108) = (  0.3333265  0.1666565  0.0856199  )
       109           I   tau( 109) = (  0.3333290  0.1666513  0.4189532  )
       110           I   tau( 110) = (  0.3333315  0.1666461  0.7522866  )
       111           I   tau( 111) = (  0.3333251  0.4166554  0.0856164  )
       112           I   tau( 112) = (  0.3333276  0.4166501  0.4189497  )
       113           I   tau( 113) = (  0.3333301  0.4166449  0.7522831  )
       114           I   tau( 114) = (  0.3333237  0.6666542  0.0856129  )
       115           I   tau( 115) = (  0.3333262  0.6666490  0.4189462  )
       116           I   tau( 116) = (  0.3333287  0.6666438  0.7522795  )
       117           I   tau( 117) = (  0.3333223  0.9166531  0.0856094  )
       118           I   tau( 118) = (  0.3333248  0.9166478  0.4189427  )
       119           I   tau( 119) = (  0.3333273  0.9166426  0.7522760  )
       120           I   tau( 120) = (  0.5833260  0.1666554  0.0856227  )
       121           I   tau( 121) = (  0.5833285  0.1666502  0.4189560  )
       122           I   tau( 122) = (  0.5833310  0.1666450  0.7522893  )
       123           I   tau( 123) = (  0.5833246  0.4166542  0.0856192  )
       124           I   tau( 124) = (  0.5833271  0.4166490  0.4189525  )
       125           I   tau( 125) = (  0.5833296  0.4166438  0.7522858  )
       126           I   tau( 126) = (  0.5833232  0.6666531  0.0856157  )
       127           I   tau( 127) = (  0.5833257  0.6666479  0.4189490  )
       128           I   tau( 128) = (  0.5833282  0.6666427  0.7522823  )
       129           I   tau( 129) = (  0.5833218  0.9166519  0.0856121  )
       130           I   tau( 130) = (  0.5833243  0.9166467  0.4189455  )
       131           I   tau( 131) = (  0.5833268  0.9166415  0.7522788  )
       132           I   tau( 132) = (  0.8333254  0.1666543  0.0856254  )
       133           I   tau( 133) = (  0.8333279  0.1666491  0.4189588  )
       134           I   tau( 134) = (  0.8333304  0.1666438  0.7522921  )
       135           I   tau( 135) = (  0.8333240  0.4166531  0.0856219  )
       136           I   tau( 136) = (  0.8333265  0.4166479  0.4189553  )
       137           I   tau( 137) = (  0.8333290  0.4166427  0.7522886  )
       138           I   tau( 138) = (  0.8333226  0.6666520  0.0856184  )
       139           I   tau( 139) = (  0.8333251  0.6666468  0.4189518  )
       140           I   tau( 140) = (  0.8333276  0.6666415  0.7522851  )
       141           I   tau( 141) = (  0.8333212  0.9166508  0.0856149  )
       142           I   tau( 142) = (  0.8333237  0.9166456  0.4189482  )
       143           I   tau( 143) = (  0.8333262  0.9166404  0.7522816  )

     number of k points=     1  Gaussian smearing, width (Ry)=  0.0100
                       cart. coord. in units 2pi/alat
        k(    1) = (   0.0000000   0.0000000   0.0000000), wk =   2.0000000

                       cryst. coord.
        k(    1) = (   0.0000000   0.0000000   0.0000000), wk =   2.0000000

     Dense  grid:  5079105 G-vectors     FFT dimensions: ( 216, 216, 250)

     Smooth grid:  3634441 G-vectors     FFT dimensions: ( 192, 192, 225)

     Dynamical RAM for                 wfc:      37.14 MB

     Dynamical RAM for     wfc (w. buffer):      37.14 MB

     Dynamical RAM for           str. fact:       0.61 MB

     Dynamical RAM for           local pot:       0.00 MB

     Dynamical RAM for          nlocal pot:      69.68 MB

     Dynamical RAM for                qrad:       3.00 MB

     Dynamical RAM for          rho,v,vnew:       1.98 MB

     Dynamical RAM for               rhoin:       0.66 MB

     Dynamical RAM for            rho*nmix:       4.84 MB

     Dynamical RAM for           G-vectors:       1.24 MB

     Dynamical RAM for          h,s,v(r/c):    1378.70 MB

     Dynamical RAM for          <psi|beta>:      53.89 MB

     Dynamical RAM for                 psi:     148.56 MB

     Dynamical RAM for                hpsi:     148.56 MB

     Dynamical RAM for                spsi:     148.56 MB

     Dynamical RAM for      wfcinit/wfcrot:     117.37 MB

     Dynamical RAM for           addusdens:      85.07 MB

     Dynamical RAM for          addusforce:     142.51 MB

     Dynamical RAM for         addusstress:      60.85 MB

     Estimated static dynamical RAM per process >     116.99 MB

     Estimated max dynamical RAM per process >       1.95 GB

     Estimated total dynamical RAM >     500.02 GB

     Atomic positions and unit cell read from directory:
     ./PbI2.save/
     Atomic positions from file used, from input discarded
 

     Check: negative core charge=   -0.000001

     The initial density is read from file :
     ./PbI2.save/charge-density



     %%%%%%%%%%%%%%%%%%%%%%%%%%%%%%%%%%%%%%%%%%%%%%%%%%%%%%%%%%%%%%%%%%%%%%%%
     %                                                                      %
     % You are using vdW-DF, which was implemented by the Thonhauser group. %
     % Please cite the following two papers that made this development      %
     % possible and the two reviews that describe the various versions:     %
     %                                                                      %
     %   T. Thonhauser et al., PRL 115, 136402 (2015).                      %
     %   T. Thonhauser et al., PRB 76, 125112 (2007).                       %
     %   K. Berland et al., Rep. Prog. Phys. 78, 066501 (2015).             %
     %   D.C. Langreth et al., J. Phys.: Condens. Matter 21, 084203 (2009). %
     %                                                                      %
     % If you are calculating stress with vdW-DF, please also cite:         %
     %                                                                      %
     %   R. Sabatini et al., J. Phys.: Condens. Matter 24, 424209 (2012).   %
     %                                                                      %
     %%%%%%%%%%%%%%%%%%%%%%%%%%%%%%%%%%%%%%%%%%%%%%%%%%%%%%%%%%%%%%%%%%%%%%%%

     %%%%%%%%%%%%%%%%%%%%%%%%%%%%%%%%%%%%%%%%%%%%%%%%%%%%%%%%%%%%%%%%%%%%%%%%
     %                                                                      %
     %  vdW-DF NEWS:                                                        %
     %                                                                      %
     %  * vdW-DF3 is now available. DOI: 10.1021/acs.jctc.0c00471           %
     %    use with input_dft = 'vdW-DF3-opt1' or 'vdW-DF3-opt2'             %
     %                                                                      %
     %  * Unscreened and range-separated vdW-DF hybrid functionals          %
     %    DOI: 10.1063/1.4986522 and 10.1088/1361-648X/ac2ad2               %
     %    use with input_dft = 'vdW-DF-cx0' (etc) and 'vdW-DF-ahcx'         %
     %                                                                      %
     %%%%%%%%%%%%%%%%%%%%%%%%%%%%%%%%%%%%%%%%%%%%%%%%%%%%%%%%%%%%%%%%%%%%%%%%


     Carrying out vdW-DF run using the following parameters:
     Nqs    =  20  Npoints =  1024  r_max =  100.000
     q_mesh =  0.00001000  0.04494208  0.09755937  0.15916263
               0.23128650  0.31572767  0.41458969  0.53033537
               0.66584808  0.82450364  1.01025438  1.22772762
               1.48234092  1.78043706  2.12944203  2.53805004
               3.01644009  3.57652955  4.23227104  5.00000000


     -----------------------------------------------
     Non-local corr. energy    =      68.48530573 Ry
     -----------------------------------------------

     Starting wfcs from file
     Checking if some PAW data can be deallocated... 
       PAW data deallocated on  160 nodes for type:  1
       PAW data deallocated on   96 nodes for type:  2
     Calculation restarted from scf iteration #    13

     total cpu time spent up to now is        9.6 secs

     Self-consistent Calculation

     iteration # 13     ecut=    70.00 Ry     beta= 0.70
     Calculation restarted from end of k-point loop
     Davidson diagonalization with overlap

---- Real-time Memory Report at c_bands before calling an iterative solver
           322 MiB given to the printing process from OS
             0 MiB allocation reported by mallinfo(arena+hblkhd)
       2024634 MiB available memory on the node where the printing process lives
------------------
     ethr =  1.00E-13,  avg # of iterations = 20.0


     -----------------------------------------------
     Non-local corr. energy    =      68.48530721 Ry
     -----------------------------------------------


     total cpu time spent up to now is       20.3 secs

     End of self-consistent calculation

          k = 0.0000 0.0000 0.0000 (454335 PWs)   bands (ev):

   -41.3295 -41.3295 -41.3294 -41.3105 -41.3105 -41.3104 -41.3078 -41.3078
   -41.3077 -41.2513 -41.2513 -41.2512 -41.2510 -41.2510 -41.2509 -41.0954
   -41.0954 -41.0953 -41.0947 -41.0946 -41.0946 -41.0828 -41.0828 -41.0827
   -41.0824 -41.0824 -41.0824 -41.0793 -41.0793 -41.0793 -41.0108 -41.0108
   -41.0108 -41.0084 -41.0084 -41.0077 -41.0076 -41.0076 -41.0070 -41.0070
   -41.0070 -41.0017 -41.0017 -41.0017 -41.0015 -41.0015 -41.0015 -41.0003
   -41.0002 -41.0002 -40.9994 -40.9994 -40.9994 -40.9994 -40.9994 -40.9994
   -40.9987 -40.9987 -40.9987 -40.9987 -40.9987 -40.9987 -40.9927 -40.9927
   -40.9927 -40.9926 -40.9926 -40.9926 -40.9884 -40.9883 -40.9883 -40.9883
   -40.9883 -40.9883 -40.9878 -40.9877 -40.9877 -40.9877 -40.9877 -40.9877
   -40.9781 -40.9781 -40.9781 -40.9781 -40.9781 -40.9781 -40.9781 -40.9781
   -40.9781 -40.9777 -40.9777 -40.9777 -40.9777 -40.9776 -40.9776 -40.9761
   -40.9761 -40.9761 -40.9761 -40.9761 -40.9761 -40.9750 -40.9749 -40.9749
   -40.9749 -40.9749 -40.9749 -40.9749 -40.9749 -40.9749 -40.9747 -40.9747
   -40.9746 -40.9746 -40.9746 -40.9746 -40.9733 -40.9733 -40.9733 -40.9708
   -40.9708 -40.9708 -40.9702 -40.9702 -40.9702 -40.9686 -40.9686 -40.9685
   -40.9671 -40.9671 -40.9671 -40.9669 -40.9668 -40.9668 -40.9663 -40.9663
   -40.9663 -40.9660 -40.9659 -40.9659 -40.9655 -40.9655 -40.9655 -40.9654
   -40.9653 -40.9653 -40.9653 -40.9652 -40.9652 -40.9619 -40.9619 -40.9618
   -40.9614 -40.9614 -40.9614 -40.7493 -40.7493 -40.7492 -40.7479 -40.7479
   -40.7478 -40.7474 -40.7474 -40.7474 -40.7461 -40.7461 -40.7461 -40.7461
   -40.7461 -40.7461 -40.7458 -40.7458 -40.7458 -40.7458 -40.7458 -40.7458
   -40.7455 -40.7455 -40.7455 -40.7450 -40.7450 -40.7450 -40.7450 -40.7449
   -40.7449 -40.7447 -40.7447 -40.7447 -40.7444 -40.7444 -40.7444 -40.7444
   -40.7444 -40.7444 -40.7442 -40.7442 -40.7442 -40.7441 -40.7441 -40.7441
   -40.7438 -40.7437 -40.7437 -40.7436 -40.7436 -40.7436 -40.7435 -40.7435
   -40.7435 -40.7432 -40.7432 -40.7432 -40.7432 -40.7432 -40.7432 -40.7426
   -40.7426 -40.7426 -40.7426 -40.7426 -40.7426 -40.7426 -40.7426 -40.7426
   -40.7426 -40.7426 -40.7426 -40.7426 -40.7426 -40.7425 -40.7425 -40.7425
   -40.7425 -40.7425 -40.7425 -40.7425 -40.7424 -40.7424 -40.7424 -40.7424
   -40.7424 -40.7424 -40.7422 -40.7422 -40.7422 -40.7422 -40.7422 -40.7422
   -40.7422 -40.7422 -40.7421 -40.7419 -40.7419 -40.7419 -40.7419 -40.7419
   -40.7419 -40.7417 -40.7417 -40.7417 -40.7416 -40.7416 -40.7416 -40.7416
   -40.7416 -40.7416 -40.7416 -40.7416 -40.7416 -40.7413 -40.7413 -40.7413
   -40.7413 -40.7413 -40.7412 -40.7412 -40.7412 -40.7412 -40.7410 -40.7410
   -40.7410 -40.7410 -40.7410 -40.7410 -40.7406 -40.7406 -40.7405 -40.7405
   -40.7405 -40.7405 -40.7405 -40.7404 -40.7404 -40.7404 -40.7404 -40.7404
   -40.7403 -40.7403 -40.7403 -40.7403 -40.7403 -40.7400 -40.7400 -40.7400
   -40.7400 -40.7400 -40.7400 -40.7399 -40.7399 -40.7399 -40.7399 -40.7399
   -40.7399 -40.7398 -40.7398 -40.7398 -40.7397 -40.7397 -40.7397 -40.7397
   -40.7397 -40.7396 -40.7396 -40.7396 -40.7396 -40.7396 -40.7396 -40.7395
   -40.7395 -40.7395 -40.7395 -40.7395 -40.7395 -40.7395 -40.7395 -40.7394
   -40.7391 -40.7391 -40.7391 -40.7391 -40.7391 -40.7391 -40.7391 -40.7391
   -40.7390 -40.7389 -40.7389 -40.7389 -40.7389 -40.7389 -40.7389 -40.7389
   -40.7389 -40.7389 -40.7389 -40.7389 -40.7389 -40.7388 -40.7388 -40.7388
   -40.7387 -40.7387 -40.7387 -40.7387 -40.7387 -40.7387 -40.7387 -40.7387
   -40.7387 -40.7387 -40.7387 -40.7387 -40.7386 -40.7386 -40.7386 -40.7383
   -40.7383 -40.7383 -40.7381 -40.7381 -40.7381 -40.7381 -40.7381 -40.7381
   -40.7379 -40.7379 -40.7379 -40.7378 -40.7378 -40.7378 -40.7378 -40.7378
   -40.7377 -40.7377 -40.7377 -40.7377 -40.7377 -40.7377 -40.7374 -40.7373
   -40.7373 -40.7373 -40.7372 -40.7372 -40.7372 -40.7372 -40.7372 -40.7372
   -40.7372 -40.7372 -40.7371 -40.7371 -40.7371 -40.7370 -40.7370 -40.7370
   -40.7370 -40.7370 -40.7370 -40.7367 -40.7367 -40.7367 -40.7366 -40.7366
   -40.7366 -40.7366 -40.7366 -40.7366 -40.7365 -40.7365 -40.7365 -40.7364
   -40.7364 -40.7364 -40.7359 -40.7359 -40.7359 -40.7359 -40.7359 -40.7359
   -40.7356 -40.7356 -40.7356 -40.7353 -40.7353 -40.7353 -40.7348 -40.7347
   -40.7347 -40.7347 -40.7347 -40.7347 -40.7346 -40.7346 -40.7346 -40.7305
   -40.7305 -40.7305 -40.7304 -40.7304 -40.7304 -40.7298 -40.7298 -40.7298
   -40.7297 -40.7297 -40.7297 -40.7296 -40.7294 -40.7294 -40.7294 -40.7294
   -40.7294 -40.7280 -40.7280 -13.3371 -13.3350 -13.3349 -13.3014 -13.3002
   -13.3002 -13.2982 -13.2981 -13.2968 -13.2902 -13.2902 -13.2848 -13.2733
   -13.2727 -13.2726 -13.1945 -13.1913 -13.1913 -13.1834 -13.1834 -13.1793
   -13.1780 -13.1765 -13.1765 -13.1725 -13.1724 -13.1724 -13.1703 -13.1703
   -13.1693 -13.1690 -13.1682 -13.1682 -13.1664 -13.1664 -13.1659 -13.1647
   -13.1647 -13.1634 -13.1581 -13.1572 -13.1572 -13.1567 -13.1567 -13.1556
   -13.1379 -13.1305 -13.1305 -13.1249 -13.1249 -13.1207 -13.1207 -13.1203
   -13.1174 -13.1155 -13.1155 -13.1117 -13.1117 -13.1116 -13.1116 -13.1116
   -13.1100 -13.1094 -13.1082 -13.1082 -13.1081 -13.1081 -13.1060 -13.1060
   -13.1056 -13.1056 -13.0972 -13.0972 -13.0969 -13.0942 -13.0942 -13.0942
   -13.0937 -13.0931 -13.0931 -12.9140 -12.9140 -12.9115 -12.9115 -12.9090
   -12.9085 -12.9085 -12.9083 -12.9077 -12.9069 -12.9042 -12.9042 -12.9005
   -12.9005 -12.9004 -12.9004 -12.9004 -12.8997 -12.8997 -12.8990 -12.8990
   -12.8982 -12.8982 -12.8975 -12.8963 -12.8963 -12.8962 -12.8962 -12.8955
   -12.8953 -12.8943 -12.8943 -12.8943 -12.8925 -12.8925 -12.8923 -12.8923
   -12.8921 -12.8915 -12.8914 -12.8910 -12.8909 -12.8905 -12.8905 -12.8904
   -12.8904 -12.8891 -12.8889 -12.8889 -12.8888 -12.8885 -12.8885 -12.8882
   -12.8878 -12.8877 -12.8877 -12.8872 -12.8867 -12.8867 -12.8850 -12.8850
   -12.8843 -12.8842 -12.8842 -12.8840 -12.8834 -12.8830 -12.8830 -12.8828
   -12.8828 -12.8828 -12.8828 -12.8825 -12.8825 -12.8825 -12.8824 -12.8824
   -12.8817 -12.8817 -12.8817 -12.8816 -12.8811 -12.8811 -12.8810 -12.8806
   -12.8806 -12.8805 -12.8805 -12.8805 -12.8799 -12.8796 -12.8793 -12.8793
   -12.8791 -12.8791 -12.8790 -12.8787 -12.8786 -12.8786 -12.8786 -12.8784
   -12.8784 -12.8781 -12.8781 -12.8777 -12.8777 -12.8777 -12.8776 -12.8776
   -12.8774 -12.8773 -12.8772 -12.8772 -12.8768 -12.8768 -12.8767 -12.8767
   -12.8766 -12.8766 -12.8763 -12.8763 -12.8762 -12.8762 -12.8761 -12.8758
   -12.8755 -12.8755 -12.8753 -12.8753 -12.8752 -12.8752 -12.8745 -12.8745
   -12.8743 -12.8742 -12.8742 -12.8739 -12.8739 -12.8739 -12.8738 -12.8738
   -12.8737 -12.8725 -12.8724 -12.8724 -12.8722 -12.8722 -12.8722 -12.8712
   -12.8711 -12.8711 -12.8707 -12.8703 -12.8703 -12.8694 -12.8694 -12.8689
   -12.8689 -12.8684 -12.8683  -8.3458  -8.2405  -8.2404  -8.1440  -8.1140
    -8.1140  -8.0751  -8.0488  -8.0161  -7.9542  -7.9542  -7.9249  -7.8597
    -7.8539  -7.8539  -7.8524  -7.8520  -7.8520  -7.8475  -7.8385  -7.8385
    -7.8373  -7.8373  -7.8358  -7.8313  -7.8287  -7.8257  -7.8248  -7.8247
    -7.8122  -7.8122  -7.7922  -7.7922  -7.7724  -7.7658  -7.7658  -7.7479
    -7.7259  -7.7259  -7.7238  -7.7140  -7.7140  -7.7002  -7.6904  -7.6904
    -7.6294  -7.5997  -7.5992  -7.5992  -7.5973  -7.5964  -7.5964  -7.5813
    -7.5813  -7.5806  -7.5801  -7.5794  -7.5794  -7.5771  -7.5761  -7.5761
    -7.5692  -7.5625  -7.5625  -7.5603  -7.5379  -7.5378  -7.5378  -7.5366
    -7.5366  -7.5357  -7.4936  -7.4933  -7.4933  -7.4922  -7.4922  -7.4922
    -7.4818  -7.4818  -7.4790  -7.4659  -7.4652  -7.4652  -7.4637  -7.4637
    -7.4632  -7.4628  -7.4628  -7.4601  -7.4458  -7.4452  -7.4452  -7.4431
    -7.4430  -7.4430  -3.9449  -3.9449  -3.9156  -3.8726  -3.8600  -3.8600
    -3.8520  -3.8337  -3.8337  -3.6774  -3.6204  -3.6204  -3.6053  -3.6016
    -3.6016  -3.5979  -3.5953  -3.5953  -3.5934  -3.5934  -3.5892  -3.5886
    -3.5874  -3.5872  -3.5872  -3.5868  -3.5867  -3.5847  -3.5846  -3.5846
    -3.5707  -3.5707  -3.5688  -3.3837  -3.3406  -3.3380  -3.3380  -3.3340
    -3.3337  -3.3337  -3.3279  -3.3244  -3.3244  -3.3215  -3.3215  -3.3214
    -3.1320  -3.0960   0.7367   0.7369   0.7369   0.9491   0.9495   0.9495
     0.9649   1.0122   1.0122   1.0404   1.0404   1.0527   1.1144   1.1144
     1.1155   1.1432   1.1432   1.1534   1.1672   1.1751   1.1752   1.2622
     1.2846   1.2846   1.3075   1.3075   1.3104   1.3154   1.3287   1.3288
     1.3583   1.3583   1.3607   1.3628   1.3628   1.3684   1.3969   1.4116
     1.4116   1.4715   1.4715   1.4745   1.4745   1.4755   1.4767   1.4976
     1.4985   1.4985   1.5007   1.5007   1.5047   1.5288   1.5290   1.5290
     1.5309   1.5309   1.5357   1.6010   1.6241   1.6386   1.6386   1.6606
     1.6674   1.6674   1.6839   1.6839   1.7150   1.7150   1.7330   1.7353
     1.7353   1.7356   1.7416   1.7661   1.7661   1.8674   1.8841   1.8841
     1.8849   1.8864   1.8864   1.8874   1.9163   1.9164   1.9249   1.9286
     1.9286   1.9331   1.9331   1.9676   1.9766   1.9767   1.9811   1.9856
     1.9856   2.0100   2.0100   2.0141   2.0141   2.0224   2.0241   2.0266
     2.0266   2.0289   2.0289   2.0306   2.0317   2.0318   2.0378   2.0742
     2.0742   2.1166   2.1178   2.1178   2.1205   2.1205   2.1268   2.1398
     2.1518   2.1519   2.1585   2.1663   2.1663   2.1911   2.2057   2.2256
     2.2256   2.2494   2.2753   2.2753   2.2790   2.2801   2.2808   2.2808
     2.2859   2.2859   2.2928   2.3344   2.3368   2.3368   2.3369   2.3408
     2.3408   2.3984   2.4008   2.4008   2.4585   2.4585   2.4787   2.4872
     2.4872   2.4978   2.4978   2.5065   2.5137   2.5137   2.5256   2.5329
     2.5377   2.5377   2.5416   2.5430   2.5430   2.5577   2.5577   2.5724
     2.6215   2.6340   2.6409   2.6409   2.6716   2.6716   2.6717   2.6769
     2.6890   2.6890   2.6999   2.6999   2.7031   2.7050   2.7050   2.7149
     2.7214   2.7214   2.7536   2.7536   2.7553   2.7783   2.7783   2.7826
     2.7826   2.7871   2.7871   2.7923   2.7965   2.7965   2.8007   2.8007
     2.8012   2.8042   2.8424   2.8424   2.8424   2.8835   2.8999   2.8999
     2.9197   2.9214   2.9214   2.9256   2.9264   2.9264   2.9275   2.9283
     2.9283   2.9379   2.9412   2.9414   2.9414   2.9425   2.9425   2.9445
     2.9449   2.9449   2.9482   2.9497   2.9497   2.9566   2.9569   2.9569
     2.9621   2.9621   2.9626   2.9649   2.9649   2.9662   2.9942   2.9942
     3.0074   3.0074   3.0150   3.0150   3.0168   3.0194   3.0202   3.0202
     3.0245   3.0245   3.0261   3.0336   3.0568   3.0660   3.0660   3.0708
     3.0777   3.0777   3.1617   3.1801   3.1801   3.2663   3.2806   3.2806
     3.2892   3.2904   3.2904   3.2943   3.3073   3.3076   3.3076   3.3082
     3.3115   3.3115   3.3833   3.3834   3.3834   3.3866   3.3866   3.3868
     3.3904   3.3964   3.3964   3.3973   3.3975   3.3975   3.3995   5.5294
     5.8841   6.0110   6.1292   6.2884   6.2885   6.3325   6.3378   6.3378
     6.4069   6.4703   6.4703   6.4874   6.4874   6.5087   6.5331   6.5331
     6.5333   6.5524   6.5524   6.6323   6.6570   6.6570   6.7407   6.7444
     6.7444   6.7593   6.7602   6.7602   6.7687   6.7687   6.7701   6.8405
     6.8405   6.8426   6.8576   6.8576   6.8779   6.8812   6.8812   6.9098
     6.9098   6.9173   6.9173   6.9260   6.9398   6.9649   6.9649   6.9949
     6.9949   6.9967   7.0141   7.0180   7.0180   7.0609   7.0609   7.0634
     7.0928   7.0928   7.1039   7.1502   7.1502   7.1621   7.1988   7.2005
     7.2005   7.2098   7.2098   7.2147   7.2184   7.2184   7.2193   7.2338
     7.2338   7.2376   7.2399   7.2399   7.2459   7.2554   7.2554   7.2567
     7.2872   7.2872   7.2978   7.3002   7.3002   7.3015   7.3065   7.3078
     7.3078   7.3119   7.3119   7.3128   7.3766   7.3766   7.3796   7.3894
     7.3909   7.3909   7.3945   7.3945   7.4013   7.4289   7.4289   7.4308
     7.4404   7.4404   7.4407   7.4455   7.4455   7.4459   7.4816   7.4816
     7.4841   7.4904   7.4932   7.4932   7.5098   7.5098   7.5158   7.5317
     7.5336   7.5336   7.5553   7.5618   7.5618   7.5735   7.5826   7.5826
     7.6984   7.7111   7.7111   7.7152   7.7152   7.7168   7.7287   7.7406
     7.7406   7.7443   7.7443   7.7450   8.0035   8.0078   8.0078   8.8913
     9.1199   9.1199   9.1847   9.5166   9.5166   9.5188   9.6173   9.6173
     9.6173   9.6849   9.6889   9.6889   9.7236   9.7236   9.7381   9.8598
     9.8808   9.8818   9.8818   9.8870   9.8870   9.9135   9.9469   9.9469
     9.9637   9.9815   9.9968   9.9968  10.1096  10.1096  10.1701  10.1721
    10.1724  10.1724  10.1787  10.1816  10.1816  10.2021  10.2021  10.2250
    10.2621  10.2903  10.2923  10.2924  10.3040  10.3078  10.3078  10.3358
    10.3404  10.3404  10.3733  10.3741  10.3741  10.4021  10.5884  10.5884
    10.5939  10.5939  10.5984  10.6510  10.6510  10.6840  10.7027  10.7301
    10.7301  10.7378  10.7491  10.7576  10.7584  10.7584  10.7746  10.7746
    10.7919  10.8156  10.8156  10.8593  10.8593  10.9124  10.9581  10.9581
    10.9627  10.9833  10.9833  10.9899

     occupation numbers 
     1.0000   1.0000   1.0000   1.0000   1.0000   1.0000   1.0000   1.0000
     1.0000   1.0000   1.0000   1.0000   1.0000   1.0000   1.0000   1.0000
     1.0000   1.0000   1.0000   1.0000   1.0000   1.0000   1.0000   1.0000
     1.0000   1.0000   1.0000   1.0000   1.0000   1.0000   1.0000   1.0000
     1.0000   1.0000   1.0000   1.0000   1.0000   1.0000   1.0000   1.0000
     1.0000   1.0000   1.0000   1.0000   1.0000   1.0000   1.0000   1.0000
     1.0000   1.0000   1.0000   1.0000   1.0000   1.0000   1.0000   1.0000
     1.0000   1.0000   1.0000   1.0000   1.0000   1.0000   1.0000   1.0000
     1.0000   1.0000   1.0000   1.0000   1.0000   1.0000   1.0000   1.0000
     1.0000   1.0000   1.0000   1.0000   1.0000   1.0000   1.0000   1.0000
     1.0000   1.0000   1.0000   1.0000   1.0000   1.0000   1.0000   1.0000
     1.0000   1.0000   1.0000   1.0000   1.0000   1.0000   1.0000   1.0000
     1.0000   1.0000   1.0000   1.0000   1.0000   1.0000   1.0000   1.0000
     1.0000   1.0000   1.0000   1.0000   1.0000   1.0000   1.0000   1.0000
     1.0000   1.0000   1.0000   1.0000   1.0000   1.0000   1.0000   1.0000
     1.0000   1.0000   1.0000   1.0000   1.0000   1.0000   1.0000   1.0000
     1.0000   1.0000   1.0000   1.0000   1.0000   1.0000   1.0000   1.0000
     1.0000   1.0000   1.0000   1.0000   1.0000   1.0000   1.0000   1.0000
     1.0000   1.0000   1.0000   1.0000   1.0000   1.0000   1.0000   1.0000
     1.0000   1.0000   1.0000   1.0000   1.0000   1.0000   1.0000   1.0000
     1.0000   1.0000   1.0000   1.0000   1.0000   1.0000   1.0000   1.0000
     1.0000   1.0000   1.0000   1.0000   1.0000   1.0000   1.0000   1.0000
     1.0000   1.0000   1.0000   1.0000   1.0000   1.0000   1.0000   1.0000
     1.0000   1.0000   1.0000   1.0000   1.0000   1.0000   1.0000   1.0000
     1.0000   1.0000   1.0000   1.0000   1.0000   1.0000   1.0000   1.0000
     1.0000   1.0000   1.0000   1.0000   1.0000   1.0000   1.0000   1.0000
     1.0000   1.0000   1.0000   1.0000   1.0000   1.0000   1.0000   1.0000
     1.0000   1.0000   1.0000   1.0000   1.0000   1.0000   1.0000   1.0000
     1.0000   1.0000   1.0000   1.0000   1.0000   1.0000   1.0000   1.0000
     1.0000   1.0000   1.0000   1.0000   1.0000   1.0000   1.0000   1.0000
     1.0000   1.0000   1.0000   1.0000   1.0000   1.0000   1.0000   1.0000
     1.0000   1.0000   1.0000   1.0000   1.0000   1.0000   1.0000   1.0000
     1.0000   1.0000   1.0000   1.0000   1.0000   1.0000   1.0000   1.0000
     1.0000   1.0000   1.0000   1.0000   1.0000   1.0000   1.0000   1.0000
     1.0000   1.0000   1.0000   1.0000   1.0000   1.0000   1.0000   1.0000
     1.0000   1.0000   1.0000   1.0000   1.0000   1.0000   1.0000   1.0000
     1.0000   1.0000   1.0000   1.0000   1.0000   1.0000   1.0000   1.0000
     1.0000   1.0000   1.0000   1.0000   1.0000   1.0000   1.0000   1.0000
     1.0000   1.0000   1.0000   1.0000   1.0000   1.0000   1.0000   1.0000
     1.0000   1.0000   1.0000   1.0000   1.0000   1.0000   1.0000   1.0000
     1.0000   1.0000   1.0000   1.0000   1.0000   1.0000   1.0000   1.0000
     1.0000   1.0000   1.0000   1.0000   1.0000   1.0000   1.0000   1.0000
     1.0000   1.0000   1.0000   1.0000   1.0000   1.0000   1.0000   1.0000
     1.0000   1.0000   1.0000   1.0000   1.0000   1.0000   1.0000   1.0000
     1.0000   1.0000   1.0000   1.0000   1.0000   1.0000   1.0000   1.0000
     1.0000   1.0000   1.0000   1.0000   1.0000   1.0000   1.0000   1.0000
     1.0000   1.0000   1.0000   1.0000   1.0000   1.0000   1.0000   1.0000
     1.0000   1.0000   1.0000   1.0000   1.0000   1.0000   1.0000   1.0000
     1.0000   1.0000   1.0000   1.0000   1.0000   1.0000   1.0000   1.0000
     1.0000   1.0000   1.0000   1.0000   1.0000   1.0000   1.0000   1.0000
     1.0000   1.0000   1.0000   1.0000   1.0000   1.0000   1.0000   1.0000
     1.0000   1.0000   1.0000   1.0000   1.0000   1.0000   1.0000   1.0000
     1.0000   1.0000   1.0000   1.0000   1.0000   1.0000   1.0000   1.0000
     1.0000   1.0000   1.0000   1.0000   1.0000   1.0000   1.0000   1.0000
     1.0000   1.0000   1.0000   1.0000   1.0000   1.0000   1.0000   1.0000
     1.0000   1.0000   1.0000   1.0000   1.0000   1.0000   1.0000   1.0000
     1.0000   1.0000   1.0000   1.0000   1.0000   1.0000   1.0000   1.0000
     1.0000   1.0000   1.0000   1.0000   1.0000   1.0000   1.0000   1.0000
     1.0000   1.0000   1.0000   1.0000   1.0000   1.0000   1.0000   1.0000
     1.0000   1.0000   1.0000   1.0000   1.0000   1.0000   1.0000   1.0000
     1.0000   1.0000   1.0000   1.0000   1.0000   1.0000   1.0000   1.0000
     1.0000   1.0000   1.0000   1.0000   1.0000   1.0000   1.0000   1.0000
     1.0000   1.0000   1.0000   1.0000   1.0000   1.0000   1.0000   1.0000
     1.0000   1.0000   1.0000   1.0000   1.0000   1.0000   1.0000   1.0000
     1.0000   1.0000   1.0000   1.0000   1.0000   1.0000   1.0000   1.0000
     1.0000   1.0000   1.0000   1.0000   1.0000   1.0000   1.0000   1.0000
     1.0000   1.0000   1.0000   1.0000   1.0000   1.0000   1.0000   1.0000
     1.0000   1.0000   1.0000   1.0000   1.0000   1.0000   1.0000   1.0000
     1.0000   1.0000   1.0000   1.0000   1.0000   1.0000   1.0000   1.0000
     1.0000   1.0000   1.0000   1.0000   1.0000   1.0000   1.0000   1.0000
     1.0000   1.0000   1.0000   1.0000   1.0000   1.0000   1.0000   1.0000
     1.0000   1.0000   1.0000   1.0000   1.0000   1.0000   1.0000   1.0000
     1.0000   1.0000   1.0000   1.0000   1.0000   1.0000   1.0000   1.0000
     1.0000   1.0000   1.0000   1.0000   1.0000   1.0000   1.0000   1.0000
     1.0000   1.0000   1.0000   1.0000   1.0000   1.0000   1.0000   1.0000
     1.0000   1.0000   1.0000   1.0000   1.0000   1.0000   1.0000   1.0000
     1.0000   1.0000   1.0000   1.0000   1.0000   1.0000   1.0000   1.0000
     1.0000   1.0000   1.0000   1.0000   1.0000   1.0000   1.0000   1.0000
     1.0000   1.0000   1.0000   1.0000   1.0000   1.0000   1.0000   1.0000
     1.0000   1.0000   1.0000   1.0000   1.0000   1.0000   1.0000   1.0000
     1.0000   1.0000   1.0000   1.0000   1.0000   1.0000   1.0000   1.0000
     1.0000   1.0000   1.0000   1.0000   1.0000   1.0000   1.0000   1.0000
     1.0000   1.0000   1.0000   1.0000   1.0000   1.0000   1.0000   1.0000
     1.0000   1.0000   1.0000   1.0000   1.0000   1.0000   1.0000   1.0000
     1.0000   1.0000   1.0000   1.0000   1.0000   1.0000   1.0000   1.0000
     1.0000   1.0000   1.0000   1.0000   1.0000   1.0000   1.0000   1.0000
     1.0000   1.0000   1.0000   1.0000   1.0000   1.0000   1.0000   1.0000
     1.0000   1.0000   1.0000   1.0000   1.0000   1.0000   1.0000   1.0000
     1.0000   1.0000   1.0000   1.0000   1.0000   1.0000   1.0000   1.0000
     1.0000   1.0000   1.0000   1.0000   1.0000   1.0000   1.0000   1.0000
     1.0000   1.0000   1.0000   1.0000   1.0000   1.0000   1.0000   1.0000
     1.0000   1.0000   1.0000   1.0000   1.0000   1.0000   1.0000   1.0000
     1.0000   1.0000   1.0000   1.0000   1.0000   1.0000   1.0000   1.0000
     1.0000   1.0000   1.0000   1.0000   1.0000   1.0000   1.0000   1.0000
     1.0000   1.0000   1.0000   1.0000   1.0000   1.0000   1.0000   1.0000
     1.0000   1.0000   1.0000   1.0000   1.0000   1.0000   1.0000   1.0000
     1.0000   1.0000   1.0000   1.0000   1.0000   1.0000   1.0000   1.0000
     1.0000   1.0000   1.0000   1.0000   1.0000   1.0000   1.0000   1.0000
     1.0000   1.0000   1.0000   1.0000   1.0000   1.0000   1.0000   1.0000
     1.0000   1.0000   1.0000   1.0000   1.0000   1.0000   1.0000   1.0000
     1.0000   1.0000   1.0000   1.0000   1.0000   1.0000   1.0000   1.0000
     1.0000   1.0000   1.0000   1.0000   1.0000   1.0000   1.0000   1.0000
     1.0000   1.0000   1.0000   1.0000   1.0000   1.0000   1.0000   1.0000
     1.0000   1.0000   1.0000   1.0000   1.0000   1.0000   1.0000   1.0000
     1.0000   1.0000   1.0000   1.0000   1.0000   1.0000   1.0000   1.0000
     1.0000   1.0000   1.0000   1.0000   1.0000   1.0000   1.0000   1.0000
     1.0000   1.0000   1.0000   1.0000   1.0000   1.0000   1.0000   1.0000
     1.0000   1.0000   1.0000   1.0000   1.0000   1.0000   1.0000   1.0000
     1.0000   1.0000   1.0000   1.0000   1.0000   1.0000   1.0000   1.0000
     1.0000   1.0000   1.0000   1.0000   1.0000   1.0000   1.0000   1.0000
     1.0000   1.0000   1.0000   1.0000   1.0000   1.0000   1.0000   1.0000
     1.0000   1.0000   1.0000   1.0000   1.0000   1.0000   1.0000   1.0000
     1.0000   1.0000   1.0000   1.0000   1.0000   1.0000   1.0000   1.0000
     1.0000   1.0000   1.0000   1.0000   1.0000   1.0000   1.0000   1.0000
     1.0000   1.0000   1.0000   1.0000   1.0000   1.0000   1.0000   1.0000
     1.0000   1.0000   1.0000   1.0000   1.0000   1.0000   1.0000   1.0000
     1.0000   1.0000   1.0000   1.0000   1.0000   1.0000   1.0000   1.0000
     1.0000   1.0000   1.0000   1.0000   1.0000   1.0000   1.0000   1.0000
     1.0000   1.0000   1.0000   1.0000   1.0000   1.0000   1.0000   1.0000
     1.0000   1.0000   1.0000   1.0000   1.0000   1.0000   1.0000   1.0000
     1.0000   1.0000   1.0000   1.0000   1.0000   1.0000   1.0000   1.0000
     1.0000   1.0000   1.0000   1.0000   1.0000   1.0000   1.0000   1.0000
     1.0000   1.0000   1.0000   1.0000   1.0000   1.0000   1.0000   1.0000
     1.0000   1.0000   1.0000   1.0000   1.0000   1.0000   1.0000   1.0000
     1.0000   1.0000   1.0000   1.0000   1.0000   1.0000   1.0000   1.0000
     1.0000   1.0000   1.0000   1.0000   1.0000   1.0000   1.0000   1.0000
     1.0000   1.0000   1.0000   1.0000   1.0000   1.0000   1.0000   1.0000
     1.0000   1.0000   1.0000   1.0000   1.0000   1.0000   1.0000   1.0000
     1.0000   1.0000   1.0000   1.0000   1.0000   1.0000   1.0000   1.0000
     1.0000   1.0000   1.0000   1.0000   1.0000   1.0000   1.0000   1.0000
     1.0000   1.0000   1.0000   1.0000   1.0000   1.0000   1.0000   1.0000
     1.0000   1.0000   1.0000   1.0000   1.0000   1.0000   1.0000   1.0000
     1.0000   1.0000   1.0000   1.0000   1.0000   1.0000   1.0000   1.0000
     1.0000   1.0000   1.0000   1.0000   1.0000   1.0000   1.0000   1.0000
     1.0000   1.0000   1.0000   1.0000   1.0000   1.0000   1.0000   1.0000
     1.0000   1.0000   1.0000   1.0000   1.0000   1.0000   1.0000   1.0000
     1.0000   1.0000   1.0000   1.0000   1.0000   1.0000   1.0000   1.0000
     1.0000   1.0000   1.0000   1.0000   1.0000   1.0000   1.0000   1.0000
     1.0000   1.0000   1.0000   1.0000   1.0000   1.0000   1.0000   1.0000
     1.0000   1.0000   1.0000   1.0000   1.0000   1.0000   1.0000   1.0000
     1.0000   1.0000   1.0000   1.0000   1.0000   1.0000   1.0000   1.0000
     1.0000   1.0000   1.0000   1.0000   1.0000   1.0000   1.0000   1.0000
     1.0000   1.0000   1.0000   1.0000   1.0000   1.0000   1.0000   0.0000
     0.0000   0.0000   0.0000   0.0000   0.0000   0.0000   0.0000   0.0000
     0.0000   0.0000   0.0000   0.0000   0.0000   0.0000   0.0000   0.0000
     0.0000   0.0000   0.0000   0.0000   0.0000   0.0000   0.0000   0.0000
     0.0000   0.0000   0.0000   0.0000   0.0000   0.0000   0.0000   0.0000
     0.0000   0.0000   0.0000   0.0000   0.0000   0.0000   0.0000   0.0000
     0.0000   0.0000   0.0000   0.0000   0.0000   0.0000   0.0000   0.0000
     0.0000   0.0000   0.0000   0.0000   0.0000   0.0000   0.0000   0.0000
     0.0000   0.0000   0.0000   0.0000   0.0000   0.0000   0.0000   0.0000
     0.0000   0.0000   0.0000   0.0000   0.0000   0.0000   0.0000   0.0000
     0.0000   0.0000   0.0000   0.0000   0.0000   0.0000   0.0000   0.0000
     0.0000   0.0000   0.0000   0.0000   0.0000   0.0000   0.0000   0.0000
     0.0000   0.0000   0.0000   0.0000   0.0000   0.0000   0.0000   0.0000
     0.0000   0.0000   0.0000   0.0000   0.0000   0.0000   0.0000   0.0000
     0.0000   0.0000   0.0000   0.0000   0.0000   0.0000   0.0000   0.0000
     0.0000   0.0000   0.0000   0.0000   0.0000   0.0000   0.0000   0.0000
     0.0000   0.0000   0.0000   0.0000   0.0000   0.0000   0.0000   0.0000
     0.0000   0.0000   0.0000   0.0000   0.0000   0.0000   0.0000   0.0000
     0.0000   0.0000   0.0000   0.0000   0.0000   0.0000   0.0000   0.0000
     0.0000   0.0000   0.0000   0.0000   0.0000   0.0000   0.0000   0.0000
     0.0000   0.0000   0.0000   0.0000   0.0000   0.0000   0.0000   0.0000
     0.0000   0.0000   0.0000   0.0000   0.0000   0.0000   0.0000   0.0000
     0.0000   0.0000   0.0000   0.0000   0.0000   0.0000   0.0000   0.0000
     0.0000   0.0000   0.0000   0.0000   0.0000   0.0000   0.0000   0.0000
     0.0000   0.0000   0.0000   0.0000   0.0000   0.0000   0.0000   0.0000
     0.0000   0.0000   0.0000   0.0000   0.0000   0.0000   0.0000   0.0000
     0.0000   0.0000   0.0000   0.0000   0.0000   0.0000   0.0000   0.0000
     0.0000   0.0000   0.0000   0.0000   0.0000   0.0000   0.0000   0.0000
     0.0000   0.0000   0.0000   0.0000   0.0000   0.0000   0.0000   0.0000
     0.0000   0.0000   0.0000   0.0000

     the Fermi energy is     4.6104 ev

!    total energy              =  -96571.02763101 Ry
     total all-electron energy =  -3359210.587872 Ry
     estimated scf accuracy    <          2.0E-10 Ry
     smearing contrib. (-TS)   =      -0.00000000 Ry
     internal energy E=F+TS    =  -96571.02763101 Ry

     The total energy is F=E-TS. E is the sum of the following terms:
     one-electron contribution =  -17949.96004580 Ry
     hartree contribution      =   10014.40979065 Ry
     xc contribution           =   -6750.25555916 Ry
     ewald contribution        =  -14600.89588558 Ry
     one-center paw contrib.   =  -67284.32593112 Ry
      -> PAW hartree energy AE =      95.89045617 Ry
      -> PAW hartree energy PS =     -96.12706624 Ry
      -> PAW xc energy AE      =    -798.42870744 Ry
      -> PAW xc energy PS      =      33.30882458 Ry
      -> total E_H with PAW    =   10014.17318057 Ry
      -> total E_XC with PAW   =   -7515.37544202 Ry

     convergence has been achieved in  13 iterations


     -----------------------------------------------
     Non-local corr. energy    =      68.48530721 Ry
     -----------------------------------------------


     Forces acting on atoms (cartesian axes, Ry/au):

     atom    1 type  1   force =    -0.00000023   -0.00010523    0.00009284
     atom    2 type  1   force =    -0.00000050   -0.00045636    0.00037991
     atom    3 type  1   force =     0.00000003   -0.00005812    0.00020231
     atom    4 type  1   force =    -0.00003490   -0.00008134   -0.00019392
     atom    5 type  1   force =    -0.00059994    0.00036265   -0.00077181
     atom    6 type  1   force =     0.00013493    0.00002728    0.00045990
     atom    7 type  1   force =    -0.00008825    0.00001079   -0.00019335
     atom    8 type  1   force =     0.00001323   -0.00070160   -0.00077225
     atom    9 type  1   force =     0.00009051    0.00010300    0.00046005
     atom   10 type  1   force =    -0.00009160    0.00005229    0.00009334
     atom   11 type  1   force =    -0.00040346    0.00023396    0.00037721
     atom   12 type  1   force =    -0.00005082    0.00002944    0.00020276
     atom   13 type  1   force =    -0.00001028   -0.00000586   -0.00007490
     atom   14 type  1   force =    -0.00063866   -0.00036904   -0.00047403
     atom   15 type  1   force =    -0.00010261   -0.00005884    0.00041119
     atom   16 type  1   force =     0.00003421   -0.00008139   -0.00019439
     atom   17 type  1   force =     0.00059916    0.00036264   -0.00077222
     atom   18 type  1   force =    -0.00013449    0.00002726    0.00045963
     atom   19 type  1   force =    -0.00000033    0.00000053   -0.00028748
     atom   20 type  1   force =     0.00000205   -0.00000163   -0.00070312
     atom   21 type  1   force =     0.00000107   -0.00000091    0.00049584
     atom   22 type  1   force =    -0.00005344    0.00007107   -0.00019324
     atom   23 type  1   force =     0.00061556    0.00033862   -0.00077192
     atom   24 type  1   force =    -0.00004339   -0.00013020    0.00046018
     atom   25 type  1   force =    -0.00000007    0.00015368   -0.00031700
     atom   26 type  1   force =     0.00000069    0.00045810    0.00023544
     atom   27 type  1   force =     0.00000009   -0.00019231    0.00034813
     atom   28 type  1   force =     0.00013248   -0.00007658   -0.00031748
     atom   29 type  1   force =     0.00040065   -0.00023018    0.00023593
     atom   30 type  1   force =    -0.00016689    0.00009695    0.00034782
     atom   31 type  1   force =     0.00008773    0.00001104   -0.00019465
     atom   32 type  1   force =    -0.00001391   -0.00069809   -0.00077104
     atom   33 type  1   force =    -0.00009068    0.00010361    0.00045930
     atom   34 type  1   force =     0.00005324    0.00007117   -0.00019391
     atom   35 type  1   force =    -0.00061321    0.00033695   -0.00077042
     atom   36 type  1   force =     0.00004422   -0.00013086    0.00045986
     atom   37 type  1   force =     0.00000979   -0.00000568   -0.00007512
     atom   38 type  1   force =     0.00063763   -0.00036865   -0.00047382
     atom   39 type  1   force =     0.00010220   -0.00005953    0.00041138
     atom   40 type  1   force =    -0.00013280   -0.00007651   -0.00031726
     atom   41 type  1   force =    -0.00039893   -0.00022992    0.00023577
     atom   42 type  1   force =     0.00016627    0.00009660    0.00034800
     atom   43 type  1   force =    -0.00000007    0.00001160   -0.00007568
     atom   44 type  1   force =    -0.00000021    0.00073869   -0.00047260
     atom   45 type  1   force =    -0.00000083    0.00011872    0.00041127
     atom   46 type  1   force =     0.00009151    0.00005250    0.00009269
     atom   47 type  1   force =     0.00039328    0.00022853    0.00038369
     atom   48 type  1   force =     0.00004996    0.00002892    0.00020219
     atom   49 type  2   force =    -0.00000119    0.00000066   -0.00000549
     atom   50 type  2   force =    -0.00000052   -0.00000018    0.00008043
     atom   51 type  2   force =     0.00001116    0.00021469   -0.00005838
     atom   52 type  2   force =     0.00004604   -0.00008953   -0.00034233
     atom   53 type  2   force =     0.00004724    0.00001865    0.00004692
     atom   54 type  2   force =     0.00026730    0.00015794    0.00052256
     atom   55 type  2   force =    -0.00014751   -0.00008553   -0.00032722
     atom   56 type  2   force =     0.00005180    0.00002916    0.00006407
     atom   57 type  2   force =     0.00019472   -0.00009949   -0.00005789
     atom   58 type  2   force =    -0.00005428    0.00008519   -0.00034265
     atom   59 type  2   force =     0.00004076    0.00003133    0.00004635
     atom   60 type  2   force =     0.00018320   -0.00011784   -0.00005798
     atom   61 type  2   force =    -0.00010060    0.00000481   -0.00034234
     atom   62 type  2   force =    -0.00000721   -0.00005130    0.00004675
     atom   63 type  2   force =    -0.00001305    0.00021497   -0.00005854
     atom   64 type  2   force =    -0.00004709   -0.00008900   -0.00034242
     atom   65 type  2   force =    -0.00004815    0.00001884    0.00004685
     atom   66 type  2   force =    -0.00000055    0.00016513    0.00014171
     atom   67 type  2   force =    -0.00000010   -0.00006882   -0.00021925
     atom   68 type  2   force =    -0.00000034    0.00002021    0.00006146
     atom   69 type  2   force =     0.00014310   -0.00008316    0.00014123
     atom   70 type  2   force =    -0.00006038    0.00003529   -0.00021988
     atom   71 type  2   force =     0.00001799   -0.00001033    0.00006152
     atom   72 type  2   force =    -0.00000100   -0.00030370    0.00051831
     atom   73 type  2   force =     0.00000071    0.00017064   -0.00032810
     atom   74 type  2   force =     0.00000086   -0.00005926    0.00006360
     atom   75 type  2   force =     0.00018141    0.00010444   -0.00027825
     atom   76 type  2   force =     0.00000907    0.00000596   -0.00011310
     atom   77 type  2   force =    -0.00006042   -0.00003540    0.00008026
     atom   78 type  2   force =    -0.00026795    0.00015713    0.00052000
     atom   79 type  2   force =     0.00014738   -0.00008449   -0.00032709
     atom   80 type  2   force =    -0.00005154    0.00003017    0.00006357
     atom   81 type  2   force =    -0.00014346   -0.00008277    0.00014074
     atom   82 type  2   force =     0.00006036    0.00003542   -0.00021875
     atom   83 type  2   force =    -0.00001748   -0.00000965    0.00006123
     atom   84 type  2   force =    -0.00018136   -0.00011758   -0.00005836
     atom   85 type  2   force =     0.00010060    0.00000516   -0.00034128
     atom   86 type  2   force =     0.00000766   -0.00005068    0.00004692
     atom   87 type  2   force =    -0.00017917    0.00010377   -0.00027749
     atom   88 type  2   force =    -0.00000866    0.00000524   -0.00011290
     atom   89 type  2   force =     0.00006213   -0.00003565    0.00008051
     atom   90 type  2   force =     0.00000066   -0.00021013   -0.00027613
     atom   91 type  2   force =    -0.00000034   -0.00000992   -0.00011284
     atom   92 type  2   force =     0.00000058    0.00006921    0.00008008
     atom   93 type  2   force =    -0.00019449   -0.00009662   -0.00005846
     atom   94 type  2   force =     0.00005361    0.00008555   -0.00034179
     atom   95 type  2   force =    -0.00004062    0.00003211    0.00004634
     atom   96 type  2   force =     0.00000028   -0.00000081    0.00009368
     atom   97 type  2   force =    -0.00016578    0.00009354   -0.00031641
     atom   98 type  2   force =    -0.00000602    0.00000383   -0.00008414
     atom   99 type  2   force =     0.00011425    0.00005517    0.00011742
     atom  100 type  2   force =     0.00022474    0.00025445    0.00039583
     atom  101 type  2   force =    -0.00006136    0.00004037   -0.00010080
     atom  102 type  2   force =     0.00010480    0.00007078    0.00011683
     atom  103 type  2   force =     0.00033274    0.00006746    0.00039612
     atom  104 type  2   force =     0.00000387   -0.00007286   -0.00010080
     atom  105 type  2   force =    -0.00000086    0.00000055    0.00009330
     atom  106 type  2   force =    -0.00000072   -0.00020093   -0.00031631
     atom  107 type  2   force =    -0.00000086   -0.00000621   -0.00008433
     atom  108 type  2   force =    -0.00000076   -0.00000005    0.00009332
     atom  109 type  2   force =     0.00016744    0.00009512   -0.00031860
     atom  110 type  2   force =     0.00000549    0.00000452   -0.00008483
     atom  111 type  2   force =     0.00000019    0.00006566    0.00009066
     atom  112 type  2   force =     0.00000240    0.00054221    0.00047548
     atom  113 type  2   force =     0.00000036   -0.00006581   -0.00034619
     atom  114 type  2   force =    -0.00001053   -0.00000676    0.00015591
     atom  115 type  2   force =     0.00043702    0.00025436    0.00091794
     atom  116 type  2   force =    -0.00015229   -0.00008833   -0.00028471
     atom  117 type  2   force =     0.00005683   -0.00003241    0.00009037
     atom  118 type  2   force =     0.00047727   -0.00028322    0.00048146
     atom  119 type  2   force =    -0.00005733    0.00003371   -0.00034647
     atom  120 type  2   force =    -0.00000830   -0.00012611    0.00011688
     atom  121 type  2   force =     0.00010772   -0.00032081    0.00039582
     atom  122 type  2   force =     0.00006553    0.00003306   -0.00010166
     atom  123 type  2   force =    -0.00011465    0.00005656    0.00011662
     atom  124 type  2   force =    -0.00022486    0.00025663    0.00039553
     atom  125 type  2   force =     0.00006132    0.00004081   -0.00010123
     atom  126 type  2   force =     0.00001131   -0.00000631    0.00015573
     atom  127 type  2   force =    -0.00043579    0.00025393    0.00091630
     atom  128 type  2   force =     0.00015335   -0.00008841   -0.00028449
     atom  129 type  2   force =     0.00000077    0.00001329    0.00015564
     atom  130 type  2   force =     0.00000017   -0.00050221    0.00091716
     atom  131 type  2   force =     0.00000041    0.00017502   -0.00028532
     atom  132 type  2   force =     0.00000893   -0.00012665    0.00011713
     atom  133 type  2   force =    -0.00010660   -0.00032094    0.00039517
     atom  134 type  2   force =    -0.00006589    0.00003245   -0.00010124
     atom  135 type  2   force =    -0.00000056    0.00000043    0.00005600
     atom  136 type  2   force =    -0.00000067    0.00000076   -0.00115820
     atom  137 type  2   force =    -0.00000083    0.00000010   -0.00009776
     atom  138 type  2   force =    -0.00010622    0.00007130    0.00011640
     atom  139 type  2   force =    -0.00033427    0.00006744    0.00039520
     atom  140 type  2   force =    -0.00000492   -0.00007309   -0.00010070
     atom  141 type  2   force =    -0.00005692   -0.00003265    0.00009077
     atom  142 type  2   force =    -0.00046800   -0.00028053    0.00047399
     atom  143 type  2   force =     0.00005700    0.00003311   -0.00034600
     The non-local contrib.  to forces
     atom    1 type  1   force =     0.00000621    0.00067394   -0.00336289
     atom    2 type  1   force =     0.00000935    0.14104662    0.09152091
     atom    3 type  1   force =     0.00001065   -0.00126942    0.00419245
     atom    4 type  1   force =     0.00159763    0.00086796   -0.00299768
     atom    5 type  1   force =    -0.02566657    0.01750364   -0.01720897
     atom    6 type  1   force =    -0.00181793   -0.00156366    0.00298622
     atom    7 type  1   force =     0.00157990    0.00089187   -0.00300323
     atom    8 type  1   force =     0.00236980   -0.03102445   -0.01717704
     atom    9 type  1   force =    -0.00223291   -0.00085438    0.00298903
     atom   10 type  1   force =     0.00063499   -0.00038181   -0.00336123
     atom   11 type  1   force =     0.12214715   -0.07056727    0.09146235
     atom   12 type  1   force =    -0.00106404    0.00058873    0.00418859
     atom   13 type  1   force =     0.00719584    0.00411896   -0.01042392
     atom   14 type  1   force =     0.01012819    0.00580901    0.00764116
     atom   15 type  1   force =     0.00028161    0.00013344    0.00255528
     atom   16 type  1   force =    -0.00157294    0.00086922   -0.00299992
     atom   17 type  1   force =     0.02567988    0.01750686   -0.01720489
     atom   18 type  1   force =     0.00183871   -0.00155959    0.00298408
     atom   19 type  1   force =     0.00001160   -0.00003024   -0.00173882
     atom   20 type  1   force =     0.00000508   -0.00001532   -0.00929831
     atom   21 type  1   force =     0.00000417   -0.00001212    0.01068244
     atom   22 type  1   force =    -0.00000405   -0.00185718   -0.00300442
     atom   23 type  1   force =     0.02803586    0.01342734   -0.01720759
     atom   24 type  1   force =    -0.00040433    0.00233314    0.00299086
     atom   25 type  1   force =     0.00001103   -0.00148560   -0.00046890
     atom   26 type  1   force =     0.00001300    0.01060335    0.00427849
     atom   27 type  1   force =     0.00000908    0.00010108    0.00236703
     atom   28 type  1   force =    -0.00123601    0.00069760   -0.00047370
     atom   29 type  1   force =     0.00919031   -0.00534147    0.00425924
     atom   30 type  1   force =     0.00011820   -0.00009359    0.00236518
     atom   31 type  1   force =    -0.00155692    0.00089126   -0.00300244
     atom   32 type  1   force =    -0.00234863   -0.03102342   -0.01718561
     atom   33 type  1   force =     0.00224971   -0.00085413    0.00298689
     atom   34 type  1   force =     0.00002672   -0.00185929   -0.00300240
     atom   35 type  1   force =    -0.02801709    0.01343503   -0.01721944
     atom   36 type  1   force =     0.00042586    0.00233110    0.00299015
     atom   37 type  1   force =    -0.00718656    0.00412593   -0.01043852
     atom   38 type  1   force =    -0.01010602    0.00580775    0.00763870
     atom   39 type  1   force =    -0.00026310    0.00013181    0.00255754
     atom   40 type  1   force =     0.00126152    0.00069909   -0.00046866
     atom   41 type  1   force =    -0.00917518   -0.00534807    0.00426264
     atom   42 type  1   force =    -0.00010180   -0.00009547    0.00236663
     atom   43 type  1   force =     0.00001144   -0.00828863   -0.01038692
     atom   44 type  1   force =     0.00000995   -0.01172724    0.00763243
     atom   45 type  1   force =     0.00000842   -0.00034637    0.00255423
     atom   46 type  1   force =    -0.00061407   -0.00037693   -0.00336099
     atom   47 type  1   force =    -0.12213627   -0.07056979    0.09148442
     atom   48 type  1   force =     0.00108267    0.00058668    0.00419128
     atom   49 type  2   force =    -0.00000637    0.00001209    0.23961169
     atom   50 type  2   force =    -0.00000190    0.00000841    0.24918417
     atom   51 type  2   force =     0.00964614    0.00424836    0.25554035
     atom   52 type  2   force =     0.00015808    0.00188199    0.23719442
     atom   53 type  2   force =     0.00014938    0.00087991    0.24834232
     atom   54 type  2   force =     0.01700986    0.00984022    0.26982641
     atom   55 type  2   force =     0.00033580    0.00020863    0.23863748
     atom   56 type  2   force =     0.00074745    0.00044716    0.24826165
     atom   57 type  2   force =     0.00849232    0.00625764    0.25554349
     atom   58 type  2   force =     0.00169851   -0.00077685    0.23719408
     atom   59 type  2   force =     0.00082033   -0.00028960    0.24834268
     atom   60 type  2   force =    -0.00116369   -0.01047070    0.25554243
     atom   61 type  2   force =     0.00153100   -0.00107273    0.23719344
     atom   62 type  2   force =     0.00066467   -0.00055879    0.24834509
     atom   63 type  2   force =    -0.00966333    0.00424040    0.25554181
     atom   64 type  2   force =    -0.00017295    0.00188027    0.23719478
     atom   65 type  2   force =    -0.00015794    0.00087581    0.24834201
     atom   66 type  2   force =    -0.00001157    0.00457369    0.25395939
     atom   67 type  2   force =    -0.00000827   -0.00117229    0.23084744
     atom   68 type  2   force =    -0.00000894   -0.00055233    0.24930073
     atom   69 type  2   force =     0.00395033   -0.00228046    0.25396656
     atom   70 type  2   force =    -0.00102788    0.00059982    0.23085125
     atom   71 type  2   force =    -0.00049722    0.00029375    0.24930329
     atom   72 type  2   force =    -0.00000348   -0.01963596    0.26982039
     atom   73 type  2   force =    -0.00000138   -0.00038314    0.23863464
     atom   74 type  2   force =    -0.00000493   -0.00085561    0.24826276
     atom   75 type  2   force =     0.00002088    0.00002323    0.25845818
     atom   76 type  2   force =     0.00036507    0.00022504    0.23924381
     atom   77 type  2   force =    -0.00131699   -0.00074434    0.24925085
     atom   78 type  2   force =    -0.01701540    0.00983950    0.26982797
     atom   79 type  2   force =    -0.00034261    0.00021071    0.23863689
     atom   80 type  2   force =    -0.00075615    0.00044633    0.24826191
     atom   81 type  2   force =    -0.00396230   -0.00227456    0.25396085
     atom   82 type  2   force =     0.00101827    0.00060439    0.23084990
     atom   83 type  2   force =     0.00048247    0.00029637    0.24930205
     atom   84 type  2   force =     0.00116160   -0.01046270    0.25553998
     atom   85 type  2   force =    -0.00154046   -0.00106612    0.23719438
     atom   86 type  2   force =    -0.00067287   -0.00055597    0.24834485
     atom   87 type  2   force =    -0.00002428    0.00003169    0.25845851
     atom   88 type  2   force =    -0.00036682    0.00022533    0.23924461
     atom   89 type  2   force =     0.00130839   -0.00074111    0.24925135
     atom   90 type  2   force =     0.00000561    0.00000122    0.25845897
     atom   91 type  2   force =    -0.00000072   -0.00040854    0.23924260
     atom   92 type  2   force =    -0.00000177    0.00152928    0.24924872
     atom   93 type  2   force =    -0.00848880    0.00626934    0.25554222
     atom   94 type  2   force =    -0.00170375   -0.00077422    0.23719527
     atom   95 type  2   force =    -0.00082352   -0.00028859    0.24834199
     atom   96 type  2   force =     0.00552114   -0.00317562   -0.22625580
     atom   97 type  2   force =    -0.00986894    0.00572087   -0.24122461
     atom   98 type  2   force =     0.00091506   -0.00051513   -0.24855240
     atom   99 type  2   force =    -0.00106068   -0.00037672   -0.23748835
     atom  100 type  2   force =    -0.00064742   -0.00397199   -0.25706254
     atom  101 type  2   force =     0.00011610   -0.00030081   -0.24867337
     atom  102 type  2   force =    -0.00086373   -0.00072070   -0.23749080
[...]
     atom  106 type  2   force =    -0.00000007   -0.00000318   -0.00001210
     atom  107 type  2   force =     0.00000001    0.00000945   -0.00000022
     atom  108 type  2   force =     0.00000442    0.00000253    0.00000121
     atom  109 type  2   force =     0.00000269    0.00000152   -0.00001204
     atom  110 type  2   force =    -0.00000833   -0.00000477   -0.00000018
     atom  111 type  2   force =     0.00000001   -0.00000625    0.00001210
     atom  112 type  2   force =     0.00000002   -0.00000815   -0.00001430
     atom  113 type  2   force =     0.00000003   -0.00000530   -0.00000433
     atom  114 type  2   force =    -0.00000738   -0.00000427    0.00002256
     atom  115 type  2   force =    -0.00000768   -0.00000445   -0.00000801
     atom  116 type  2   force =     0.00000339    0.00000187   -0.00000469
     atom  117 type  2   force =    -0.00000545    0.00000310    0.00001189
     atom  118 type  2   force =    -0.00000713    0.00000402   -0.00001425
     atom  119 type  2   force =    -0.00000466    0.00000268   -0.00000432
     atom  120 type  2   force =    -0.00000246    0.00000569    0.00002024
     atom  121 type  2   force =    -0.00000369    0.00000420   -0.00001497
     atom  122 type  2   force =    -0.00000503   -0.00000670   -0.00000006
     atom  123 type  2   force =     0.00000370   -0.00000500    0.00002020
     atom  124 type  2   force =     0.00000186   -0.00000526   -0.00001491
     atom  125 type  2   force =    -0.00000830   -0.00000095   -0.00000005
     atom  126 type  2   force =     0.00000741   -0.00000426    0.00002254
     atom  127 type  2   force =     0.00000766   -0.00000440   -0.00000813
     atom  128 type  2   force =    -0.00000335    0.00000198   -0.00000464
     atom  129 type  2   force =    -0.00000002    0.00000850    0.00002255
     atom  130 type  2   force =     0.00000004    0.00000895   -0.00000808
     atom  131 type  2   force =     0.00000005   -0.00000377   -0.00000464
     atom  132 type  2   force =     0.00000249    0.00000567    0.00002022
     atom  133 type  2   force =     0.00000370    0.00000425   -0.00001495
     atom  134 type  2   force =     0.00000495   -0.00000669   -0.00000010
     atom  135 type  2   force =     0.00000001    0.00000001    0.00002831
     atom  136 type  2   force =     0.00000000   -0.00000001   -0.00001864
     atom  137 type  2   force =    -0.00000002    0.00000002    0.00000083
     atom  138 type  2   force =     0.00000619   -0.00000067    0.00002023
     atom  139 type  2   force =     0.00000552    0.00000109   -0.00001489
     atom  140 type  2   force =    -0.00000335    0.00000761   -0.00000004
     atom  141 type  2   force =     0.00000533    0.00000304    0.00001205
     atom  142 type  2   force =     0.00000708    0.00000408   -0.00001417
     atom  143 type  2   force =     0.00000457    0.00000271   -0.00000435

     Total force =     0.004650     Total SCF correction =     0.000210


     Computing stress (Cartesian axis) and pressure



     -----------------------------------------------
     Non-local corr. energy    =      68.48529769 Ry
     -----------------------------------------------

          total   stress  (Ry/bohr**3)                   (kbar)     P=       -0.90
  -0.00000627   0.00000000  -0.00000000           -0.92        0.00       -0.00
   0.00000000  -0.00000627   0.00000000            0.00       -0.92        0.00
  -0.00000000   0.00000000  -0.00000579           -0.00        0.00       -0.85

     kinetic stress (kbar)  14902.36      0.00     -0.00
                                0.00  14902.36      0.00
                               -0.00      0.00  14913.21

     local   stress (kbar)  -7716.29     -0.00      0.00
                               -0.00  -7716.29     -0.02
                                0.00     -0.02   1413.19

     nonloc. stress (kbar)  -1089.87      0.00     -0.00
                                0.00  -1089.87      0.00
                               -0.00      0.00  -1096.08

     hartree stress (kbar)  12061.55      0.00     -0.00
                                0.00  12061.54      0.01
                               -0.00      0.01   7946.77

     exc-cor stress (kbar)   6890.76      0.00     -0.00
                                0.00   6890.76      0.00
                               -0.00      0.00   6889.59

     corecor stress (kbar) -11219.99     -0.00     -0.00
                               -0.00 -11219.99      0.00
                               -0.00      0.00 -11219.89

     ewald   stress (kbar) -13912.04      0.00     -0.00
                                0.00 -13912.04      0.01
                               -0.00      0.01 -18931.60

     hubbard stress (kbar)      0.00      0.00      0.00
                                0.00      0.00      0.00
                                0.00      0.00      0.00

     DFT-D   stress (kbar)      0.00      0.00      0.00
                                0.00      0.00      0.00
                                0.00      0.00      0.00

     XDM     stress (kbar)      0.00      0.00      0.00
                                0.00      0.00      0.00
                                0.00      0.00      0.00

     dft-nl  stress (kbar)     82.60     -0.00      0.00
                               -0.00     82.60     -0.00
                                0.00     -0.00     83.95

     TS-vdW  stress (kbar)      0.00      0.00      0.00
                                0.00      0.00      0.00
                                0.00      0.00      0.00

     MDB     stress (kbar)      0.00      0.00      0.00
                                0.00      0.00      0.00
                                0.00      0.00      0.00

     3D-RISM stress (kbar)      0.00      0.00      0.00
                                0.00      0.00      0.00
                                0.00      0.00      0.00

     Energy error            =      5.2E-05 Ry
     Gradient error          =      9.9E-04 Ry/Bohr

     bfgs converged in  25 scf cycles and  24 bfgs steps
     (criteria: energy <  1.0E-04 Ry, force <  1.0E-03 Ry/Bohr)

     End of BFGS Geometry Optimization

     Final energy             =  -96571.0276825256 Ry

     File ./PbI2.bfgs deleted, as requested
Begin final coordinates

ATOMIC_POSITIONS (angstrom)
Pb            2.3557969734        4.0752631862       22.1460698174
Pb            2.3558157793        4.2586174190        7.4225193852
Pb            2.3557589471        4.0776644570       14.7653681748
Pb            0.0013369062        8.1617878441       22.1293073543
Pb           -0.0407113405        8.1802470931        7.3456833872
Pb           -0.0001343675        8.1579319688       14.7552618724
Pb           -2.3531703747       12.2399197541       22.1292715336
Pb           -2.3580913081       12.1940746638        7.3456690421
Pb           -2.3572150831       12.2405478735       14.7552690604
Pb           -4.7149519399       16.3220930282       22.1459901597
Pb           -4.5559453029       16.2302466061        7.4225766179
Pb           -4.7128909973       16.3209385602       14.7653611471
Pb            7.0624951517        4.0770703763       22.1519082565
Pb            7.0905087023        4.0931965115        7.3910459240
Pb            7.0698072862        4.0812819118       14.7625845009
Pb            4.7101870340        8.1617811655       22.1293504776
Pb            4.7522557491        8.1802564978        7.3457715877
Pb            4.7116437091        8.1579203385       14.7553201753
Pb            2.3557509869       12.2398765108       22.1274785068
Pb            2.3557396876       12.2398120332        7.3494413202
Pb            2.3557595974       12.2398210111       14.7256017838
Pb            0.0012434624       16.3179076005       22.1293188178
Pb            0.0383781101       16.3449737322        7.3458073775
Pb           -0.0013420569       16.3210370897       14.7552919798
Pb           11.7783001338        4.0752068374       22.1388419792
Pb           11.7782790886        4.1042029055        7.3836018964
Pb           11.7782983630        4.0815569529       14.7599890648
Pb            9.4187694020        8.1619963209       22.1388217982
Pb            9.4438699541        8.1474707814        7.3836248643
Pb            9.4242909532        8.1588291219       14.7600048301
Pb            7.0646879158       12.2399055550       22.1293369791
Pb            7.0696295202       12.1940568115        7.3457494481
Pb            7.0687515588       12.2405450512       14.7553041649
Pb            4.7102556951       16.3179026428       22.1293400071
Pb            4.6731554782       16.3449830665        7.3458043076
Pb            4.7128519715       16.3210533630       14.7552667819
Pb           16.4941511995        4.0770419560       22.1519517844
Pb           16.4661085123        4.0931929396        7.3909896120
Pb           16.4867899750        4.0813006358       14.7625138904
Pb           14.1378304524        8.1619941465       22.1387852449
Pb           14.1126888109        8.1474721206        7.3835265232
Pb           14.1323279516        8.1588416299       14.7599578523
Pb           11.7783016705       12.2449923400       22.1517424938
Pb           11.7783045873       12.2126748996        7.3909348844
Pb           11.7783174210       12.2366438139       14.7625362168
Pb            9.4265087373       16.3220725839       22.1460218961
Pb            9.2676330056       16.2302825075        7.4224712105
Pb            9.4244276487       16.3209482911       14.7653436227
I             2.3557562715        1.3597246799       12.8705027529
I             2.3557403554        1.3597194870       20.2619078012
I            -0.0055583572        5.4475785422        5.4810379853
I            -0.0024835414        5.4365705931       12.8700883299
I            -0.0013133807        5.4304433226       20.2646735268
I            -2.3525798704        9.5214355942        5.4775023224
I            -2.3561453123        9.5195417292       12.8677409854
I            -2.3567258928        9.5191991008       20.2506330827
I            -4.7072043012       13.5910549452        5.4810143320
I            -4.7152519299       13.5993399747       12.8701014438
I            -4.7199357738       13.6033494010       20.2645618152
I             7.0766894410        1.3606744695        5.4810829933
I             7.0655127297        1.3635648955       12.8701249329
I             7.0596522257        1.3656216773       20.2646236653
I             4.7171109601        5.4476130013        5.4810584361
I             4.7139772161        5.4365596405       12.8701425975
I             4.7128209962        5.4304744646       20.2646584514
I             2.3557752217        9.5107421524        5.4925181002
I             2.3557554864        9.5050833954       12.8423530133
I             2.3557464067        9.5178920648       20.2491861516
I            -0.0077193851       13.6044724933        5.4925155795
I            -0.0125980209       13.6072549627       12.8423617207
I            -0.0016291586       13.6009958612       20.2491587084
I            11.7782907973        1.3562100632        5.4776504046
I            11.7782506281        1.3604153839       12.8677863011
I            11.7782622258        1.3611150338       20.2506687515
I             9.4267849943        5.4421764727        5.4903722218
I             9.4226900127        5.4398265597       12.8678170699
I             9.4076796813        5.4311302599       20.2665234921
I             7.0640719723        9.5214404796        5.4775777800
I             7.0676152718        9.5195139908       12.8678102163
I             7.0681840800        9.5191925838       20.2506812428
I             4.7192272548       13.6044497261        5.4925613145
I             4.7241114176       13.6072548750       12.8423626448
I             4.7130985425       13.6009828397       20.2491937127
I            16.4798645002        1.3606545454        5.4810744195
I            16.4910320817        1.3635598994       12.8700818861
I            16.4969122248        1.3656008741       20.2646636274
I            14.1297190056        5.4421518199        5.4903399725
I            14.1338296815        5.4398392754       12.8677726035
I            14.1489283771        5.4310774657       20.2665460524
I            11.7782285818        9.5150205030        5.4903063515
I            11.7782688535        9.5198036604       12.8677818126
I            11.7782589465        9.5369460167       20.2664323674
I             9.4186678965       13.5909832970        5.4810262831
I             9.4267387290       13.5993261749       12.8701149005
I             9.4313903673       13.6033271992       20.2645886224
I             0.0234683422        2.7061871790        1.9332485112
I             0.0268887608        2.7041975107        9.2052753510
I            -0.0008256661        2.7202676220       16.6445396096
I            -2.3556777216        6.8047263936        1.8954113441
I            -2.3579618808        6.8020293284        9.2544826382
I            -2.3521502461        6.8027311743       16.6417033793
I            -4.7070199639       10.8773307141        1.8953399807
I            -4.7104411287       10.8766795597        9.2544732349
I            -4.7069184300       10.8813544869       16.6417063671
I            -7.0667590276       14.9865612540        1.9331114640
I            -7.0667632604       14.9908165813        9.2052808860
I            -7.0667946446       14.9589133850       16.6445446787
I             4.6881423639        2.7062166978        1.9332252390
I             4.6846518512        2.7041951635        9.2053463498
I             4.7122792983        2.7202489243       16.6445705144
I             2.3557182382        6.8054403867        1.8856363917
I             2.3557345402        6.7133184666        9.2714312964
I             2.3557078406        6.8030061804       16.6433417422
I             0.0021451343       10.8811214909        1.8846509347
I            -0.0122775442       10.8726601979        9.2368240036
I             0.0151291355       10.8885585744       16.6276235714
I            -2.3506816772       14.9571794942        1.8856096238
I            -2.4301937922       15.0029365509        9.2714953685
I            -2.3527594237       14.9583560074       16.6433348733
I             9.4269445709        2.7174499751        1.8954504553
I             9.4257762694        2.7206981209        9.2545891622
I             9.4234991841        2.7153029747       16.6417319995
I             7.0671460338        6.8047014597        1.8954453277
I             7.0694241017        6.8019913616        9.2546001522
I             7.0636371048        6.8027239298       16.6417476913
I             4.7092850749       10.8811179314        1.8846862931
I             4.7237165233       10.8726772721        9.2368812030
I             4.6963486106       10.8885609244       16.6276410791
I             2.3557127318       14.9576116533        1.8846736709
I             2.3557359593       14.9741178237        9.2369317614
I             2.3557421128       14.9425486818       16.6276358063
I            14.1295896816        2.7174536252        1.8954590543
I            14.1307621139        2.7207247942        9.2545561556
I            14.1330812262        2.7153253435       16.6417037482
I            11.7782830720        6.7998433450        1.8887516087
I            11.7782992080        6.7997780492        9.2832787281
I            11.7783108829        6.7998038258       16.6464436570
I             9.4185072777       10.8773329651        1.8953805221
I             9.4219576012       10.8766853520        9.2545554237
I             9.4184404914       10.8813611622       16.6417213015
I             7.0621445939       14.9571939847        1.8856301247
I             7.1417970692       15.0030107131        9.2714639089
I             7.0642392176       14.9583914381       16.6433194534
End final coordinates



     Writing all to output data dir ./PbI2.save/
 
     init_run     :      6.62s CPU      8.06s WALL (       1 calls)
     electrons    :   7590.22s CPU   7699.84s WALL (       2 calls)
     update_pot   :      1.70s CPU      1.72s WALL (       1 calls)
     forces       :     22.34s CPU     23.19s WALL (       2 calls)
     stress       :    371.24s CPU    375.13s WALL (       2 calls)

     Called by init_run:
     wfcinit      :      0.37s CPU      1.30s WALL (       1 calls)
     potinit      :      1.35s CPU      1.60s WALL (       1 calls)
     hinit0       :      0.88s CPU      0.95s WALL (       1 calls)

     Called by electrons:
     c_bands      :   7454.28s CPU   7559.17s WALL (      13 calls)
     sum_band     :    109.22s CPU    112.02s WALL (      13 calls)
     v_of_rho     :     10.65s CPU     10.82s WALL (      14 calls)
     v_h          :      0.21s CPU      0.22s WALL (      14 calls)
     v_xc         :     13.40s CPU     13.60s WALL (      18 calls)
     newd         :      3.61s CPU      4.65s WALL (      14 calls)
     PAW_pot      :      4.25s CPU      4.29s WALL (      15 calls)
     mix_rho      :      0.46s CPU      0.47s WALL (      13 calls)
     vdW_kernel   :      0.14s CPU      0.15s WALL (       1 calls)

     Called by c_bands:
     init_us_2    :      1.25s CPU      1.29s WALL (      26 calls)
     init_us_2:cp :      1.25s CPU      1.29s WALL (      26 calls)
     cegterg      :   7449.34s CPU   7547.26s WALL (      12 calls)

     Called by sum_band:
     sum_band:wei :      0.00s CPU      0.00s WALL (      13 calls)
     sum_band:loo :    105.32s CPU    106.28s WALL (      13 calls)
     sum_band:buf :      0.00s CPU      0.00s WALL (      13 calls)
     sum_band:ini :      0.99s CPU      1.02s WALL (      13 calls)
     sum_band:cal :     29.18s CPU     29.40s WALL (      14 calls)
     sum_band:bec :      0.48s CPU      0.49s WALL (      14 calls)
     addusdens    :      3.36s CPU      4.60s WALL (      13 calls)
     addusd:skk   :      0.34s CPU      0.38s WALL (      26 calls)
     addusd:dgemm :      1.82s CPU      3.00s WALL (      26 calls)
     addusd:qvan2 :      1.13s CPU      1.14s WALL (      26 calls)

     Called by *egterg:
     cdiaghg      :   6475.36s CPU   6530.23s WALL (     197 calls)
     cegterg:over :    143.68s CPU    150.01s WALL (     187 calls)
     cegterg:upda :     83.74s CPU     85.05s WALL (     187 calls)
     cegterg:last :     34.03s CPU     34.26s WALL (      12 calls)
     h_psi        :    594.17s CPU    601.11s WALL (     199 calls)
     s_psi        :     69.19s CPU     70.86s WALL (     199 calls)
     g_psi        :      0.28s CPU      0.28s WALL (     187 calls)

     Called by h_psi:
     h_psi:calbec :     82.89s CPU     83.53s WALL (     199 calls)
     vloc_psi     :    440.66s CPU    444.26s WALL (     199 calls)
     vloc_psi:tg_ :      0.07s CPU      0.07s WALL (     199 calls)
     add_vuspsi   :     69.44s CPU     71.21s WALL (     199 calls)

     General routines
     calbec       :    132.97s CPU    134.00s WALL (     223 calls)
     fft          :     13.00s CPU     13.18s WALL (    1218 calls)
     ffts         :      0.32s CPU      0.32s WALL (      27 calls)
     fftw         :    504.86s CPU    509.00s WALL (  113038 calls)
     interpolate  :      0.37s CPU      0.37s WALL (      14 calls)
     davcio       :      0.00s CPU      0.84s WALL (       1 calls)
 
     Parallel routines
     fft_scatt_xy :     12.32s CPU     12.43s WALL (  114283 calls)
     fft_scatt_yz :    436.99s CPU    440.24s WALL (  114283 calls)
     fft_scatt_tg :      0.75s CPU      0.77s WALL (  113038 calls)

     PAW routines
     PAW_pot      :      4.25s CPU      4.29s WALL (      15 calls)
 
     PWSCF        :      2h13m CPU      2h15m WALL

 
   This run was terminated on:  23:49:30  16Mar2024            

=------------------------------------------------------------------------------=
   JOB DONE.
=------------------------------------------------------------------------------=
