
     Program PWSCF v.7.1 starts on 12Feb2024 at  8:17:42 

     This program is part of the open-source Quantum ESPRESSO suite
     for quantum simulation of materials; please cite
         "P. Giannozzi et al., J. Phys.:Condens. Matter 21 395502 (2009);
         "P. Giannozzi et al., J. Phys.:Condens. Matter 29 465901 (2017);
         "P. Giannozzi et al., J. Chem. Phys. 152 154105 (2020);
          URL http://www.quantum-espresso.org", 
     in publications or presentations arising from this work. More details at
     http://www.quantum-espresso.org/quote

     Parallel version (MPI & OpenMP), running on     128 processor cores
     Number of MPI processes:               128
     Threads/MPI process:                     1

     MPI processes distributed on     1 nodes
     1934951 MiB available memory on the printing compute node when the environment starts
 
     Reading input from espresso.pwi
Warning: card &CELL ignored
Warning: card    CELL_DYNAMICS    = 'BFGS' ignored
Warning: card / ignored

     Current dimensions of program PWSCF are:
     Max number of different atomic species (ntypx) = 10
     Max number of k-points (npk) =  40000
     Max angular momentum in pseudopotentials (lmaxx) =  4
     file Pb.pbe-dn-kjpaw_psl.1.0.0.UPF: wavefunction(s)  6S 6P 5D renormalized
     file I.pbe-dn-kjpaw_psl.1.0.0.UPF: wavefunction(s)  5S 5P renormalized

     **************************************************************************
     Initializing libbeef V0.1.2 with the BEEF-vdW functional.
     Citation: Wellendorff et al., PRB 85, 235149 (2012).
     **************************************************************************


     IMPORTANT: XC functional enforced from input :
     Exchange-correlation= BEEF-VDW
                           (   1   4  43  14   2   0   0)
     Any further DFT definition will be discarded
     Please, verify this is what you really want

 
     R & G space division:  proc/nbgrp/npool/nimage =     128
     Subspace diagonalization in iterative solution of the eigenvalue problem:
     a serial algorithm will be used

 
     Parallelization info
     --------------------
     sticks:   dense  smooth     PW     G-vecs:    dense   smooth      PW
     Min         238     190     47                26444    18918    2361
     Max         239     191     48                26451    18927    2368
     Sum       30577   24439   6121              3385235  2422379  302703
 
     Using Slab Decomposition
 


     bravais-lattice index     =            4
     lattice parameter (alat)  =      35.6073  a.u.
     unit-cell volume          =   30614.2220 (a.u.)^3
     number of atoms/cell      =           96
     number of atomic types    =            2
     number of electrons       =      1536.00
     number of Kohn-Sham states=          922
     kinetic-energy cutoff     =      70.0000  Ry
     charge density cutoff     =     350.0000  Ry
     scf convergence threshold =      1.0E-07
     mixing beta               =       0.7000
     number of iterations used =            8  plain     mixing
     energy convergence thresh.=      1.0E-04
     force convergence thresh. =      1.0E-03
     Exchange-correlation= BEEF-VDW
                           (   1   4  43  14   2   0   0)
     nstep                     =           50


     celldm(1)=  35.607290  celldm(2)=   0.000000  celldm(3)=   0.783025
     celldm(4)=   0.000000  celldm(5)=   0.000000  celldm(6)=   0.000000

     crystal axes: (cart. coord. in units of alat)
               a(1) = (   1.000000   0.000000   0.000000 )  
               a(2) = (  -0.500000   0.866025   0.000000 )  
               a(3) = (   0.000000   0.000000   0.783025 )  

     reciprocal axes: (cart. coord. in units 2 pi/alat)
               b(1) = (  1.000000  0.577350 -0.000000 )  
               b(2) = (  0.000000  1.154701  0.000000 )  
               b(3) = (  0.000000 -0.000000  1.277098 )  


     PseudoPot. # 1 for Pb read from file:
     /trace/group/acmegroup/atimmins/packages/espresso/pseudo/psl_1.0.0/pslibrary.1.0.0/pbe/PSEUDOPOTENTIALS/Pb.pbe-dn-kjpaw_psl.1.0.0.UPF
     MD5 check sum: 39ab5b8a6bbd56b7735ad9f188aac93a
     Pseudo is Projector augmented-wave + core cor, Zval = 14.0
     Generated using 'atomic' code by A. Dal Corso  v.7.1
     Shape of augmentation charge: PSQ
     Using radial grid of 1281 points,  6 beta functions with: 
                l(1) =   0
                l(2) =   0
                l(3) =   1
                l(4) =   1
                l(5) =   2
                l(6) =   2
     Q(r) pseudized with 0 coefficients 


     PseudoPot. # 2 for I  read from file:
     /trace/group/acmegroup/atimmins/packages/espresso/pseudo/psl_1.0.0/pslibrary.1.0.0/pbe/PSEUDOPOTENTIALS/I.pbe-dn-kjpaw_psl.1.0.0.UPF
     MD5 check sum: bfa8781bc1224d19af3f3980e3fab11e
     Pseudo is Projector augmented-wave + core cor, Zval = 17.0
     Generated using 'atomic' code by A. Dal Corso  v.7.1
     Shape of augmentation charge: PSQ
     Using radial grid of 1247 points,  6 beta functions with: 
                l(1) =   0
                l(2) =   0
                l(3) =   1
                l(4) =   1
                l(5) =   2
                l(6) =   2
     Q(r) pseudized with 0 coefficients 


     atomic species   valence    mass     pseudopotential
        Pb            14.00   207.20000     Pb( 1.00)
        I             17.00   126.90447     I ( 1.00)

     No symmetry found


                                    s                        frac. trans.

      isym =  1     identity                                     

 cryst.   s( 1) = (     1          0          0      )
                  (     0          1          0      )
                  (     0          0          1      )

 cart.    s( 1) = (  1.0000000  0.0000000  0.0000000 )
                  (  0.0000000  1.0000000  0.0000000 )
                  (  0.0000000  0.0000000  1.0000000 )


     point group C_1 (1)    
     there are  1 classes
     the character table:

       E    
A      1.00

     the symmetry operations in each class and the name of the first element:

     E        1
          identity                                               

   Cartesian axes

     site n.     atom                  positions (alat units)
         1           Pb  tau(   1) = (   0.1250086   0.2164870   0.7830203  )
         2           Pb  tau(   2) = (   0.1250034   0.2164916   0.3915076  )
         3           Pb  tau(   3) = (   0.0000077   0.4329922   0.7830161  )
         4           Pb  tau(   4) = (   0.0000025   0.4329968   0.3915034  )
         5           Pb  tau(   5) = (  -0.1249932   0.6494975   0.7830119  )
         6           Pb  tau(   6) = (  -0.1249984   0.6495021   0.3914992  )
         7           Pb  tau(   7) = (  -0.2499941   0.8660028   0.7830077  )
         8           Pb  tau(   8) = (  -0.2499993   0.8660074   0.3914950  )
         9           Pb  tau(   9) = (   0.3750086   0.2164859   0.7830237  )
        10           Pb  tau(  10) = (   0.3750034   0.2164905   0.3915110  )
        11           Pb  tau(  11) = (   0.2500077   0.4329912   0.7830194  )
        12           Pb  tau(  12) = (   0.2500025   0.4329958   0.3915068  )
        13           Pb  tau(  13) = (   0.1250068   0.6494965   0.7830152  )
        14           Pb  tau(  14) = (   0.1250016   0.6495011   0.3915026  )
        15           Pb  tau(  15) = (   0.0000059   0.8660017   0.7830110  )
        16           Pb  tau(  16) = (   0.0000007   0.8660063   0.3914983  )
        17           Pb  tau(  17) = (   0.6250086   0.2164849   0.7830270  )
        18           Pb  tau(  18) = (   0.6250034   0.2164895   0.3915143  )
        19           Pb  tau(  19) = (   0.5000077   0.4329901   0.7830228  )
        20           Pb  tau(  20) = (   0.5000025   0.4329947   0.3915101  )
        21           Pb  tau(  21) = (   0.3750068   0.6494954   0.7830186  )
        22           Pb  tau(  22) = (   0.3750016   0.6495000   0.3915059  )
        23           Pb  tau(  23) = (   0.2500059   0.8660007   0.7830144  )
        24           Pb  tau(  24) = (   0.2500007   0.8660053   0.3915017  )
        25           Pb  tau(  25) = (   0.8750086   0.2164838   0.7830303  )
        26           Pb  tau(  26) = (   0.8750034   0.2164884   0.3915177  )
        27           Pb  tau(  27) = (   0.7500077   0.4329891   0.7830261  )
        28           Pb  tau(  28) = (   0.7500025   0.4329937   0.3915135  )
        29           Pb  tau(  29) = (   0.6250068   0.6494944   0.7830219  )
        30           Pb  tau(  30) = (   0.6250016   0.6494990   0.3915092  )
        31           Pb  tau(  31) = (   0.5000059   0.8659996   0.7830177  )
        32           Pb  tau(  32) = (   0.5000007   0.8660042   0.3915050  )
        33           I   tau(  33) = (   0.1250056   0.0721546   0.2909163  )
        34           I   tau(  34) = (   0.1250108   0.0721500   0.6824290  )
        35           I   tau(  35) = (   0.0000047   0.2886599   0.2909121  )
        36           I   tau(  36) = (   0.0000099   0.2886553   0.6824248  )
        37           I   tau(  37) = (  -0.1249962   0.5051652   0.2909079  )
        38           I   tau(  38) = (  -0.1249910   0.5051606   0.6824206  )
        39           I   tau(  39) = (  -0.2499972   0.7216704   0.2909037  )
        40           I   tau(  40) = (  -0.2499919   0.7216658   0.6824164  )
        41           I   tau(  41) = (   0.3750056   0.0721536   0.2909197  )
        42           I   tau(  42) = (   0.3750108   0.0721490   0.6824324  )
        43           I   tau(  43) = (   0.2500047   0.2886589   0.2909155  )
        44           I   tau(  44) = (   0.2500099   0.2886543   0.6824282  )
        45           I   tau(  45) = (   0.1250038   0.5051641   0.2909113  )
        46           I   tau(  46) = (   0.1250090   0.5051595   0.6824240  )
        47           I   tau(  47) = (   0.0000028   0.7216694   0.2909071  )
        48           I   tau(  48) = (   0.0000081   0.7216648   0.6824197  )
        49           I   tau(  49) = (   0.6250056   0.0721525   0.2909230  )
        50           I   tau(  50) = (   0.6250108   0.0721479   0.6824357  )
        51           I   tau(  51) = (   0.5000047   0.2886578   0.2909188  )
        52           I   tau(  52) = (   0.5000099   0.2886532   0.6824315  )
        53           I   tau(  53) = (   0.3750038   0.5051631   0.2909146  )
        54           I   tau(  54) = (   0.3750090   0.5051585   0.6824273  )
        55           I   tau(  55) = (   0.2500028   0.7216683   0.2909104  )
        56           I   tau(  56) = (   0.2500081   0.7216637   0.6824231  )
        57           I   tau(  57) = (   0.8750056   0.0721515   0.2909264  )
        58           I   tau(  58) = (   0.8750108   0.0721469   0.6824391  )
        59           I   tau(  59) = (   0.7500047   0.2886567   0.2909222  )
        60           I   tau(  60) = (   0.7500099   0.2886521   0.6824348  )
        61           I   tau(  61) = (   0.6250038   0.5051620   0.2909180  )
        62           I   tau(  62) = (   0.6250090   0.5051574   0.6824306  )
        63           I   tau(  63) = (   0.5000028   0.7216673   0.2909137  )
        64           I   tau(  64) = (   0.5000081   0.7216627   0.6824264  )
        65           I   tau(  65) = (  -0.0000018   0.1443297   0.1005933  )
        66           I   tau(  66) = (   0.0000034   0.1443251   0.4921060  )
        67           I   tau(  67) = (  -0.1250027   0.3608350   0.1005891  )
        68           I   tau(  68) = (  -0.1249975   0.3608304   0.4921018  )
        69           I   tau(  69) = (  -0.2500036   0.5773403   0.1005849  )
        70           I   tau(  70) = (  -0.2499984   0.5773357   0.4920975  )
        71           I   tau(  71) = (  -0.3750045   0.7938455   0.1005807  )
        72           I   tau(  72) = (  -0.3749993   0.7938409   0.4920933  )
        73           I   tau(  73) = (   0.2499982   0.1443287   0.1005966  )
        74           I   tau(  74) = (   0.2500034   0.1443241   0.4921093  )
        75           I   tau(  75) = (   0.1249973   0.3608340   0.1005924  )
        76           I   tau(  76) = (   0.1250025   0.3608294   0.4921051  )
        77           I   tau(  77) = (  -0.0000036   0.5773392   0.1005882  )
        78           I   tau(  78) = (   0.0000016   0.5773346   0.4921009  )
        79           I   tau(  79) = (  -0.1250045   0.7938445   0.1005840  )
        80           I   tau(  80) = (  -0.1249993   0.7938399   0.4920967  )
        81           I   tau(  81) = (   0.4999982   0.1443276   0.1006000  )
        82           I   tau(  82) = (   0.5000034   0.1443230   0.4921126  )
        83           I   tau(  83) = (   0.3749973   0.3608329   0.1005958  )
        84           I   tau(  84) = (   0.3750025   0.3608283   0.4921084  )
        85           I   tau(  85) = (   0.2499964   0.5773382   0.1005915  )
        86           I   tau(  86) = (   0.2500016   0.5773336   0.4921042  )
        87           I   tau(  87) = (   0.1249955   0.7938434   0.1005873  )
        88           I   tau(  88) = (   0.1250007   0.7938388   0.4921000  )
        89           I   tau(  89) = (   0.7499982   0.1443266   0.1006033  )
        90           I   tau(  90) = (   0.7500034   0.1443220   0.4921160  )
        91           I   tau(  91) = (   0.6249973   0.3608319   0.1005991  )
        92           I   tau(  92) = (   0.6250025   0.3608273   0.4921118  )
        93           I   tau(  93) = (   0.4999964   0.5773371   0.1005949  )
        94           I   tau(  94) = (   0.5000016   0.5773325   0.4921076  )
        95           I   tau(  95) = (   0.3749955   0.7938424   0.1005907  )
        96           I   tau(  96) = (   0.3750007   0.7938378   0.4921034  )

   Crystallographic axes

     site n.     atom                  positions (cryst. coord.)
         1           Pb  tau(   1) = (  0.2499975  0.2499776  0.9999935  )
         2           Pb  tau(   2) = (  0.2499949  0.2499829  0.4999935  )
         3           Pb  tau(   3) = (  0.2499959  0.4999764  0.9999882  )
         4           Pb  tau(   4) = (  0.2499933  0.4999817  0.4999882  )
         5           Pb  tau(   5) = (  0.2499944  0.7499751  0.9999828  )
         6           Pb  tau(   6) = (  0.2499918  0.7499804  0.4999828  )
         7           Pb  tau(   7) = (  0.2499928  0.9999739  0.9999774  )
         8           Pb  tau(   8) = (  0.2499903  0.9999792  0.4999774  )
         9           Pb  tau(   9) = (  0.4999968  0.2499764  0.9999978  )
        10           Pb  tau(  10) = (  0.4999943  0.2499817  0.4999978  )
        11           Pb  tau(  11) = (  0.4999953  0.4999752  0.9999924  )
        12           Pb  tau(  12) = (  0.4999927  0.4999805  0.4999924  )
        13           Pb  tau(  13) = (  0.4999938  0.7499739  0.9999871  )
        14           Pb  tau(  14) = (  0.4999912  0.7499792  0.4999871  )
        15           Pb  tau(  15) = (  0.4999922  0.9999727  0.9999817  )
        16           Pb  tau(  16) = (  0.4999896  0.9999780  0.4999817  )
        17           Pb  tau(  17) = (  0.7499962  0.2499752  1.0000021  )
        18           Pb  tau(  18) = (  0.7499936  0.2499805  0.5000021  )
        19           Pb  tau(  19) = (  0.7499947  0.4999739  0.9999967  )
        20           Pb  tau(  20) = (  0.7499921  0.4999793  0.4999967  )
        21           Pb  tau(  21) = (  0.7499932  0.7499727  0.9999913  )
        22           Pb  tau(  22) = (  0.7499906  0.7499780  0.4999913  )
        23           Pb  tau(  23) = (  0.7499916  0.9999714  0.9999860  )
        24           Pb  tau(  24) = (  0.7499890  0.9999767  0.4999860  )
        25           Pb  tau(  25) = (  0.9999956  0.2499740  1.0000064  )
        26           Pb  tau(  26) = (  0.9999930  0.2499793  0.5000064  )
        27           Pb  tau(  27) = (  0.9999941  0.4999727  1.0000010  )
        28           Pb  tau(  28) = (  0.9999915  0.4999780  0.5000010  )
        29           Pb  tau(  29) = (  0.9999926  0.7499715  0.9999956  )
        30           Pb  tau(  30) = (  0.9999900  0.7499768  0.4999956  )
        31           Pb  tau(  31) = (  0.9999910  0.9999702  0.9999902  )
        32           Pb  tau(  32) = (  0.9999884  0.9999755  0.4999902  )
        33           I   tau(  33) = (  0.1666641  0.0833170  0.3715286  )
        34           I   tau(  34) = (  0.1666667  0.0833117  0.8715286  )
        35           I   tau(  35) = (  0.1666625  0.3333157  0.3715233  )
        36           I   tau(  36) = (  0.1666651  0.3333104  0.8715233  )
        37           I   tau(  37) = (  0.1666610  0.5833145  0.3715179  )
        38           I   tau(  38) = (  0.1666636  0.5833092  0.8715179  )
        39           I   tau(  39) = (  0.1666595  0.8333132  0.3715125  )
        40           I   tau(  40) = (  0.1666621  0.8333079  0.8715125  )
        41           I   tau(  41) = (  0.4166635  0.0833158  0.3715329  )
        42           I   tau(  42) = (  0.4166661  0.0833105  0.8715329  )
        43           I   tau(  43) = (  0.4166619  0.3333145  0.3715275  )
        44           I   tau(  44) = (  0.4166645  0.3333092  0.8715275  )
        45           I   tau(  45) = (  0.4166604  0.5833133  0.3715222  )
        46           I   tau(  46) = (  0.4166630  0.5833080  0.8715221  )
        47           I   tau(  47) = (  0.4166589  0.8333120  0.3715168  )
        48           I   tau(  48) = (  0.4166614  0.8333067  0.8715168  )
        49           I   tau(  49) = (  0.6666629  0.0833146  0.3715372  )
        50           I   tau(  50) = (  0.6666655  0.0833093  0.8715372  )
        51           I   tau(  51) = (  0.6666613  0.3333133  0.3715318  )
        52           I   tau(  52) = (  0.6666639  0.3333080  0.8715318  )
        53           I   tau(  53) = (  0.6666598  0.5833121  0.3715264  )
        54           I   tau(  54) = (  0.6666624  0.5833068  0.8715264  )
        55           I   tau(  55) = (  0.6666582  0.8333108  0.3715210  )
        56           I   tau(  56) = (  0.6666608  0.8333055  0.8715210  )
        57           I   tau(  57) = (  0.9166623  0.0833134  0.3715414  )
        58           I   tau(  58) = (  0.9166648  0.0833080  0.8715414  )
        59           I   tau(  59) = (  0.9166607  0.3333121  0.3715361  )
        60           I   tau(  60) = (  0.9166633  0.3333068  0.8715361  )
        61           I   tau(  61) = (  0.9166592  0.5833108  0.3715307  )
        62           I   tau(  62) = (  0.9166618  0.5833055  0.8715307  )
        63           I   tau(  63) = (  0.9166576  0.8333096  0.3715253  )
        64           I   tau(  64) = (  0.9166602  0.8333043  0.8715253  )
        65           I   tau(  65) = (  0.0833270  0.1666576  0.1284675  )
        66           I   tau(  66) = (  0.0833296  0.1666523  0.6284675  )
        67           I   tau(  67) = (  0.0833255  0.4166564  0.1284621  )
        68           I   tau(  68) = (  0.0833281  0.4166511  0.6284621  )
        69           I   tau(  69) = (  0.0833239  0.6666551  0.1284567  )
        70           I   tau(  70) = (  0.0833265  0.6666498  0.6284567  )
        71           I   tau(  71) = (  0.0833224  0.9166539  0.1284513  )
        72           I   tau(  72) = (  0.0833250  0.9166486  0.6284513  )
        73           I   tau(  73) = (  0.3333264  0.1666564  0.1284717  )
        74           I   tau(  74) = (  0.3333290  0.1666511  0.6284717  )
        75           I   tau(  75) = (  0.3333249  0.4166552  0.1284664  )
        76           I   tau(  76) = (  0.3333275  0.4166499  0.6284663  )
        77           I   tau(  77) = (  0.3333233  0.6666539  0.1284610  )
        78           I   tau(  78) = (  0.3333259  0.6666486  0.6284610  )
        79           I   tau(  79) = (  0.3333218  0.9166527  0.1284556  )
        80           I   tau(  80) = (  0.3333244  0.9166473  0.6284556  )
        81           I   tau(  81) = (  0.5833258  0.1666552  0.1284760  )
        82           I   tau(  82) = (  0.5833284  0.1666499  0.6284760  )
        83           I   tau(  83) = (  0.5833243  0.4166539  0.1284706  )
        84           I   tau(  84) = (  0.5833269  0.4166486  0.6284706  )
        85           I   tau(  85) = (  0.5833227  0.6666527  0.1284652  )
        86           I   tau(  86) = (  0.5833253  0.6666474  0.6284652  )
        87           I   tau(  87) = (  0.5833212  0.9166514  0.1284599  )
        88           I   tau(  88) = (  0.5833238  0.9166461  0.6284599  )
        89           I   tau(  89) = (  0.8333252  0.1666540  0.1284803  )
        90           I   tau(  90) = (  0.8333278  0.1666487  0.6284803  )
        91           I   tau(  91) = (  0.8333237  0.4166527  0.1284749  )
        92           I   tau(  92) = (  0.8333262  0.4166474  0.6284749  )
        93           I   tau(  93) = (  0.8333221  0.6666515  0.1284695  )
        94           I   tau(  94) = (  0.8333247  0.6666462  0.6284695  )
        95           I   tau(  95) = (  0.8333206  0.9166502  0.1284641  )
        96           I   tau(  96) = (  0.8333232  0.9166449  0.6284641  )

     number of k points=     1  Gaussian smearing, width (Ry)=  0.0100
                       cart. coord. in units 2pi/alat
        k(    1) = (   0.0000000   0.0000000   0.0000000), wk =   2.0000000

                       cryst. coord.
        k(    1) = (   0.0000000   0.0000000   0.0000000), wk =   2.0000000

     Dense  grid:  3385235 G-vectors     FFT dimensions: ( 216, 216, 180)

     Smooth grid:  2422379 G-vectors     FFT dimensions: ( 192, 192, 150)

     Dynamical RAM for                 wfc:      33.27 MB

     Dynamical RAM for     wfc (w. buffer):      33.27 MB

     Dynamical RAM for           str. fact:       0.81 MB

     Dynamical RAM for           local pot:       0.00 MB

     Dynamical RAM for          nlocal pot:      62.36 MB

     Dynamical RAM for                qrad:       3.00 MB

     Dynamical RAM for          rho,v,vnew:       3.35 MB

     Dynamical RAM for               rhoin:       1.12 MB

     Dynamical RAM for            rho*nmix:       6.46 MB

     Dynamical RAM for           G-vectors:       1.66 MB

     Dynamical RAM for          h,s,v(r/c):     622.62 MB

     Dynamical RAM for          <psi|beta>:      24.31 MB

     Dynamical RAM for                 psi:     133.09 MB

     Dynamical RAM for                hpsi:     133.09 MB

     Dynamical RAM for                spsi:     133.09 MB

     Dynamical RAM for      wfcinit/wfcrot:      86.01 MB

     Dynamical RAM for           addusdens:     100.90 MB

     Dynamical RAM for          addusforce:     152.21 MB

     Dynamical RAM for         addusstress:      81.13 MB

     Estimated static dynamical RAM per process >     110.33 MB

     Estimated max dynamical RAM per process >       1.14 GB

     Estimated total dynamical RAM >     145.37 GB

     Check: negative core charge=   -0.000001

     Initial potential from superposition of free atoms

     starting charge    1535.9199, renormalised to    1536.0000


     %%%%%%%%%%%%%%%%%%%%%%%%%%%%%%%%%%%%%%%%%%%%%%%%%%%%%%%%%%%%%%%%%%%%%%%%
     %                                                                      %
     % You are using vdW-DF, which was implemented by the Thonhauser group. %
     % Please cite the following two papers that made this development      %
     % possible and the two reviews that describe the various versions:     %
     %                                                                      %
     %   T. Thonhauser et al., PRL 115, 136402 (2015).                      %
     %   T. Thonhauser et al., PRB 76, 125112 (2007).                       %
     %   K. Berland et al., Rep. Prog. Phys. 78, 066501 (2015).             %
     %   D.C. Langreth et al., J. Phys.: Condens. Matter 21, 084203 (2009). %
     %                                                                      %
     % If you are calculating stress with vdW-DF, please also cite:         %
     %                                                                      %
     %   R. Sabatini et al., J. Phys.: Condens. Matter 24, 424209 (2012).   %
     %                                                                      %
     %%%%%%%%%%%%%%%%%%%%%%%%%%%%%%%%%%%%%%%%%%%%%%%%%%%%%%%%%%%%%%%%%%%%%%%%

     %%%%%%%%%%%%%%%%%%%%%%%%%%%%%%%%%%%%%%%%%%%%%%%%%%%%%%%%%%%%%%%%%%%%%%%%
     %                                                                      %
     %  vdW-DF NEWS:                                                        %
     %                                                                      %
     %  * vdW-DF3 is now available. DOI: 10.1021/acs.jctc.0c00471           %
     %    use with input_dft = 'vdW-DF3-opt1' or 'vdW-DF3-opt2'             %
     %                                                                      %
     %  * Unscreened and range-separated vdW-DF hybrid functionals          %
     %    DOI: 10.1063/1.4986522 and 10.1088/1361-648X/ac2ad2               %
     %    use with input_dft = 'vdW-DF-cx0' (etc) and 'vdW-DF-ahcx'         %
     %                                                                      %
     %%%%%%%%%%%%%%%%%%%%%%%%%%%%%%%%%%%%%%%%%%%%%%%%%%%%%%%%%%%%%%%%%%%%%%%%


     Carrying out vdW-DF run using the following parameters:
     Nqs    =  20  Npoints =  1024  r_max =  100.000
     q_mesh =  0.00001000  0.04494208  0.09755937  0.15916263
               0.23128650  0.31572767  0.41458969  0.53033537
               0.66584808  0.82450364  1.01025438  1.22772762
               1.48234092  1.78043706  2.12944203  2.53805004
               3.01644009  3.57652955  4.23227104  5.00000000


     -----------------------------------------------
     Non-local corr. energy    =      45.80606917 Ry
     -----------------------------------------------

     Starting wfcs are  864 randomized atomic wfcs +   58 random wfcs
     Checking if some PAW data can be deallocated... 
       PAW data deallocated on   64 nodes for type:  1
       PAW data deallocated on   64 nodes for type:  2

     total cpu time spent up to now is       15.2 secs

     Self-consistent Calculation

     iteration #  1     ecut=    70.00 Ry     beta= 0.70
     Davidson diagonalization with overlap

---- Real-time Memory Report at c_bands before calling an iterative solver
           497 MiB given to the printing process from OS
             0 MiB allocation reported by mallinfo(arena+hblkhd)
       1912728 MiB available memory on the node where the printing process lives
------------------
     ethr =  1.00E-02,  avg # of iterations =  9.0

     Threshold (ethr) on eigenvalues was too large:
     Diagonalizing with lowered threshold

     Davidson diagonalization with overlap

---- Real-time Memory Report at c_bands before calling an iterative solver
           963 MiB given to the printing process from OS
             0 MiB allocation reported by mallinfo(arena+hblkhd)
       1902268 MiB available memory on the node where the printing process lives
------------------
     ethr =  2.14E-04,  avg # of iterations = 15.0


     -----------------------------------------------
     Non-local corr. energy    =      46.13591567 Ry
     -----------------------------------------------


     total cpu time spent up to now is      344.6 secs

     total energy              =  -64754.92891194 Ry
     estimated scf accuracy    <       3.06525053 Ry

     iteration #  2     ecut=    70.00 Ry     beta= 0.70
     Davidson diagonalization with overlap

---- Real-time Memory Report at c_bands before calling an iterative solver
          1080 MiB given to the printing process from OS
             0 MiB allocation reported by mallinfo(arena+hblkhd)
       1902055 MiB available memory on the node where the printing process lives
------------------
     ethr =  2.00E-04,  avg # of iterations =  7.0


     -----------------------------------------------
     Non-local corr. energy    =      46.01328162 Ry
     -----------------------------------------------


     total cpu time spent up to now is      447.6 secs

     total energy              =  -64755.19256548 Ry
     estimated scf accuracy    <       4.56211300 Ry

     iteration #  3     ecut=    70.00 Ry     beta= 0.70
     Davidson diagonalization with overlap

---- Real-time Memory Report at c_bands before calling an iterative solver
          1080 MiB given to the printing process from OS
             0 MiB allocation reported by mallinfo(arena+hblkhd)
       1905088 MiB available memory on the node where the printing process lives
------------------
     ethr =  2.00E-04,  avg # of iterations =  5.0


     -----------------------------------------------
     Non-local corr. energy    =      45.99617721 Ry
     -----------------------------------------------


     total cpu time spent up to now is      524.0 secs

     total energy              =  -64756.21833463 Ry
     estimated scf accuracy    <       0.11321366 Ry

     iteration #  4     ecut=    70.00 Ry     beta= 0.70
     Davidson diagonalization with overlap

---- Real-time Memory Report at c_bands before calling an iterative solver
          1080 MiB given to the printing process from OS
             0 MiB allocation reported by mallinfo(arena+hblkhd)
       1904822 MiB available memory on the node where the printing process lives
------------------
     ethr =  7.37E-06,  avg # of iterations = 13.0


     -----------------------------------------------
     Non-local corr. energy    =      46.00852326 Ry
     -----------------------------------------------


     total cpu time spent up to now is      697.3 secs

     total energy              =  -64756.24064588 Ry
     estimated scf accuracy    <       0.02094180 Ry

     iteration #  5     ecut=    70.00 Ry     beta= 0.70
     Davidson diagonalization with overlap

---- Real-time Memory Report at c_bands before calling an iterative solver
          1080 MiB given to the printing process from OS
             0 MiB allocation reported by mallinfo(arena+hblkhd)
       1904463 MiB available memory on the node where the printing process lives
------------------
     ethr =  1.36E-06,  avg # of iterations = 19.0


     -----------------------------------------------
     Non-local corr. energy    =      46.01675255 Ry
     -----------------------------------------------


     total cpu time spent up to now is     1039.2 secs

     total energy              =  -64756.24306739 Ry
     estimated scf accuracy    <       0.06125666 Ry

     iteration #  6     ecut=    70.00 Ry     beta= 0.70
     Davidson diagonalization with overlap

---- Real-time Memory Report at c_bands before calling an iterative solver
          1185 MiB given to the printing process from OS
             0 MiB allocation reported by mallinfo(arena+hblkhd)
       1904360 MiB available memory on the node where the printing process lives
------------------
     ethr =  1.36E-06,  avg # of iterations = 16.0


     -----------------------------------------------
     Non-local corr. energy    =      46.02444547 Ry
     -----------------------------------------------


     total cpu time spent up to now is     1229.6 secs

     total energy              =  -64756.25098111 Ry
     estimated scf accuracy    <       0.00152421 Ry

     iteration #  7     ecut=    70.00 Ry     beta= 0.70
     Davidson diagonalization with overlap

---- Real-time Memory Report at c_bands before calling an iterative solver
          1185 MiB given to the printing process from OS
             0 MiB allocation reported by mallinfo(arena+hblkhd)
       1904222 MiB available memory on the node where the printing process lives
------------------
     c_bands:  2 eigenvalues not converged
     ethr =  9.92E-08,  avg # of iterations = 20.0


     -----------------------------------------------
     Non-local corr. energy    =      46.02738500 Ry
     -----------------------------------------------


     total cpu time spent up to now is     1581.7 secs

     total energy              =  -64756.25110300 Ry
     estimated scf accuracy    <       0.00130045 Ry

     iteration #  8     ecut=    70.00 Ry     beta= 0.70
     Davidson diagonalization with overlap

---- Real-time Memory Report at c_bands before calling an iterative solver
          1202 MiB given to the printing process from OS
             0 MiB allocation reported by mallinfo(arena+hblkhd)
       1904052 MiB available memory on the node where the printing process lives
------------------
     ethr =  8.47E-08,  avg # of iterations = 17.0


     -----------------------------------------------
     Non-local corr. energy    =      46.02750751 Ry
     -----------------------------------------------


     total cpu time spent up to now is     1811.7 secs

     total energy              =  -64756.25141430 Ry
     estimated scf accuracy    <       0.00038396 Ry

     iteration #  9     ecut=    70.00 Ry     beta= 0.70
     Davidson diagonalization with overlap

---- Real-time Memory Report at c_bands before calling an iterative solver
          1202 MiB given to the printing process from OS
             0 MiB allocation reported by mallinfo(arena+hblkhd)
       1903898 MiB available memory on the node where the printing process lives
------------------
     ethr =  2.50E-08,  avg # of iterations = 15.0


     -----------------------------------------------
     Non-local corr. energy    =      46.02749538 Ry
     -----------------------------------------------


     total cpu time spent up to now is     2005.6 secs

     total energy              =  -64756.25148003 Ry
     estimated scf accuracy    <       0.00006535 Ry

     iteration # 10     ecut=    70.00 Ry     beta= 0.70
     Davidson diagonalization with overlap

---- Real-time Memory Report at c_bands before calling an iterative solver
          1202 MiB given to the printing process from OS
             0 MiB allocation reported by mallinfo(arena+hblkhd)
       1903722 MiB available memory on the node where the printing process lives
------------------
     ethr =  4.25E-09,  avg # of iterations = 15.0


     -----------------------------------------------
     Non-local corr. energy    =      46.02762717 Ry
     -----------------------------------------------


     total cpu time spent up to now is     2199.5 secs

     total energy              =  -64756.25149719 Ry
     estimated scf accuracy    <       0.00000812 Ry

     iteration # 11     ecut=    70.00 Ry     beta= 0.70
     Davidson diagonalization with overlap

---- Real-time Memory Report at c_bands before calling an iterative solver
          1202 MiB given to the printing process from OS
             0 MiB allocation reported by mallinfo(arena+hblkhd)
       1903721 MiB available memory on the node where the printing process lives
------------------
     ethr =  5.28E-10,  avg # of iterations = 11.0


     -----------------------------------------------
     Non-local corr. energy    =      46.02765474 Ry
     -----------------------------------------------


     total cpu time spent up to now is     2475.3 secs

     total energy              =  -64756.25150088 Ry
     estimated scf accuracy    <       0.00000108 Ry

     iteration # 12     ecut=    70.00 Ry     beta= 0.70
     Davidson diagonalization with overlap

---- Real-time Memory Report at c_bands before calling an iterative solver
          1308 MiB given to the printing process from OS
             0 MiB allocation reported by mallinfo(arena+hblkhd)
       1903276 MiB available memory on the node where the printing process lives
------------------
     ethr =  7.06E-11,  avg # of iterations = 17.0


     -----------------------------------------------
     Non-local corr. energy    =      46.02774210 Ry
     -----------------------------------------------


     total cpu time spent up to now is     2712.1 secs

     total energy              =  -64756.25150122 Ry
     estimated scf accuracy    <       0.00000027 Ry

     iteration # 13     ecut=    70.00 Ry     beta= 0.70
     Davidson diagonalization with overlap

---- Real-time Memory Report at c_bands before calling an iterative solver
          1308 MiB given to the printing process from OS
             0 MiB allocation reported by mallinfo(arena+hblkhd)
       1903271 MiB available memory on the node where the printing process lives
------------------
     ethr =  1.78E-11,  avg # of iterations = 19.0


     -----------------------------------------------
     Non-local corr. energy    =      46.02776363 Ry
     -----------------------------------------------


     total cpu time spent up to now is     2967.8 secs

     End of self-consistent calculation

          k = 0.0000 0.0000 0.0000 (302703 PWs)   bands (ev):

   -40.7606 -40.7606 -40.7605 -40.7605 -40.7605 -40.7605 -40.7605 -40.7605
   -40.7605 -40.7605 -40.7604 -40.7604 -40.7604 -40.7604 -40.7604 -40.7604
   -40.7604 -40.7604 -40.7604 -40.7604 -40.7604 -40.7604 -40.7604 -40.7604
   -40.7604 -40.7604 -40.7603 -40.7603 -40.7603 -40.7603 -40.7603 -40.7603
   -40.7603 -40.7603 -40.7603 -40.7603 -40.7603 -40.7603 -40.7603 -40.7603
   -40.7603 -40.7603 -40.7603 -40.7603 -40.7603 -40.7603 -40.7603 -40.7603
   -40.7603 -40.7603 -40.7603 -40.7603 -40.7603 -40.7603 -40.7603 -40.7603
   -40.7603 -40.7603 -40.7603 -40.7603 -40.7603 -40.7603 -40.7603 -40.7602
   -40.7602 -40.7602 -40.7602 -40.7602 -40.7602 -40.7602 -40.7602 -40.7602
   -40.7602 -40.7602 -40.7602 -40.7602 -40.7602 -40.7602 -40.7602 -40.7602
   -40.7602 -40.7602 -40.7602 -40.7602 -40.7602 -40.7602 -40.7602 -40.7602
   -40.7602 -40.7602 -40.7601 -40.7601 -40.7601 -40.7601 -40.7601 -40.7601
   -40.7601 -40.7601 -40.7601 -40.7601 -40.7601 -40.7601 -40.7601 -40.7601
   -40.7601 -40.7601 -40.7601 -40.7601 -40.7601 -40.7601 -40.7601 -40.7601
   -40.7601 -40.7601 -40.7601 -40.7601 -40.7601 -40.7601 -40.7601 -40.7600
   -40.7600 -40.7600 -40.7600 -40.7600 -40.7600 -40.7600 -40.7600 -40.7600
   -40.7600 -40.7600 -40.7600 -40.7600 -40.7600 -40.7600 -40.7600 -40.7600
   -40.7600 -40.7600 -40.7600 -40.7600 -40.7600 -40.7600 -40.7600 -40.7600
   -40.7600 -40.7600 -40.7600 -40.7600 -40.7600 -40.7600 -40.7600 -40.7600
   -40.7600 -40.7600 -40.7600 -40.7600 -40.7600 -40.7600 -40.7600 -40.7599
   -40.7599 -40.7599 -40.7599 -40.7599 -40.7599 -40.7599 -40.7599 -40.7599
   -40.7599 -40.7599 -40.7599 -40.7599 -40.7599 -40.7599 -40.7599 -40.7599
   -40.7599 -40.7599 -40.7599 -40.7598 -40.7598 -40.7598 -40.7598 -40.7598
   -40.7598 -40.7598 -40.7598 -40.7597 -40.7597 -40.7597 -40.7597 -40.7597
   -40.7595 -40.7595 -40.7594 -40.7594 -40.7594 -40.7594 -40.7593 -40.7593
   -40.7593 -40.7593 -40.7593 -40.7593 -40.7593 -40.7592 -40.7592 -40.7592
   -40.7592 -40.7592 -40.7592 -40.7592 -40.7592 -40.7592 -40.7592 -40.7592
   -40.7592 -40.7592 -40.7592 -40.7592 -40.7592 -40.7592 -40.7592 -40.7592
   -40.7592 -40.7591 -40.7591 -40.7591 -40.7591 -40.7591 -40.7591 -40.7591
   -40.7591 -40.7591 -40.7591 -40.7591 -40.7591 -40.7591 -40.7591 -40.7591
   -40.7591 -40.7591 -40.7591 -40.7591 -40.7591 -40.7590 -40.7590 -40.7590
   -40.7590 -40.7590 -40.7590 -40.7590 -40.7590 -40.7590 -40.7590 -40.7590
   -40.7590 -40.7590 -40.7590 -40.7590 -40.7590 -40.7590 -40.7590 -40.7590
   -40.7589 -40.7589 -40.7589 -40.7589 -40.7589 -40.7589 -40.7589 -40.7589
   -40.7589 -40.7589 -40.7589 -40.7589 -40.7589 -40.7589 -40.7589 -40.7589
   -40.7589 -40.7589 -40.7589 -40.7589 -40.7589 -40.7589 -40.7589 -40.7589
   -40.7589 -40.7589 -40.7589 -40.7588 -40.7588 -40.7588 -40.7588 -40.7588
   -40.7588 -40.7588 -40.7588 -40.7588 -40.7588 -40.7588 -40.7588 -40.7588
   -40.7588 -40.7588 -40.7588 -40.7588 -40.7588 -40.7587 -40.7587 -40.7587
   -40.7587 -40.7587 -40.7587 -40.7587 -40.7586 -40.7586 -40.7586 -40.7585
   -12.9431 -12.9431 -12.9431 -12.9430 -12.9430 -12.9430 -12.9363 -12.9363
   -12.9363 -12.9363 -12.9363 -12.9363 -12.9363 -12.9363 -12.9363 -12.9362
   -12.9362 -12.9362 -12.9325 -12.9325 -12.9325 -12.9325 -12.9324 -12.9324
   -12.9324 -12.9324 -12.9324 -12.9324 -12.9324 -12.9324 -12.9247 -12.9246
   -12.9246 -12.9246 -12.9246 -12.9246 -12.9246 -12.9246 -12.9246 -12.9246
   -12.9246 -12.9245 -12.9227 -12.9227 -12.9227 -12.9227 -12.9197 -12.9197
   -12.9194 -12.9194 -12.9194 -12.9194 -12.9194 -12.9194 -12.9193 -12.9193
   -12.9193 -12.9193 -12.9193 -12.9193 -12.9192 -12.9192 -12.9192 -12.9191
   -12.9191 -12.9191 -12.9191 -12.9191 -12.9191 -12.9190 -12.9190 -12.9190
   -12.9177 -12.9177 -12.9177 -12.9177 -12.9177 -12.9177 -12.9176 -12.9176
   -12.9176 -12.9176 -12.9176 -12.9176 -12.9148 -12.9148 -12.9148 -12.9148
   -12.9147 -12.9147 -12.9147 -12.9147 -12.9147 -12.9147 -12.9147 -12.9147
   -12.9142 -12.9142 -12.9142 -12.9142 -12.9142 -12.9142 -12.9142 -12.9141
   -12.9141 -12.9141 -12.9141 -12.9141 -12.9140 -12.9140 -12.9140 -12.9140
   -12.9140 -12.9140 -12.9139 -12.9139 -12.9139 -12.9139 -12.9139 -12.9139
   -12.9138 -12.9138 -12.9137 -12.9137 -12.9116 -12.9116 -12.9116 -12.9116
   -12.9116 -12.9115 -12.9115 -12.9115 -12.9115 -12.9115 -12.9115 -12.9115
   -12.9102 -12.9102 -12.9102 -12.9102 -12.9102 -12.9101 -12.9084 -12.9084
   -12.9084 -12.9084 -12.9084 -12.9084 -12.9083 -12.9083 -12.9083 -12.9083
   -12.9083 -12.9083 -12.9063 -12.9063 -12.9063 -12.9063 -12.9063 -12.9063
    -8.0880  -7.9956  -7.8879  -7.8878  -7.8878  -7.8878  -7.8878  -7.8877
    -7.8112  -7.8112  -7.8112  -7.8111  -7.8111  -7.8111  -7.6833  -7.6248
    -7.6247  -7.6247  -7.6246  -7.6246  -7.6246  -7.6062  -7.6062  -7.6061
    -7.5853  -7.5852  -7.5852  -7.5852  -7.5851  -7.5851  -7.5829  -7.5829
    -7.5829  -7.5829  -7.5829  -7.5828  -7.5686  -7.5686  -7.5685  -7.5640
    -7.5096  -7.5096  -7.5095  -7.4943  -7.4943  -7.4942  -7.4942  -7.4942
    -7.4941  -7.4925  -7.4925  -7.4924  -7.4924  -7.4924  -7.4924  -7.4739
    -7.4739  -7.4737  -7.4546  -7.4546  -7.4546  -7.4545  -7.4545  -7.4544
    -3.6319  -3.6318  -3.6318  -3.6202  -3.6201  -3.6201  -3.6155  -3.6154
    -3.6154  -3.6154  -3.6154  -3.6153  -3.6138  -3.6138  -3.6138  -3.6138
    -3.6137  -3.6137  -3.3737  -3.3737  -3.3737  -3.3737  -3.3736  -3.3736
    -3.3524  -3.3524  -3.3524  -3.3524  -3.3523  -3.3523  -3.1941  -3.1138
     0.8758   0.8759   0.8759   1.1480   1.1480   1.1481   1.2089   1.2089
     1.2089   1.2090   1.2090   1.2090   1.3947   1.3948   1.3948   1.3948
     1.3948   1.3949   1.4000   1.4000   1.4001   1.4002   1.4002   1.4002
     1.5043   1.5043   1.5044   1.5044   1.5044   1.5045   1.5342   1.5342
     1.5343   1.5343   1.5343   1.5344   1.6441   1.6442   1.6442   1.6442
     1.6442   1.6443   1.7436   1.7437   1.7438   1.8236   1.8236   1.8236
     1.8236   1.8236   1.8237   1.9318   1.9319   1.9320   2.0512   2.0512
     2.0513   2.0513   2.0513   2.0513   2.0547   2.0547   2.0547   2.0547
     2.0548   2.0549   2.0606   2.0607   2.0608   2.1756   2.1757   2.1757
     2.1958   2.2480   2.2480   2.2481   2.2481   2.2482   2.2482   2.3175
     2.3176   2.3176   2.3176   2.3176   2.3177   2.3280   2.3280   2.3280
     2.3281   2.3281   2.3281   2.3480   2.3480   2.3481   2.3481   2.3482
     2.3482   2.4639   2.4639   2.4641   2.5373   2.5374   2.5375   2.5375
     2.5375   2.5376   2.6058   2.6059   2.6059   2.6584   2.7088   2.7089
     2.7515   2.7516   2.7516   2.7516   2.7517   2.7517   2.7630   2.7630
     2.7631   2.7875   2.7877   2.8341   2.8341   2.8341   2.8341   2.8341
     2.8341   2.8839   2.8839   2.8840   2.8840   2.8840   2.8841   2.9009
     2.9009   2.9110   2.9110   2.9111   2.9111   2.9111   2.9111   2.9756
     2.9756   2.9757   2.9985   2.9985   2.9985   2.9986   2.9986   2.9986
     3.0027   3.0027   3.0122   3.0171   3.0171   3.0172   3.0260   3.0261
     3.0261   3.0261   3.0262   3.0262   3.1901   3.1901   3.1901   3.1901
     3.1902   3.1902   3.2221   3.2221   3.2222   3.2498   3.2498   3.2498
     3.2499   3.2499   3.2499   3.3593   3.3593   3.3593   3.3593   3.3593
     3.3593   3.4053   3.4053   3.4053   3.4054   3.4054   3.4054   3.4828
     5.9388   6.1490   6.4953   6.4953   6.4954   6.4954   6.4955   6.4955
     6.5839   6.5839   6.5840   6.7019   6.7019   6.7019   6.7020   6.7020
     6.7021   6.8007   6.8009   6.8603   6.8604   6.8606   6.9047   6.9049
     6.9731   6.9732   6.9732   6.9733   6.9734   6.9734   7.1748   7.1748
     7.1749   7.1749   7.1749   7.1750   7.2472   7.2473   7.2474   7.2474
     7.2476   7.2476   7.2517   7.2517   7.2518   7.2518   7.2519   7.2519
     7.2602   7.2602   7.2604   7.2605   7.2606   7.2606   7.2989   7.2990
     7.2990   7.3954   7.3955   7.3956   7.3956   7.3959   7.3959   7.4049
     7.4049   7.4051   7.4282   7.4282   7.4284   7.4284   7.4285   7.4286
     7.4471   7.4472   7.4473   7.4473   7.4475   7.4475   7.5554   7.5555
     7.5555   7.5911   7.5911   7.5912   7.5912   7.5913   7.5913   7.7093
     7.7093   7.7095   7.7095   7.7095   7.7096   8.0291   8.0292   8.0295
     9.1852   9.1854   9.1854   9.7668   9.7669   9.7669   9.8774   9.8774
     9.8775   9.8775   9.8775   9.8775   9.8789  10.0416  10.0416  10.0417
    10.0417  10.0417  10.0417  10.0727  10.0727  10.0727  10.0727  10.0728
    10.0728  10.4086  10.4086  10.4086  10.4086  10.4086  10.4087  10.4290
    10.4512  10.4512  10.4513  10.4513  10.4514  10.4514  10.8143  10.8143
    10.8144  10.8144  10.8145  10.8146  10.9505  10.9505  10.9505  10.9505
    10.9506  10.9507  11.2066  11.2067  11.2067  11.2068  11.2069  11.2069
    11.2501  11.2502

     occupation numbers 
     1.0000   1.0000   1.0000   1.0000   1.0000   1.0000   1.0000   1.0000
     1.0000   1.0000   1.0000   1.0000   1.0000   1.0000   1.0000   1.0000
     1.0000   1.0000   1.0000   1.0000   1.0000   1.0000   1.0000   1.0000
     1.0000   1.0000   1.0000   1.0000   1.0000   1.0000   1.0000   1.0000
     1.0000   1.0000   1.0000   1.0000   1.0000   1.0000   1.0000   1.0000
     1.0000   1.0000   1.0000   1.0000   1.0000   1.0000   1.0000   1.0000
     1.0000   1.0000   1.0000   1.0000   1.0000   1.0000   1.0000   1.0000
     1.0000   1.0000   1.0000   1.0000   1.0000   1.0000   1.0000   1.0000
     1.0000   1.0000   1.0000   1.0000   1.0000   1.0000   1.0000   1.0000
     1.0000   1.0000   1.0000   1.0000   1.0000   1.0000   1.0000   1.0000
     1.0000   1.0000   1.0000   1.0000   1.0000   1.0000   1.0000   1.0000
     1.0000   1.0000   1.0000   1.0000   1.0000   1.0000   1.0000   1.0000
     1.0000   1.0000   1.0000   1.0000   1.0000   1.0000   1.0000   1.0000
     1.0000   1.0000   1.0000   1.0000   1.0000   1.0000   1.0000   1.0000
     1.0000   1.0000   1.0000   1.0000   1.0000   1.0000   1.0000   1.0000
     1.0000   1.0000   1.0000   1.0000   1.0000   1.0000   1.0000   1.0000
     1.0000   1.0000   1.0000   1.0000   1.0000   1.0000   1.0000   1.0000
     1.0000   1.0000   1.0000   1.0000   1.0000   1.0000   1.0000   1.0000
     1.0000   1.0000   1.0000   1.0000   1.0000   1.0000   1.0000   1.0000
     1.0000   1.0000   1.0000   1.0000   1.0000   1.0000   1.0000   1.0000
     1.0000   1.0000   1.0000   1.0000   1.0000   1.0000   1.0000   1.0000
     1.0000   1.0000   1.0000   1.0000   1.0000   1.0000   1.0000   1.0000
     1.0000   1.0000   1.0000   1.0000   1.0000   1.0000   1.0000   1.0000
     1.0000   1.0000   1.0000   1.0000   1.0000   1.0000   1.0000   1.0000
     1.0000   1.0000   1.0000   1.0000   1.0000   1.0000   1.0000   1.0000
     1.0000   1.0000   1.0000   1.0000   1.0000   1.0000   1.0000   1.0000
     1.0000   1.0000   1.0000   1.0000   1.0000   1.0000   1.0000   1.0000
     1.0000   1.0000   1.0000   1.0000   1.0000   1.0000   1.0000   1.0000
     1.0000   1.0000   1.0000   1.0000   1.0000   1.0000   1.0000   1.0000
     1.0000   1.0000   1.0000   1.0000   1.0000   1.0000   1.0000   1.0000
     1.0000   1.0000   1.0000   1.0000   1.0000   1.0000   1.0000   1.0000
     1.0000   1.0000   1.0000   1.0000   1.0000   1.0000   1.0000   1.0000
     1.0000   1.0000   1.0000   1.0000   1.0000   1.0000   1.0000   1.0000
     1.0000   1.0000   1.0000   1.0000   1.0000   1.0000   1.0000   1.0000
     1.0000   1.0000   1.0000   1.0000   1.0000   1.0000   1.0000   1.0000
     1.0000   1.0000   1.0000   1.0000   1.0000   1.0000   1.0000   1.0000
     1.0000   1.0000   1.0000   1.0000   1.0000   1.0000   1.0000   1.0000
     1.0000   1.0000   1.0000   1.0000   1.0000   1.0000   1.0000   1.0000
     1.0000   1.0000   1.0000   1.0000   1.0000   1.0000   1.0000   1.0000
     1.0000   1.0000   1.0000   1.0000   1.0000   1.0000   1.0000   1.0000
     1.0000   1.0000   1.0000   1.0000   1.0000   1.0000   1.0000   1.0000
     1.0000   1.0000   1.0000   1.0000   1.0000   1.0000   1.0000   1.0000
     1.0000   1.0000   1.0000   1.0000   1.0000   1.0000   1.0000   1.0000
     1.0000   1.0000   1.0000   1.0000   1.0000   1.0000   1.0000   1.0000
     1.0000   1.0000   1.0000   1.0000   1.0000   1.0000   1.0000   1.0000
     1.0000   1.0000   1.0000   1.0000   1.0000   1.0000   1.0000   1.0000
     1.0000   1.0000   1.0000   1.0000   1.0000   1.0000   1.0000   1.0000
     1.0000   1.0000   1.0000   1.0000   1.0000   1.0000   1.0000   1.0000
     1.0000   1.0000   1.0000   1.0000   1.0000   1.0000   1.0000   1.0000
     1.0000   1.0000   1.0000   1.0000   1.0000   1.0000   1.0000   1.0000
     1.0000   1.0000   1.0000   1.0000   1.0000   1.0000   1.0000   1.0000
     1.0000   1.0000   1.0000   1.0000   1.0000   1.0000   1.0000   1.0000
     1.0000   1.0000   1.0000   1.0000   1.0000   1.0000   1.0000   1.0000
     1.0000   1.0000   1.0000   1.0000   1.0000   1.0000   1.0000   1.0000
     1.0000   1.0000   1.0000   1.0000   1.0000   1.0000   1.0000   1.0000
     1.0000   1.0000   1.0000   1.0000   1.0000   1.0000   1.0000   1.0000
     1.0000   1.0000   1.0000   1.0000   1.0000   1.0000   1.0000   1.0000
     1.0000   1.0000   1.0000   1.0000   1.0000   1.0000   1.0000   1.0000
     1.0000   1.0000   1.0000   1.0000   1.0000   1.0000   1.0000   1.0000
     1.0000   1.0000   1.0000   1.0000   1.0000   1.0000   1.0000   1.0000
     1.0000   1.0000   1.0000   1.0000   1.0000   1.0000   1.0000   1.0000
     1.0000   1.0000   1.0000   1.0000   1.0000   1.0000   1.0000   1.0000
     1.0000   1.0000   1.0000   1.0000   1.0000   1.0000   1.0000   1.0000
     1.0000   1.0000   1.0000   1.0000   1.0000   1.0000   1.0000   1.0000
     1.0000   1.0000   1.0000   1.0000   1.0000   1.0000   1.0000   1.0000
     1.0000   1.0000   1.0000   1.0000   1.0000   1.0000   1.0000   1.0000
     1.0000   1.0000   1.0000   1.0000   1.0000   1.0000   1.0000   1.0000
     1.0000   1.0000   1.0000   1.0000   1.0000   1.0000   1.0000   1.0000
     1.0000   1.0000   1.0000   1.0000   1.0000   1.0000   1.0000   1.0000
     1.0000   1.0000   1.0000   1.0000   1.0000   1.0000   1.0000   1.0000
     1.0000   1.0000   1.0000   1.0000   1.0000   1.0000   1.0000   1.0000
     1.0000   1.0000   1.0000   1.0000   1.0000   1.0000   1.0000   1.0000
     1.0000   1.0000   1.0000   1.0000   1.0000   1.0000   1.0000   1.0000
     1.0000   1.0000   1.0000   1.0000   1.0000   1.0000   1.0000   1.0000
     1.0000   1.0000   1.0000   1.0000   1.0000   1.0000   1.0000   1.0000
     1.0000   1.0000   1.0000   1.0000   1.0000   1.0000   1.0000   1.0000
     1.0000   1.0000   1.0000   1.0000   1.0000   1.0000   1.0000   1.0000
     1.0000   1.0000   1.0000   1.0000   1.0000   1.0000   1.0000   1.0000
     1.0000   1.0000   1.0000   1.0000   1.0000   1.0000   1.0000   1.0000
     1.0000   1.0000   1.0000   1.0000   1.0000   1.0000   1.0000   1.0000
     1.0000   1.0000   1.0000   1.0000   1.0000   1.0000   1.0000   1.0000
     1.0000   1.0000   1.0000   1.0000   1.0000   1.0000   1.0000   1.0000
     1.0000   1.0000   1.0000   1.0000   1.0000   1.0000   1.0000   1.0000
     1.0000   1.0000   1.0000   1.0000   1.0000   1.0000   1.0000   1.0000
     1.0000   1.0000   1.0000   1.0000   1.0000   1.0000   1.0000   1.0000
     1.0000   1.0000   1.0000   1.0000   1.0000   1.0000   1.0000   1.0000
     1.0000   1.0000   1.0000   1.0000   1.0000   1.0000   1.0000   1.0000
     1.0000   1.0000   1.0000   1.0000   1.0000   1.0000   1.0000   1.0000
     1.0000   1.0000   1.0000   1.0000   1.0000   1.0000   1.0000   1.0000
     1.0000   1.0000   1.0000   1.0000   1.0000   1.0000   1.0000   1.0000
     1.0000   1.0000   1.0000   1.0000   1.0000   1.0000   1.0000   1.0000
     1.0000   1.0000   1.0000   1.0000   1.0000   1.0000   1.0000   1.0000
     1.0000   1.0000   1.0000   1.0000   1.0000   1.0000   1.0000   1.0000
     1.0000   1.0000   1.0000   1.0000   1.0000   1.0000   1.0000   1.0000
     1.0000   1.0000   1.0000   1.0000   1.0000   1.0000   1.0000   1.0000
     1.0000   1.0000   1.0000   1.0000   1.0000   1.0000   1.0000   1.0000
     0.0000   0.0000   0.0000   0.0000   0.0000   0.0000   0.0000   0.0000
     0.0000   0.0000   0.0000   0.0000   0.0000   0.0000   0.0000   0.0000
     0.0000   0.0000   0.0000   0.0000   0.0000   0.0000   0.0000   0.0000
     0.0000   0.0000   0.0000   0.0000   0.0000   0.0000   0.0000   0.0000
     0.0000   0.0000   0.0000   0.0000   0.0000   0.0000   0.0000   0.0000
     0.0000   0.0000   0.0000   0.0000   0.0000   0.0000   0.0000   0.0000
     0.0000   0.0000   0.0000   0.0000   0.0000   0.0000   0.0000   0.0000
     0.0000   0.0000   0.0000   0.0000   0.0000   0.0000   0.0000   0.0000
     0.0000   0.0000   0.0000   0.0000   0.0000   0.0000   0.0000   0.0000
     0.0000   0.0000   0.0000   0.0000   0.0000   0.0000   0.0000   0.0000
     0.0000   0.0000   0.0000   0.0000   0.0000   0.0000   0.0000   0.0000
     0.0000   0.0000   0.0000   0.0000   0.0000   0.0000   0.0000   0.0000
     0.0000   0.0000   0.0000   0.0000   0.0000   0.0000   0.0000   0.0000
     0.0000   0.0000   0.0000   0.0000   0.0000   0.0000   0.0000   0.0000
     0.0000   0.0000   0.0000   0.0000   0.0000   0.0000   0.0000   0.0000
     0.0000   0.0000   0.0000   0.0000   0.0000   0.0000   0.0000   0.0000
     0.0000   0.0000   0.0000   0.0000   0.0000   0.0000   0.0000   0.0000
     0.0000   0.0000   0.0000   0.0000   0.0000   0.0000   0.0000   0.0000
     0.0000   0.0000   0.0000   0.0000   0.0000   0.0000   0.0000   0.0000
     0.0000   0.0000

     the Fermi energy is     4.9141 ev

!    total energy              =  -64756.25150127 Ry
     total all-electron energy =  -2248970.345648 Ry
     estimated scf accuracy    <       0.00000007 Ry
     smearing contrib. (-TS)   =      -0.00000000 Ry
     internal energy E=F+TS    =  -64756.25150127 Ry

     The total energy is F=E-TS. E is the sum of the following terms:
     one-electron contribution =  -11900.25224822 Ry
     hartree contribution      =    6651.35007438 Ry
     xc contribution           =   -4536.52646677 Ry
     ewald contribution        =   -9900.21903767 Ry
     one-center paw contrib.   =  -45070.60382299 Ry
      -> PAW hartree energy AE =      95.89031099 Ry
      -> PAW hartree energy PS =     -96.12681607 Ry
      -> PAW xc energy AE      =    -798.42896291 Ry
      -> PAW xc energy PS      =      33.30893353 Ry
      -> total E_H with PAW    =    6651.11356930 Ry
      -> total E_XC with PAW   =   -5301.64649615 Ry

     convergence has been achieved in  13 iterations


     -----------------------------------------------
     Non-local corr. energy    =      46.02776363 Ry
     -----------------------------------------------


     Forces acting on atoms (cartesian axes, Ry/au):

     atom    1 type  1   force =     0.00000034    0.00000289    0.00000833
     atom    2 type  1   force =    -0.00000396    0.00001821    0.00001970
     atom    3 type  1   force =     0.00000183    0.00000317   -0.00000289
     atom    4 type  1   force =     0.00002309    0.00002653    0.00001897
     atom    5 type  1   force =     0.00000058    0.00000456    0.00000184
     atom    6 type  1   force =     0.00001423   -0.00000669    0.00002321
     atom    7 type  1   force =    -0.00004210   -0.00001208    0.00001197
     atom    8 type  1   force =    -0.00001608   -0.00004283    0.00004501
     atom    9 type  1   force =    -0.00001337    0.00001113    0.00001922
     atom   10 type  1   force =     0.00003825    0.00002193    0.00001595
     atom   11 type  1   force =    -0.00001669   -0.00001208    0.00001456
     atom   12 type  1   force =    -0.00001491    0.00000327    0.00000768
     atom   13 type  1   force =    -0.00002363   -0.00001295    0.00001215
     atom   14 type  1   force =    -0.00002739   -0.00002201    0.00002461
     atom   15 type  1   force =     0.00000785    0.00000016    0.00002945
     atom   16 type  1   force =     0.00004825    0.00000559    0.00003672
     atom   17 type  1   force =     0.00003028   -0.00001320    0.00001664
     atom   18 type  1   force =     0.00000868   -0.00003538    0.00000044
     atom   19 type  1   force =    -0.00000647    0.00000140    0.00002385
     atom   20 type  1   force =    -0.00000456   -0.00000067   -0.00001239
     atom   21 type  1   force =     0.00002673    0.00000277    0.00001604
     atom   22 type  1   force =     0.00002414   -0.00001885    0.00001068
     atom   23 type  1   force =    -0.00000479    0.00004713    0.00003290
     atom   24 type  1   force =    -0.00003673    0.00004084    0.00002246
     atom   25 type  1   force =    -0.00002731   -0.00000317    0.00000476
     atom   26 type  1   force =    -0.00002443   -0.00001021   -0.00000052
     atom   27 type  1   force =     0.00000382   -0.00001554    0.00000220
     atom   28 type  1   force =    -0.00000081   -0.00000405   -0.00001779
     atom   29 type  1   force =    -0.00001444    0.00004204    0.00001199
     atom   30 type  1   force =    -0.00000572    0.00000742   -0.00001101
     atom   31 type  1   force =     0.00002783   -0.00000883    0.00001850
     atom   32 type  1   force =     0.00000751   -0.00001709    0.00001279
     atom   33 type  2   force =    -0.00001881   -0.00005135    0.00116900
     atom   34 type  2   force =    -0.00004633   -0.00004696    0.00122423
     atom   35 type  2   force =     0.00000273    0.00002955    0.00120777
     atom   36 type  2   force =    -0.00000492    0.00000301    0.00123817
     atom   37 type  2   force =     0.00003466    0.00002422    0.00122468
     atom   38 type  2   force =     0.00001091    0.00002073    0.00120413
     atom   39 type  2   force =    -0.00002985   -0.00000288    0.00120760
     atom   40 type  2   force =    -0.00005095    0.00002234    0.00121605
     atom   41 type  2   force =     0.00002968   -0.00002119    0.00117456
     atom   42 type  2   force =     0.00000816   -0.00001716    0.00118503
     atom   43 type  2   force =     0.00000307    0.00003150    0.00120327
     atom   44 type  2   force =    -0.00001902    0.00003261    0.00121530
     atom   45 type  2   force =    -0.00001497    0.00000362    0.00121329
     atom   46 type  2   force =    -0.00002515    0.00000266    0.00118612
     atom   47 type  2   force =     0.00000115   -0.00000174    0.00122116
     atom   48 type  2   force =    -0.00000797    0.00000785    0.00118276
     atom   49 type  2   force =     0.00001946    0.00003234    0.00121307
     atom   50 type  2   force =    -0.00001755    0.00001455    0.00117303
     atom   51 type  2   force =     0.00002441   -0.00000637    0.00121044
     atom   52 type  2   force =     0.00000330   -0.00000969    0.00122796
     atom   53 type  2   force =    -0.00001091    0.00001021    0.00122217
     atom   54 type  2   force =    -0.00001779    0.00001000    0.00120089
     atom   55 type  2   force =    -0.00000229    0.00000301    0.00122126
     atom   56 type  2   force =    -0.00000957    0.00002189    0.00120459
     atom   57 type  2   force =    -0.00003988   -0.00000026    0.00120823
     atom   58 type  2   force =    -0.00001037    0.00000511    0.00118655
     atom   59 type  2   force =    -0.00004149   -0.00005194    0.00125154
     atom   60 type  2   force =    -0.00001256   -0.00002905    0.00121354
     atom   61 type  2   force =    -0.00001740    0.00002805    0.00122962
     atom   62 type  2   force =    -0.00001201    0.00004353    0.00120049
     atom   63 type  2   force =     0.00003910    0.00000310    0.00120926
     atom   64 type  2   force =     0.00003409    0.00003766    0.00120413
     atom   65 type  2   force =     0.00000470   -0.00004248   -0.00124094
     atom   66 type  2   force =    -0.00002688   -0.00003019   -0.00122197
     atom   67 type  2   force =     0.00002895   -0.00001787   -0.00120797
     atom   68 type  2   force =     0.00000680    0.00000534   -0.00122047
     atom   69 type  2   force =     0.00000448    0.00003766   -0.00118367
     atom   70 type  2   force =     0.00000188    0.00004252   -0.00121200
     atom   71 type  2   force =     0.00000006   -0.00002988   -0.00120114
     atom   72 type  2   force =    -0.00000551   -0.00005305   -0.00120445
     atom   73 type  2   force =     0.00000210   -0.00003154   -0.00121057
     atom   74 type  2   force =     0.00001100   -0.00001115   -0.00122655
     atom   75 type  2   force =     0.00000924    0.00001798   -0.00121077
     atom   76 type  2   force =    -0.00000663    0.00005827   -0.00122986
     atom   77 type  2   force =     0.00002389   -0.00001624   -0.00119137
     atom   78 type  2   force =     0.00001842    0.00000853   -0.00123962
     atom   79 type  2   force =    -0.00000931   -0.00002025   -0.00119949
     atom   80 type  2   force =     0.00001285   -0.00003292   -0.00123631
     atom   81 type  2   force =     0.00005995   -0.00002089   -0.00120790
     atom   82 type  2   force =     0.00006802   -0.00002978   -0.00123762
     atom   83 type  2   force =     0.00000571   -0.00000679   -0.00120502
     atom   84 type  2   force =    -0.00000578    0.00002403   -0.00124438
     atom   85 type  2   force =    -0.00001087   -0.00003239   -0.00120488
     atom   86 type  2   force =    -0.00002362   -0.00000306   -0.00124641
     atom   87 type  2   force =     0.00000471    0.00001850   -0.00119590
     atom   88 type  2   force =    -0.00000909    0.00002971   -0.00123442
     atom   89 type  2   force =    -0.00001348   -0.00002587   -0.00121964
     atom   90 type  2   force =    -0.00004832   -0.00001854   -0.00126357
     atom   91 type  2   force =    -0.00000429   -0.00002965   -0.00121507
     atom   92 type  2   force =     0.00001096   -0.00001935   -0.00126533
     atom   93 type  2   force =     0.00002785    0.00002810   -0.00121092
     atom   94 type  2   force =     0.00000648    0.00002476   -0.00123698
     atom   95 type  2   force =     0.00005845    0.00000695   -0.00121283
     atom   96 type  2   force =     0.00001633    0.00001718   -0.00122988
     The non-local contrib.  to forces
     atom    1 type  1   force =     0.00004073   -0.00003422   -0.00000611
     atom    2 type  1   force =    -0.00000712    0.00001693    0.00000013
     atom    3 type  1   force =     0.00004102   -0.00003547   -0.00002288
     atom    4 type  1   force =     0.00001473    0.00002076   -0.00000792
     atom    5 type  1   force =     0.00003862   -0.00003652   -0.00001940
     atom    6 type  1   force =     0.00000705   -0.00000793   -0.00000551
     atom    7 type  1   force =    -0.00001252   -0.00006375   -0.00007024
     atom    8 type  1   force =    -0.00003396   -0.00005216   -0.00004578
     atom    9 type  1   force =     0.00002515   -0.00002907    0.00000644
     atom   10 type  1   force =     0.00002726    0.00001683    0.00000414
     atom   11 type  1   force =     0.00002222   -0.00005055   -0.00000429
     atom   12 type  1   force =    -0.00002000    0.00000095   -0.00001055
     atom   13 type  1   force =     0.00001591   -0.00005027   -0.00000505
     atom   14 type  1   force =    -0.00003032   -0.00001941    0.00000240
     atom   15 type  1   force =     0.00002772   -0.00005729   -0.00004961
     atom   16 type  1   force =     0.00002027   -0.00001393   -0.00004752
     atom   17 type  1   force =     0.00006402   -0.00004756    0.00000326
     atom   18 type  1   force =    -0.00000321   -0.00003021   -0.00000710
     atom   19 type  1   force =     0.00003038   -0.00003716   -0.00000146
     atom   20 type  1   force =    -0.00001016   -0.00000325   -0.00002527
     atom   21 type  1   force =     0.00005896   -0.00003770   -0.00000479
     atom   22 type  1   force =     0.00001453   -0.00001676   -0.00000781
     atom   23 type  1   force =     0.00001975   -0.00001623   -0.00004797
     atom   24 type  1   force =    -0.00005235    0.00001431   -0.00005747
     atom   25 type  1   force =     0.00001292   -0.00005704    0.00004123
     atom   26 type  1   force =    -0.00002667   -0.00002355    0.00003634
     atom   27 type  1   force =     0.00004065   -0.00006821    0.00002976
     atom   28 type  1   force =    -0.00000419   -0.00002026    0.00001528
     atom   29 type  1   force =     0.00002340   -0.00002236    0.00003921
     atom   30 type  1   force =    -0.00001109   -0.00001322    0.00002371
     atom   31 type  1   force =     0.00004306   -0.00008229   -0.00001557
     atom   32 type  1   force =    -0.00001278   -0.00005310   -0.00002082
     atom   33 type  2   force =     0.00000368   -0.00006424    0.24760201
     atom   34 type  2   force =    -0.00000623   -0.00004763    0.24762378
     atom   35 type  2   force =     0.00001736    0.00004638    0.24761563
     atom   36 type  2   force =     0.00001176    0.00004207    0.24761098
     atom   37 type  2   force =     0.00004891    0.00004053    0.24763635
     atom   38 type  2   force =     0.00002684    0.00004883    0.24759866
     atom   39 type  2   force =    -0.00000872    0.00002137    0.24763493
     atom   40 type  2   force =    -0.00002691    0.00006009    0.24763064
     atom   41 type  2   force =     0.00003816   -0.00004476    0.24761622
     atom   42 type  2   force =    -0.00001008   -0.00004145    0.24760535
     atom   43 type  2   force =    -0.00000722    0.00004903    0.24761793
     atom   44 type  2   force =    -0.00004104    0.00004335    0.24762096
     atom   45 type  2   force =    -0.00001999    0.00001252    0.24765051
     atom   46 type  2   force =    -0.00003595    0.00000838    0.24761096
     atom   47 type  2   force =     0.00001013    0.00001236    0.24766561
     atom   48 type  2   force =    -0.00002459    0.00002708    0.24760892
     atom   49 type  2   force =     0.00002003   -0.00000964    0.24765150
     atom   50 type  2   force =    -0.00000433   -0.00000922    0.24760046
     atom   51 type  2   force =     0.00002217    0.00000158    0.24762739
     atom   52 type  2   force =    -0.00000397    0.00000734    0.24760903
     atom   53 type  2   force =    -0.00000662    0.00001492    0.24762966
     atom   54 type  2   force =    -0.00003035    0.00002392    0.24760977
     atom   55 type  2   force =    -0.00001080    0.00002885    0.24763475
     atom   56 type  2   force =    -0.00002374    0.00005061    0.24759845
     atom   57 type  2   force =    -0.00003582   -0.00002929    0.24761382
     atom   58 type  2   force =    -0.00002469   -0.00001327    0.24761369
     atom   59 type  2   force =    -0.00003932   -0.00002506    0.24762971
     atom   60 type  2   force =    -0.00002805   -0.00000778    0.24761353
     atom   61 type  2   force =    -0.00002370    0.00003549    0.24762516
     atom   62 type  2   force =    -0.00002434    0.00005843    0.24760478
     atom   63 type  2   force =     0.00002116    0.00001960    0.24763716
     atom   64 type  2   force =     0.00001822    0.00006537    0.24763186
     atom   65 type  2   force =    -0.00004823    0.00001126   -0.24762548
     atom   66 type  2   force =    -0.00004217    0.00000710   -0.24759677
     atom   67 type  2   force =    -0.00002776   -0.00000591   -0.24761805
     atom   68 type  2   force =    -0.00000519    0.00000103   -0.24762121
     atom   69 type  2   force =    -0.00004828    0.00003474   -0.24761132
     atom   70 type  2   force =    -0.00002088    0.00002890   -0.24762506
     atom   71 type  2   force =    -0.00004253   -0.00002194   -0.24763407
     atom   72 type  2   force =    -0.00002416   -0.00004777   -0.24761037
     atom   73 type  2   force =    -0.00002870    0.00003202   -0.24762038
     atom   74 type  2   force =     0.00000219    0.00002450   -0.24758643
     atom   75 type  2   force =    -0.00000559    0.00003382   -0.24763498
     atom   76 type  2   force =     0.00000044    0.00004317   -0.24762842
     atom   77 type  2   force =     0.00000355   -0.00000092   -0.24761177
     atom   78 type  2   force =     0.00002174    0.00000070   -0.24764295
     atom   79 type  2   force =    -0.00001582   -0.00001330   -0.24761097
     atom   80 type  2   force =     0.00002347   -0.00003892   -0.24760380
     atom   81 type  2   force =     0.00004568    0.00004267   -0.24760171
     atom   82 type  2   force =     0.00006600    0.00001821   -0.24763504
     atom   83 type  2   force =    -0.00001393    0.00002398   -0.24761525
     atom   84 type  2   force =     0.00000257    0.00001612   -0.24764047
     atom   85 type  2   force =    -0.00001629   -0.00001067   -0.24760618
     atom   86 type  2   force =    -0.00002256   -0.00001289   -0.24763691
     atom   87 type  2   force =     0.00000132    0.00003742   -0.24760007
     atom   88 type  2   force =    -0.00000037    0.00001675   -0.24763671
     atom   89 type  2   force =    -0.00001928    0.00004274   -0.24762559
     atom   90 type  2   force =    -0.00002813    0.00002442   -0.24764585
     atom   91 type  2   force =     0.00000443   -0.00000834   -0.24761141
     atom   92 type  2   force =     0.00001774   -0.00001608   -0.24764875
     atom   93 type  2   force =     0.00001913    0.00004165   -0.24761743
     atom   94 type  2   force =     0.00003078    0.00003197   -0.24764260
     atom   95 type  2   force =     0.00004121    0.00003371   -0.24761772
     atom   96 type  2   force =     0.00003560    0.00001133   -0.24762141
     The ionic contribution  to forces
     atom    1 type  1   force =    -0.00098235   -0.00018467    0.00053524
     atom    2 type  1   force =    -0.00020114   -0.00086952    0.00053473
     atom    3 type  1   force =    -0.00095915    0.00045882    0.00019067
     atom    4 type  1   force =    -0.00017794   -0.00022600    0.00019016
     atom    5 type  1   force =    -0.00096183    0.00105320    0.00015614
     atom    6 type  1   force =    -0.00018062    0.00036841    0.00015564
     atom    7 type  1   force =    -0.00066201    0.00124092    0.00107726
     atom    8 type  1   force =     0.00011928    0.00055637    0.00107696
     atom    9 type  1   force =    -0.00074896   -0.00002313    0.00080131
     atom   10 type  1   force =     0.00003225   -0.00070798    0.00080079
     atom   11 type  1   force =    -0.00072574    0.00062040    0.00045674
     atom   12 type  1   force =     0.00005548   -0.00006441    0.00045622
     atom   13 type  1   force =    -0.00072841    0.00121479    0.00042221
     atom   14 type  1   force =     0.00005280    0.00053000    0.00042170
     atom   15 type  1   force =    -0.00042860    0.00140251    0.00134333
     atom   16 type  1   force =     0.00035270    0.00071797    0.00134303
     atom   17 type  1   force =    -0.00052325    0.00010409    0.00082118
     atom   18 type  1   force =     0.00025797   -0.00058075    0.00082065
     atom   19 type  1   force =    -0.00050002    0.00074762    0.00047661
     atom   20 type  1   force =     0.00028120    0.00006282    0.00047608
     atom   21 type  1   force =    -0.00050270    0.00134201    0.00044208
     atom   22 type  1   force =     0.00027852    0.00065723    0.00044156
     atom   23 type  1   force =    -0.00020289    0.00152973    0.00136318
     atom   24 type  1   force =     0.00057842    0.00084520    0.00136287
     atom   25 type  1   force =    -0.00056907    0.00042424    0.00009685
     atom   26 type  1   force =     0.00021241   -0.00026087    0.00009649
     atom   27 type  1   force =    -0.00054584    0.00106777   -0.00024772
     atom   28 type  1   force =     0.00023564    0.00038270   -0.00024809
     atom   29 type  1   force =    -0.00054851    0.00166215   -0.00028223
     atom   30 type  1   force =     0.00023297    0.00097711   -0.00028259
     atom   31 type  1   force =    -0.00024863    0.00185005    0.00063887
     atom   32 type  1   force =     0.00053293    0.00116525    0.00063873
     atom   33 type  2   force =    -0.00186758   -0.00021277  -14.06527718
     atom   34 type  2   force =    -0.00193809   -0.00015082  -14.06527592
     atom   35 type  2   force =    -0.00149130   -0.00162273  -14.06389031
     atom   36 type  2   force =    -0.00156184   -0.00156086  -14.06388893
     atom   37 type  2   force =    -0.00149412   -0.00092374  -14.06389266
     atom   38 type  2   force =    -0.00156466   -0.00086189  -14.06389126
     atom   39 type  2   force =    -0.00145785   -0.00002992  -14.06421790
     atom   40 type  2   force =    -0.00152839    0.00003192  -14.06421654
     atom   41 type  2   force =    -0.00040916    0.00055324  -14.06553577
     atom   42 type  2   force =    -0.00047968    0.00061518  -14.06553447
     atom   43 type  2   force =    -0.00003297   -0.00085674  -14.06414916
     atom   44 type  2   force =    -0.00010351   -0.00079488  -14.06414775
     atom   45 type  2   force =    -0.00003580   -0.00015775  -14.06415153
     atom   46 type  2   force =    -0.00010634   -0.00009590  -14.06415010
     atom   47 type  2   force =     0.00000047    0.00073607  -14.06447676
     atom   48 type  2   force =    -0.00007007    0.00079791  -14.06447538
     atom   49 type  2   force =    -0.00003722    0.00076880  -14.06555960
     atom   50 type  2   force =    -0.00010775    0.00083074  -14.06555830
     atom   51 type  2   force =     0.00033897   -0.00064118  -14.06417299
     atom   52 type  2   force =     0.00026842   -0.00057932  -14.06417158
     atom   53 type  2   force =     0.00033615    0.00005780  -14.06417536
     atom   54 type  2   force =     0.00026560    0.00011965  -14.06417393
     atom   55 type  2   force =     0.00037241    0.00095163  -14.06450060
     atom   56 type  2   force =     0.00030187    0.00101347  -14.06449922
     atom   57 type  2   force =     0.00019713    0.00090122  -14.06629659
     atom   58 type  2   force =     0.00012660    0.00096314  -14.06629533
     atom   59 type  2   force =     0.00057335   -0.00050878  -14.06490998
     atom   60 type  2   force =     0.00050280   -0.00044694  -14.06490861
     atom   61 type  2   force =     0.00057052    0.00019021  -14.06491235
     atom   62 type  2   force =     0.00049997    0.00025203  -14.06491096
     atom   63 type  2   force =     0.00060676    0.00108399  -14.06523760
     atom   64 type  2   force =     0.00053620    0.00114581  -14.06523626
     atom   65 type  2   force =     0.00160416   -0.00333870   14.06442825
     atom   66 type  2   force =     0.00075982   -0.00259893   14.06442859
     atom   67 type  2   force =     0.00153825   -0.00092126   14.06490770
     atom   68 type  2   force =     0.00069400   -0.00018119   14.06490825
     atom   69 type  2   force =     0.00153896   -0.00005980   14.06494163
     atom   70 type  2   force =     0.00069471    0.00068031   14.06494218
     atom   71 type  2   force =     0.00153645    0.00050948   14.06586765
     atom   72 type  2   force =     0.00069222    0.00124967   14.06586812
     atom   73 type  2   force =     0.00046416   -0.00356204   14.06321945
     atom   74 type  2   force =    -0.00037992   -0.00282251   14.06321997
     atom   75 type  2   force =     0.00039830   -0.00114471   14.06369916
     atom   76 type  2   force =    -0.00044569   -0.00040488   14.06369990
     atom   77 type  2   force =     0.00039901   -0.00028324   14.06373310
     atom   78 type  2   force =    -0.00044498    0.00045662   14.06373383
     atom   79 type  2   force =     0.00039648    0.00028606   14.06465911
     atom   80 type  2   force =    -0.00044750    0.00102600   14.06465976
     atom   81 type  2   force =     0.00072542   -0.00341446   14.06321124
     atom   82 type  2   force =    -0.00011864   -0.00267492   14.06321175
     atom   83 type  2   force =     0.00065956   -0.00099714   14.06369097
     atom   84 type  2   force =    -0.00018442   -0.00025730   14.06369169
     atom   85 type  2   force =     0.00066027   -0.00013567   14.06372491
     atom   86 type  2   force =    -0.00018371    0.00060420   14.06372563
     atom   87 type  2   force =     0.00065773    0.00043363   14.06465092
     atom   88 type  2   force =    -0.00018623    0.00117358   14.06465157
     atom   89 type  2   force =     0.00108865   -0.00316286   14.06347127
     atom   90 type  2   force =     0.00024459   -0.00242332   14.06347177
     atom   91 type  2   force =     0.00102279   -0.00074555   14.06395100
     atom   92 type  2   force =     0.00017882   -0.00000571   14.06395171
     atom   93 type  2   force =     0.00102350    0.00011592   14.06398494
     atom   94 type  2   force =     0.00017953    0.00085579   14.06398565
     atom   95 type  2   force =     0.00102094    0.00068517   14.06491096
     atom   96 type  2   force =     0.00017699    0.00142513   14.06491159
     The local contribution  to forces
     atom    1 type  1   force =     0.00097053    0.00020382   -0.00047377
     atom    2 type  1   force =     0.00024255    0.00081664   -0.00053355
     atom    3 type  1   force =     0.00086690   -0.00045187   -0.00012519
     atom    4 type  1   force =     0.00013068    0.00014326   -0.00017393
     atom    5 type  1   force =     0.00093344   -0.00105495   -0.00007693
     atom    6 type  1   force =     0.00013736   -0.00035630   -0.00016470
     atom    7 type  1   force =     0.00071765   -0.00106656   -0.00095189
     atom    8 type  1   force =    -0.00006804   -0.00041948   -0.00101260
     atom    9 type  1   force =     0.00069754    0.00004235   -0.00079978
     atom   10 type  1   force =    -0.00006655    0.00067380   -0.00079602
     atom   11 type  1   force =     0.00073711   -0.00057514   -0.00041420
     atom   12 type  1   force =    -0.00001753    0.00002739   -0.00043876
     atom   13 type  1   force =     0.00073529   -0.00113131   -0.00036625
     atom   14 type  1   force =    -0.00000569   -0.00049347   -0.00043610
     atom   15 type  1   force =     0.00033531   -0.00136459   -0.00120239
     atom   16 type  1   force =    -0.00043436   -0.00068995   -0.00128095
     atom   17 type  1   force =     0.00046491    0.00003836   -0.00084798
     atom   18 type  1   force =    -0.00033535    0.00064574   -0.00079131
     atom   19 type  1   force =     0.00045454   -0.00071330   -0.00051242
     atom   20 type  1   force =    -0.00028783   -0.00007433   -0.00044245
     atom   21 type  1   force =     0.00041756   -0.00132918   -0.00042271
     atom   22 type  1   force =    -0.00029873   -0.00066206   -0.00041509
     atom   23 type  1   force =     0.00022343   -0.00156249   -0.00126728
     atom   24 type  1   force =    -0.00049103   -0.00089303   -0.00129265
     atom   25 type  1   force =     0.00055153   -0.00031277   -0.00014097
     atom   26 type  1   force =    -0.00012005    0.00032626   -0.00015090
     atom   27 type  1   force =     0.00052208   -0.00100430    0.00020821
     atom   28 type  1   force =    -0.00019447   -0.00032983    0.00021131
     atom   29 type  1   force =     0.00050708   -0.00172217    0.00027750
     atom   30 type  1   force =    -0.00020210   -0.00101959    0.00027229
     atom   31 type  1   force =     0.00017499   -0.00172430   -0.00059672
     atom   32 type  1   force =    -0.00050158   -0.00105259   -0.00064691
     atom   33 type  2   force =     0.00188025    0.00036597   13.82461791
     atom   34 type  2   force =     0.00197393    0.00030742   13.82451985
     atom   35 type  2   force =     0.00146595    0.00150973   13.82320784
     atom   36 type  2   force =     0.00149836    0.00149884   13.82319442
[...]
     atom   16 type  1   force =     0.00001425   -0.00000396    0.00000373
     atom   17 type  1   force =     0.00001668   -0.00000137    0.00000380
     atom   18 type  1   force =     0.00001271   -0.00000227   -0.00000703
     atom   19 type  1   force =     0.00001191   -0.00000004    0.00000583
     atom   20 type  1   force =     0.00000805    0.00000117   -0.00000521
     atom   21 type  1   force =    -0.00000003    0.00000970   -0.00000085
     atom   22 type  1   force =    -0.00000709    0.00000612    0.00000168
     atom   23 type  1   force =     0.00000369    0.00000508   -0.00000470
     atom   24 type  1   force =    -0.00000369    0.00000392   -0.00000078
     atom   25 type  1   force =    -0.00000637   -0.00000155    0.00000236
     atom   26 type  1   force =    -0.00001178    0.00000021    0.00000231
     atom   27 type  1   force =     0.00000562   -0.00000989    0.00000428
     atom   28 type  1   force =     0.00000151   -0.00000718   -0.00000159
     atom   29 type  1   force =     0.00000065   -0.00000354    0.00000080
     atom   30 type  1   force =    -0.00000129   -0.00000635    0.00000365
     atom   31 type  1   force =    -0.00001096    0.00000180   -0.00000615
     atom   32 type  1   force =    -0.00001639   -0.00000017    0.00000496
     atom   33 type  2   force =    -0.00001039   -0.00000288    0.00002212
     atom   34 type  2   force =    -0.00000955   -0.00000173    0.00001217
     atom   35 type  2   force =    -0.00001588    0.00000191    0.00002427
     atom   36 type  2   force =    -0.00000814   -0.00000070    0.00001314
     atom   37 type  2   force =    -0.00000502   -0.00000763    0.00002678
     atom   38 type  2   force =     0.00000300   -0.00000170    0.00000894
     atom   39 type  2   force =     0.00000052   -0.00000999    0.00002679
     atom   40 type  2   force =     0.00000332   -0.00000077    0.00000992
     atom   41 type  2   force =     0.00001452   -0.00000074    0.00002751
     atom   42 type  2   force =     0.00000444   -0.00000903    0.00000709
     atom   43 type  2   force =     0.00000348    0.00000578    0.00002829
     atom   44 type  2   force =    -0.00000897   -0.00000123    0.00000964
     atom   45 type  2   force =    -0.00000317    0.00000713    0.00003256
     atom   46 type  2   force =    -0.00000958    0.00000642    0.00000220
     atom   47 type  2   force =     0.00000817    0.00000120    0.00003441
     atom   48 type  2   force =     0.00000323   -0.00000063    0.00000137
     atom   49 type  2   force =     0.00001158    0.00000329    0.00002292
     atom   50 type  2   force =     0.00000876   -0.00000649    0.00001033
     atom   51 type  2   force =     0.00001625    0.00000089    0.00001968
     atom   52 type  2   force =     0.00000806   -0.00000490    0.00001732
     atom   53 type  2   force =     0.00000547    0.00000602    0.00002539
     atom   54 type  2   force =    -0.00000376    0.00000927    0.00001249
     atom   55 type  2   force =     0.00000007    0.00000834    0.00002932
     atom   56 type  2   force =    -0.00000353    0.00000929    0.00000781
     atom   57 type  2   force =    -0.00001518    0.00000241    0.00001973
     atom   58 type  2   force =    -0.00000393    0.00000062    0.00001490
     atom   59 type  2   force =    -0.00000376   -0.00000327    0.00001655
     atom   60 type  2   force =     0.00000807   -0.00000432    0.00001935
     atom   61 type  2   force =     0.00000226   -0.00001017    0.00001753
     atom   62 type  2   force =     0.00000809    0.00000199    0.00001782
     atom   63 type  2   force =    -0.00000958   -0.00000330    0.00002067
     atom   64 type  2   force =    -0.00000479    0.00000912    0.00001393
     atom   65 type  2   force =    -0.00001864    0.00000054   -0.00003088
     atom   66 type  2   force =    -0.00001170    0.00000136   -0.00000351
     atom   67 type  2   force =    -0.00001137   -0.00000772   -0.00002621
     atom   68 type  2   force =     0.00000081    0.00000075   -0.00001107
     atom   69 type  2   force =    -0.00000319   -0.00001188   -0.00002517
     atom   70 type  2   force =     0.00000852   -0.00000273   -0.00001045
     atom   71 type  2   force =    -0.00000890   -0.00000526   -0.00003102
     atom   72 type  2   force =    -0.00000259   -0.00000254   -0.00000268
     atom   73 type  2   force =    -0.00000205   -0.00000090   -0.00003219
     atom   74 type  2   force =    -0.00000129   -0.00000261   -0.00000508
     atom   75 type  2   force =    -0.00001129    0.00000056   -0.00002795
     atom   76 type  2   force =    -0.00001068    0.00000680   -0.00000713
     atom   77 type  2   force =    -0.00000356   -0.00000366   -0.00002831
     atom   78 type  2   force =     0.00000176    0.00000236   -0.00000846
     atom   79 type  2   force =     0.00000384   -0.00000488   -0.00002982
     atom   80 type  2   force =     0.00000980   -0.00000824   -0.00000547
     atom   81 type  2   force =     0.00001725    0.00000385   -0.00001925
     atom   82 type  2   force =     0.00000978   -0.00000978   -0.00001373
     atom   83 type  2   force =     0.00001193    0.00000267   -0.00001995
     atom   84 type  2   force =    -0.00000084    0.00000235   -0.00001796
     atom   85 type  2   force =     0.00000340    0.00000882   -0.00002148
     atom   86 type  2   force =    -0.00000967    0.00001002   -0.00001410
     atom   87 type  2   force =     0.00001029    0.00000817   -0.00002360
     atom   88 type  2   force =     0.00000246   -0.00000282   -0.00001098
     atom   89 type  2   force =     0.00000291    0.00000433   -0.00002042
     atom   90 type  2   force =     0.00000255   -0.00000452   -0.00001472
     atom   91 type  2   force =     0.00001150   -0.00000432   -0.00001593
     atom   92 type  2   force =     0.00001059   -0.00000268   -0.00002174
     atom   93 type  2   force =     0.00000497   -0.00000017   -0.00002023
     atom   94 type  2   force =    -0.00000068    0.00000473   -0.00001709
     atom   95 type  2   force =    -0.00000386    0.00000742   -0.00002479
     atom   96 type  2   force =    -0.00000891    0.00000388   -0.00001007

     Total force =     0.000132     Total SCF correction =     0.000190
     SCF correction compared to forces is large: reduce conv_thr to get better values


     Computing stress (Cartesian axis) and pressure



     -----------------------------------------------
     Non-local corr. energy    =      46.02377573 Ry
     -----------------------------------------------

          total   stress  (Ry/bohr**3)                   (kbar)     P=        1.61
   0.00001027  -0.00000000   0.00000000            1.51       -0.00        0.00
  -0.00000000   0.00001027  -0.00000001           -0.00        1.51       -0.00
   0.00000000  -0.00000001   0.00001224            0.00       -0.00        1.80

     kinetic stress (kbar)  14996.53      0.00      0.00
                                0.00  14996.53     -0.00
                                0.00     -0.00  15007.83

     local   stress (kbar)  -7545.63      0.06     -0.05
                                0.06  -7545.50      0.06
                               -0.05      0.06   1594.39

     nonloc. stress (kbar)  -1072.68     -0.00      0.00
                               -0.00  -1072.68     -0.00
                                0.00     -0.00  -1078.67

     hartree stress (kbar)  12056.23     -0.02      0.02
                               -0.02  12056.18     -0.02
                                0.02     -0.02   7938.08

     exc-cor stress (kbar)   6948.90     -0.00      0.00
                               -0.00   6948.90     -0.00
                                0.00     -0.00   6947.79

     corecor stress (kbar) -11313.98      0.00     -0.00
                                0.00 -11313.98      0.00
                               -0.00      0.00 -11313.98

     ewald   stress (kbar) -14151.17     -0.04      0.03
                               -0.04 -14151.26     -0.04
                                0.03     -0.04 -19178.30

     hubbard stress (kbar)      0.00      0.00      0.00
                                0.00      0.00      0.00
                                0.00      0.00      0.00

     DFT-D   stress (kbar)      0.00      0.00      0.00
                                0.00      0.00      0.00
                                0.00      0.00      0.00

     XDM     stress (kbar)      0.00      0.00      0.00
                                0.00      0.00      0.00
                                0.00      0.00      0.00

     dft-nl  stress (kbar)     83.31      0.00     -0.00
                                0.00     83.31      0.00
                               -0.00      0.00     84.67

     TS-vdW  stress (kbar)      0.00      0.00      0.00
                                0.00      0.00      0.00
                                0.00      0.00      0.00

     MDB     stress (kbar)      0.00      0.00      0.00
                                0.00      0.00      0.00
                                0.00      0.00      0.00

     3D-RISM stress (kbar)      0.00      0.00      0.00
                                0.00      0.00      0.00
                                0.00      0.00      0.00

     Energy error            =      4.7E-06 Ry
     Gradient error          =      2.1E-05 Ry/Bohr

     bfgs converged in   8 scf cycles and   7 bfgs steps
     (criteria: energy <  1.0E-04 Ry, force <  1.0E-03 Ry/Bohr)

     End of BFGS Geometry Optimization

     Final energy             =  -64756.2523446639 Ry

     File ./PbI2.bfgs deleted, as requested
Begin final coordinates

ATOMIC_POSITIONS (angstrom)
Pb            2.3554541906        4.0791701637       14.7541848659
Pb            2.3553633744        4.0792528646        7.3771123863
Pb            0.0001237144        8.1587280769       14.7540208570
Pb            0.0000994041        8.1588249781        7.3769934925
Pb           -2.3551986982       12.2382346572       14.7539824683
Pb           -2.3552531028       12.2382645904        7.3769288133
Pb           -4.7106295279       16.3176873229       14.7540042366
Pb           -4.7106487387       16.3176674956        7.3769899391
Pb            7.0660899751        4.0791407231       14.7542859047
Pb            7.0661606833        4.0792325130        7.3771961295
Pb            4.7107078722        8.1586771274       14.7541555325
Pb            4.7106426206        8.1587578809        7.3770574842
Pb            2.3553612922       12.2381794208       14.7540951360
Pb            2.3552908961       12.2382248006        7.3770059776
Pb            0.0001272076       16.3176945111       14.7541485193
Pb            0.0001535910       16.3177828766        7.3770509056
Pb           11.7768287068        4.0790674634       14.7543179463
Pb           11.7766985382        4.0790853288        7.3772324266
Pb            9.4214065361        8.1586760483       14.7542186204
Pb            9.4213423888        8.1587256693        7.3770766633
Pb            7.0661247448       12.2382063462       14.7541417939
Pb            7.0660575111       12.2382281220        7.3770649348
Pb            4.7107271333       16.3178043393       14.7541909151
Pb            4.7105834647       16.3178423029        7.3770817886
Pb           16.4873018735        4.0790907838       14.7542870937
Pb           16.4872584291        4.0791451122        7.3772132838
Pb           14.1320624055        8.1586243821       14.7541704171
Pb           14.1319960698        8.1587127219        7.3770589996
Pb           11.7766809678       12.2382701887       14.7541337630
Pb           11.7766367711       12.2382524330        7.3769961374
Pb            9.4214282645       16.3176473792       14.7541657595
Pb            9.4213191395       16.3176983915        7.3770512075
I             2.3553373310        1.3594625087        5.4924969002
I             2.3553039588        1.3594287291       12.8696509235
I             0.0000904774        5.4391693896        5.4926251449
I             0.0000877903        5.4390459336       12.8697267768
I            -2.3551393539        9.5186576928        5.4925402694
I            -2.3552177382        9.5185700698       12.8695259984
I            -4.7107010687       13.5981488731        5.4924136937
I            -4.7107268695       13.5981452861       12.8694770331
I             7.0660989042        1.3595324124        5.4925487706
I             7.0661131090        1.3595363519       12.8695922506
I             4.7107245594        5.4391570864        5.4926472635
I             4.7107512498        5.4391402417       12.8696713045
I             2.3553375644        9.5185796057        5.4925041637
I             2.3553828097        9.5185168787       12.8695101271
I             0.0000503701       13.5981288216        5.4924492751
I             0.0000761611       13.5981147683       12.8694371333
I            11.7767392804        1.3596656612        5.4926574507
I            11.7766740412        1.3596150056       12.8695937783
I             9.4214107745        5.4390460917        5.4927320593
I             9.4214290722        5.4390163889       12.8697786457
I             7.0659771270        9.5185871130        5.4926542948
I             7.0660533476        9.5185099271       12.8696117491
I             4.7106856636       13.5981205093        5.4925560625
I             4.7107327164       13.5981302859       12.8696010077
I            16.4872163336        1.3595684976        5.4927431381
I            16.4873315941        1.3595555238       12.8696784806
I            14.1318851108        5.4388899606        5.4929039755
I            14.1319905264        5.4389411902       12.8697420483
I            11.7766006921        9.5186484199        5.4927335514
I            11.7766578072        9.5186052299       12.8696376038
I             9.4214519566       13.5981279995        5.4925649660
I             9.4214835677       13.5981392979       12.8695581807
I             0.0000991711        2.7193234303        1.8843137904
I             0.0000172772        2.7193388149        9.2614976431
I            -2.3551619345        6.7989494178        1.8843569381
I            -2.3552488174        6.7989742935        9.2615026376
I            -4.7105756087       10.8786270482        1.8843328242
I            -4.7106019938       10.8785822174        9.2614504057
I            -7.0659275230       14.9579533220        1.8843081345
I            -7.0659380887       14.9578349665        9.2614117403
I             4.7106692629        2.7193361164        1.8843872986
I             4.7107389728        2.7193977477        9.2614702850
I             2.3553731022        6.7990321091        1.8843528856
I             2.3553654926        6.7991007547        9.2614636039
I             0.0000776966       10.8784409990        1.8843403521
I             0.0000659120       10.8784703009        9.2613676213
I            -2.3553558483       14.9579453157        1.8842530550
I            -2.3552683329       14.9579064280        9.2612837082
I             9.4214665469        2.7193320989        1.8844317858
I             9.4215262770        2.7193344318        9.2615892143
I             7.0659524422        6.7989342799        1.8844013497
I             7.0659919997        6.7990038968        9.2615141589
I             4.7105896508       10.8783612751        1.8843378059
I             4.7106304804       10.8783988292        9.2613999382
I             2.3553187362       14.9580178021        1.8843457595
I             2.3553146023       14.9580702400        9.2613980981
I            14.1319323547        2.7193178296        1.8845143193
I            14.1318413126        2.7193634206        9.2615649987
I            11.7766197914        6.7988653090        1.8844079857
I            11.7766845925        6.7988764998        9.2615129492
I             9.4213660672       10.8785532388        1.8843796074
I             9.4213542700       10.8784761159        9.2615183602
I             7.0661443050       14.9579935094        1.8843518070
I             7.0660698180       14.9580143826        9.2614358939
End final coordinates



     Writing all to output data dir ./PbI2.save/
 
     init_run     :     13.99s CPU     14.57s WALL (       1 calls)
     electrons    :  12851.67s CPU  13064.86s WALL (       8 calls)
     update_pot   :     12.37s CPU     12.60s WALL (       7 calls)
     forces       :     61.66s CPU     63.98s WALL (       8 calls)
     stress       :    886.18s CPU    897.21s WALL (       8 calls)

     Called by init_run:
     wfcinit      :      9.56s CPU      9.82s WALL (       1 calls)
     wfcinit:atom :      0.03s CPU      0.06s WALL (       1 calls)
     wfcinit:wfcr :      9.45s CPU      9.62s WALL (       1 calls)
     potinit      :      1.53s CPU      1.64s WALL (       1 calls)
     hinit0       :      0.46s CPU      0.48s WALL (       1 calls)

     Called by electrons:
     c_bands      :  12491.28s CPU  12682.65s WALL (      75 calls)
     sum_band     :    248.78s CPU    260.25s WALL (      75 calls)
     v_of_rho     :     59.46s CPU     60.68s WALL (      75 calls)
     v_h          :      0.66s CPU      0.67s WALL (      75 calls)
     v_xc         :     70.42s CPU     71.90s WALL (      91 calls)
     newd         :     22.55s CPU     30.43s WALL (      75 calls)
     PAW_pot      :     22.75s CPU     23.08s WALL (      82 calls)
     mix_rho      :      1.82s CPU      1.97s WALL (      75 calls)
     vdW_kernel   :      0.25s CPU      0.26s WALL (       1 calls)

     Called by c_bands:
     init_us_2    :     10.74s CPU     11.01s WALL (     158 calls)
     init_us_2:cp :     10.73s CPU     11.01s WALL (     158 calls)
     cegterg      :  12473.20s CPU  12662.17s WALL (      75 calls)

     Called by sum_band:
     sum_band:wei :      0.02s CPU      0.02s WALL (      75 calls)
     sum_band:loo :    220.39s CPU    222.21s WALL (      75 calls)
     sum_band:buf :      0.00s CPU      0.00s WALL (      75 calls)
     sum_band:ini :      5.14s CPU      5.26s WALL (      75 calls)
     sum_band:cal :     99.03s CPU     99.77s WALL (      82 calls)
     sum_band:bec :      1.51s CPU      1.54s WALL (      82 calls)
     addusdens    :     24.49s CPU     33.91s WALL (      75 calls)
     addusd:skk   :      2.47s CPU      2.56s WALL (     150 calls)
     addusd:dgemm :     12.95s CPU     22.01s WALL (     150 calls)
     addusd:qvan2 :      8.53s CPU      8.64s WALL (     150 calls)

     Called by *egterg:
     cdiaghg      :   9663.02s CPU   9734.87s WALL (     869 calls)
     cegterg:over :    580.17s CPU    594.56s WALL (     809 calls)
     cegterg:upda :    342.15s CPU    348.39s WALL (     809 calls)
     cegterg:last :    142.80s CPU    143.88s WALL (      77 calls)
     h_psi        :   1323.55s CPU   1341.10s WALL (     885 calls)
     s_psi        :    265.60s CPU    267.63s WALL (     885 calls)
     g_psi        :      1.00s CPU      1.02s WALL (     809 calls)

     Called by h_psi:
     h_psi:calbec :    294.33s CPU    296.66s WALL (     885 calls)
     vloc_psi     :    757.54s CPU    764.87s WALL (     885 calls)
     add_vuspsi   :    264.57s CPU    267.03s WALL (     885 calls)

     General routines
     calbec       :    441.46s CPU    444.90s WALL (    1007 calls)
     fft          :     49.13s CPU     49.75s WALL (    6076 calls)
     ffts         :      1.26s CPU      1.31s WALL (     150 calls)
     fftw         :    834.31s CPU    841.99s WALL (  491814 calls)
     interpolate  :      1.37s CPU      1.40s WALL (      75 calls)
 
     Parallel routines

     PAW routines
     PAW_pot      :     22.75s CPU     23.08s WALL (      82 calls)
 
     PWSCF        :      3h50m CPU      3h54m WALL

 
   This run was terminated on:  12:12:22  12Feb2024            

=------------------------------------------------------------------------------=
   JOB DONE.
=------------------------------------------------------------------------------=
