
     Program PWSCF v.7.1 starts on  3Mar2024 at  8: 6:20 

     This program is part of the open-source Quantum ESPRESSO suite
     for quantum simulation of materials; please cite
         "P. Giannozzi et al., J. Phys.:Condens. Matter 21 395502 (2009);
         "P. Giannozzi et al., J. Phys.:Condens. Matter 29 465901 (2017);
         "P. Giannozzi et al., J. Chem. Phys. 152 154105 (2020);
          URL http://www.quantum-espresso.org", 
     in publications or presentations arising from this work. More details at
     http://www.quantum-espresso.org/quote

     Parallel version (MPI & OpenMP), running on     128 processor cores
     Number of MPI processes:               128
     Threads/MPI process:                     1

     MPI processes distributed on     1 nodes
     1557891 MiB available memory on the printing compute node when the environment starts
 
     Reading input from espresso.pwi
Warning: card &CELL ignored
Warning: card    CELL_DYNAMICS    = 'BFGS' ignored
Warning: card / ignored

     Current dimensions of program PWSCF are:
     Max number of different atomic species (ntypx) = 10
     Max number of k-points (npk) =  40000
     Max angular momentum in pseudopotentials (lmaxx) =  4
     file Pb.pbe-dn-kjpaw_psl.1.0.0.UPF: wavefunction(s)  6S 6P 5D renormalized
     file I.pbe-dn-kjpaw_psl.1.0.0.UPF: wavefunction(s)  5S 5P renormalized

     **************************************************************************
     Initializing libbeef V0.1.2 with the BEEF-vdW functional.
     Citation: Wellendorff et al., PRB 85, 235149 (2012).
     **************************************************************************


     IMPORTANT: XC functional enforced from input :
     Exchange-correlation= BEEF-VDW
                           (   1   4  43  14   2   0   0)
     Any further DFT definition will be discarded
     Please, verify this is what you really want

 
     R & G space division:  proc/nbgrp/npool/nimage =     128
     Subspace diagonalization in iterative solution of the eigenvalue problem:
     a serial algorithm will be used

 
     Parallelization info
     --------------------
     sticks:   dense  smooth     PW     G-vecs:    dense   smooth      PW
     Min         238     190     47                26444    18918    2361
     Max         239     191     48                26451    18927    2368
     Sum       30577   24439   6121              3385235  2422379  302703
 
     Using Slab Decomposition
 


     bravais-lattice index     =            4
     lattice parameter (alat)  =      35.6073  a.u.
     unit-cell volume          =   30614.2220 (a.u.)^3
     number of atoms/cell      =           96
     number of atomic types    =            2
     number of electrons       =      1533.00
     number of Kohn-Sham states=          920
     kinetic-energy cutoff     =      70.0000  Ry
     charge density cutoff     =     350.0000  Ry
     scf convergence threshold =      1.0E-07
     mixing beta               =       0.7000
     number of iterations used =            8  plain     mixing
     Exchange-correlation= BEEF-VDW
                           (   1   4  43  14   2   0   0)

     celldm(1)=  35.607290  celldm(2)=   0.000000  celldm(3)=   0.783025
     celldm(4)=   0.000000  celldm(5)=   0.000000  celldm(6)=   0.000000

     crystal axes: (cart. coord. in units of alat)
               a(1) = (   1.000000   0.000000   0.000000 )  
               a(2) = (  -0.500000   0.866025   0.000000 )  
               a(3) = (   0.000000   0.000000   0.783025 )  

     reciprocal axes: (cart. coord. in units 2 pi/alat)
               b(1) = (  1.000000  0.577350 -0.000000 )  
               b(2) = (  0.000000  1.154701  0.000000 )  
               b(3) = (  0.000000 -0.000000  1.277098 )  


     PseudoPot. # 1 for Pb read from file:
     /trace/group/acmegroup/atimmins/packages/espresso/pseudo/psl_1.0.0/pslibrary.1.0.0/pbe/PSEUDOPOTENTIALS/Pb.pbe-dn-kjpaw_psl.1.0.0.UPF
     MD5 check sum: 39ab5b8a6bbd56b7735ad9f188aac93a
     Pseudo is Projector augmented-wave + core cor, Zval = 14.0
     Generated using 'atomic' code by A. Dal Corso  v.7.1
     Shape of augmentation charge: PSQ
     Using radial grid of 1281 points,  6 beta functions with: 
                l(1) =   0
                l(2) =   0
                l(3) =   1
                l(4) =   1
                l(5) =   2
                l(6) =   2
     Q(r) pseudized with 0 coefficients 


     PseudoPot. # 2 for I  read from file:
     /trace/group/acmegroup/atimmins/packages/espresso/pseudo/psl_1.0.0/pslibrary.1.0.0/pbe/PSEUDOPOTENTIALS/I.pbe-dn-kjpaw_psl.1.0.0.UPF
     MD5 check sum: bfa8781bc1224d19af3f3980e3fab11e
     Pseudo is Projector augmented-wave + core cor, Zval = 17.0
     Generated using 'atomic' code by A. Dal Corso  v.7.1
     Shape of augmentation charge: PSQ
     Using radial grid of 1247 points,  6 beta functions with: 
                l(1) =   0
                l(2) =   0
                l(3) =   1
                l(4) =   1
                l(5) =   2
                l(6) =   2
     Q(r) pseudized with 0 coefficients 


     atomic species   valence    mass     pseudopotential
        Pb            14.00   207.20000     Pb( 1.00)
        I             17.00   126.90447     I ( 1.00)

     No symmetry found


                                    s                        frac. trans.

      isym =  1     identity                                     

 cryst.   s( 1) = (     1          0          0      )
                  (     0          1          0      )
                  (     0          0          1      )

 cart.    s( 1) = (  1.0000000  0.0000000  0.0000000 )
                  (  0.0000000  1.0000000  0.0000000 )
                  (  0.0000000  0.0000000  1.0000000 )


     point group C_1 (1)    
     there are  1 classes
     the character table:

       E    
A      1.00

     the symmetry operations in each class and the name of the first element:

     E        1
          identity                                               

   Cartesian axes

     site n.     atom                  positions (alat units)
         1           Pb  tau(   1) = (   0.1250086   0.2164870   0.7830203  )
         2           Pb  tau(   2) = (   0.1250034   0.2164916   0.3915076  )
         3           Pb  tau(   3) = (   0.0000077   0.4329922   0.7830161  )
         4           Pb  tau(   4) = (   0.0000025   0.4329968   0.3915034  )
         5           Pb  tau(   5) = (  -0.1249932   0.6494975   0.7830119  )
         6           Pb  tau(   6) = (  -0.1249984   0.6495021   0.3914992  )
         7           Pb  tau(   7) = (  -0.2499941   0.8660028   0.7830077  )
         8           Pb  tau(   8) = (  -0.2499993   0.8660074   0.3914950  )
         9           Pb  tau(   9) = (   0.3750086   0.2164859   0.7830237  )
        10           Pb  tau(  10) = (   0.3750034   0.2164905   0.3915110  )
        11           Pb  tau(  11) = (   0.2500077   0.4329912   0.7830194  )
        12           Pb  tau(  12) = (   0.2500025   0.4329958   0.3915068  )
        13           Pb  tau(  13) = (   0.1250068   0.6494965   0.7830152  )
        14           Pb  tau(  14) = (   0.1250016   0.6495011   0.3915026  )
        15           Pb  tau(  15) = (   0.0000059   0.8660017   0.7830110  )
        16           Pb  tau(  16) = (   0.0000007   0.8660063   0.3914983  )
        17           Pb  tau(  17) = (   0.6250086   0.2164849   0.7830270  )
        18           Pb  tau(  18) = (   0.6250034   0.2164895   0.3915143  )
        19           Pb  tau(  19) = (   0.5000077   0.4329901   0.7830228  )
        20           Pb  tau(  20) = (   0.5000025   0.4329947   0.3915101  )
        21           Pb  tau(  21) = (   0.3750068   0.6494954   0.7830186  )
        22           Pb  tau(  22) = (   0.3750016   0.6495000   0.3915059  )
        23           Pb  tau(  23) = (   0.2500059   0.8660007   0.7830144  )
        24           Pb  tau(  24) = (   0.2500007   0.8660053   0.3915017  )
        25           Pb  tau(  25) = (   0.8750086   0.2164838   0.7830303  )
        26           Pb  tau(  26) = (   0.8750034   0.2164884   0.3915177  )
        27           Pb  tau(  27) = (   0.7500077   0.4329891   0.7830261  )
        28           Pb  tau(  28) = (   0.7500025   0.4329937   0.3915135  )
        29           Pb  tau(  29) = (   0.6250068   0.6494944   0.7830219  )
        30           Pb  tau(  30) = (   0.6250016   0.6494990   0.3915092  )
        31           Pb  tau(  31) = (   0.5000059   0.8659996   0.7830177  )
        32           Pb  tau(  32) = (   0.5000007   0.8660042   0.3915050  )
        33           I   tau(  33) = (   0.1250108   0.0721500   0.6824290  )
        34           I   tau(  34) = (   0.0000047   0.2886599   0.2909121  )
        35           I   tau(  35) = (   0.0000099   0.2886553   0.6824248  )
        36           I   tau(  36) = (  -0.1249962   0.5051652   0.2909079  )
        37           I   tau(  37) = (  -0.1249910   0.5051606   0.6824206  )
        38           I   tau(  38) = (  -0.2499972   0.7216704   0.2909037  )
        39           I   tau(  39) = (  -0.2499919   0.7216658   0.6824164  )
        40           I   tau(  40) = (   0.3750056   0.0721536   0.2909197  )
        41           I   tau(  41) = (   0.3750108   0.0721490   0.6824324  )
        42           I   tau(  42) = (   0.2500047   0.2886589   0.2909155  )
        43           I   tau(  43) = (   0.2500099   0.2886543   0.6824282  )
        44           I   tau(  44) = (   0.1250038   0.5051641   0.2909113  )
        45           I   tau(  45) = (   0.1250090   0.5051595   0.6824240  )
        46           I   tau(  46) = (   0.0000028   0.7216694   0.2909071  )
        47           I   tau(  47) = (   0.0000081   0.7216648   0.6824197  )
        48           I   tau(  48) = (   0.6250056   0.0721525   0.2909230  )
        49           I   tau(  49) = (   0.6250108   0.0721479   0.6824357  )
        50           I   tau(  50) = (   0.5000047   0.2886578   0.2909188  )
        51           I   tau(  51) = (   0.5000099   0.2886532   0.6824315  )
        52           I   tau(  52) = (   0.3750038   0.5051631   0.2909146  )
        53           I   tau(  53) = (   0.3750090   0.5051585   0.6824273  )
        54           I   tau(  54) = (   0.2500028   0.7216683   0.2909104  )
        55           I   tau(  55) = (   0.2500081   0.7216637   0.6824231  )
        56           I   tau(  56) = (   0.8750056   0.0721515   0.2909264  )
        57           I   tau(  57) = (   0.8750108   0.0721469   0.6824391  )
        58           I   tau(  58) = (   0.7500047   0.2886567   0.2909222  )
        59           I   tau(  59) = (   0.7500099   0.2886521   0.6824348  )
        60           I   tau(  60) = (   0.6250038   0.5051620   0.2909180  )
        61           I   tau(  61) = (   0.6250090   0.5051574   0.6824306  )
        62           I   tau(  62) = (   0.5000028   0.7216673   0.2909137  )
        63           I   tau(  63) = (   0.5000081   0.7216627   0.6824264  )
        64           I   tau(  64) = (  -0.0000018   0.1443297   0.1005933  )
        65           I   tau(  65) = (   0.0000034   0.1443251   0.4921060  )
        66           I   tau(  66) = (  -0.1250027   0.3608350   0.1005891  )
        67           I   tau(  67) = (  -0.1249975   0.3608304   0.4921018  )
        68           I   tau(  68) = (  -0.2500036   0.5773403   0.1005849  )
        69           I   tau(  69) = (  -0.2499984   0.5773357   0.4920975  )
        70           I   tau(  70) = (  -0.3750045   0.7938455   0.1005807  )
        71           I   tau(  71) = (  -0.3749993   0.7938409   0.4920933  )
        72           I   tau(  72) = (   0.2499982   0.1443287   0.1005966  )
        73           I   tau(  73) = (   0.2500034   0.1443241   0.4921093  )
        74           I   tau(  74) = (   0.1249973   0.3608340   0.1005924  )
        75           I   tau(  75) = (   0.1250025   0.3608294   0.4921051  )
        76           I   tau(  76) = (  -0.0000036   0.5773392   0.1005882  )
        77           I   tau(  77) = (   0.0000016   0.5773346   0.4921009  )
        78           I   tau(  78) = (  -0.1250045   0.7938445   0.1005840  )
        79           I   tau(  79) = (  -0.1249993   0.7938399   0.4920967  )
        80           I   tau(  80) = (   0.4999982   0.1443276   0.1006000  )
        81           I   tau(  81) = (   0.5000034   0.1443230   0.4921126  )
        82           I   tau(  82) = (   0.3749973   0.3608329   0.1005958  )
        83           I   tau(  83) = (   0.3750025   0.3608283   0.4921084  )
        84           I   tau(  84) = (   0.2499964   0.5773382   0.1005915  )
        85           I   tau(  85) = (   0.2500016   0.5773336   0.4921042  )
        86           I   tau(  86) = (   0.1249955   0.7938434   0.1005873  )
        87           I   tau(  87) = (   0.1250007   0.7938388   0.4921000  )
        88           I   tau(  88) = (   0.7499982   0.1443266   0.1006033  )
        89           I   tau(  89) = (   0.7500034   0.1443220   0.4921160  )
        90           I   tau(  90) = (   0.6249973   0.3608319   0.1005991  )
        91           I   tau(  91) = (   0.6250025   0.3608273   0.4921118  )
        92           I   tau(  92) = (   0.4999964   0.5773371   0.1005949  )
        93           I   tau(  93) = (   0.5000016   0.5773325   0.4921076  )
        94           I   tau(  94) = (   0.3749955   0.7938424   0.1005907  )
        95           I   tau(  95) = (   0.3750007   0.7938378   0.4921034  )
        96           Pb  tau(  96) = (   0.1250056   0.0721546   0.2909163  )

   Crystallographic axes

     site n.     atom                  positions (cryst. coord.)
         1           Pb  tau(   1) = (  0.2499975  0.2499776  0.9999935  )
         2           Pb  tau(   2) = (  0.2499949  0.2499829  0.4999935  )
         3           Pb  tau(   3) = (  0.2499959  0.4999764  0.9999882  )
         4           Pb  tau(   4) = (  0.2499933  0.4999817  0.4999882  )
         5           Pb  tau(   5) = (  0.2499944  0.7499751  0.9999828  )
         6           Pb  tau(   6) = (  0.2499918  0.7499804  0.4999828  )
         7           Pb  tau(   7) = (  0.2499928  0.9999739  0.9999774  )
         8           Pb  tau(   8) = (  0.2499903  0.9999792  0.4999774  )
         9           Pb  tau(   9) = (  0.4999968  0.2499764  0.9999978  )
        10           Pb  tau(  10) = (  0.4999943  0.2499817  0.4999978  )
        11           Pb  tau(  11) = (  0.4999953  0.4999752  0.9999924  )
        12           Pb  tau(  12) = (  0.4999927  0.4999805  0.4999924  )
        13           Pb  tau(  13) = (  0.4999938  0.7499739  0.9999871  )
        14           Pb  tau(  14) = (  0.4999912  0.7499792  0.4999871  )
        15           Pb  tau(  15) = (  0.4999922  0.9999727  0.9999817  )
        16           Pb  tau(  16) = (  0.4999896  0.9999780  0.4999817  )
        17           Pb  tau(  17) = (  0.7499962  0.2499752  1.0000021  )
        18           Pb  tau(  18) = (  0.7499936  0.2499805  0.5000021  )
        19           Pb  tau(  19) = (  0.7499947  0.4999739  0.9999967  )
        20           Pb  tau(  20) = (  0.7499921  0.4999793  0.4999967  )
        21           Pb  tau(  21) = (  0.7499932  0.7499727  0.9999913  )
        22           Pb  tau(  22) = (  0.7499906  0.7499780  0.4999913  )
        23           Pb  tau(  23) = (  0.7499916  0.9999714  0.9999860  )
        24           Pb  tau(  24) = (  0.7499890  0.9999767  0.4999860  )
        25           Pb  tau(  25) = (  0.9999956  0.2499740  1.0000064  )
        26           Pb  tau(  26) = (  0.9999930  0.2499793  0.5000064  )
        27           Pb  tau(  27) = (  0.9999941  0.4999727  1.0000010  )
        28           Pb  tau(  28) = (  0.9999915  0.4999780  0.5000010  )
        29           Pb  tau(  29) = (  0.9999926  0.7499715  0.9999956  )
        30           Pb  tau(  30) = (  0.9999900  0.7499768  0.4999956  )
        31           Pb  tau(  31) = (  0.9999910  0.9999702  0.9999902  )
        32           Pb  tau(  32) = (  0.9999884  0.9999755  0.4999902  )
        33           I   tau(  33) = (  0.1666667  0.0833117  0.8715286  )
        34           I   tau(  34) = (  0.1666625  0.3333157  0.3715233  )
        35           I   tau(  35) = (  0.1666651  0.3333104  0.8715233  )
        36           I   tau(  36) = (  0.1666610  0.5833145  0.3715179  )
        37           I   tau(  37) = (  0.1666636  0.5833092  0.8715179  )
        38           I   tau(  38) = (  0.1666595  0.8333132  0.3715125  )
        39           I   tau(  39) = (  0.1666621  0.8333079  0.8715125  )
        40           I   tau(  40) = (  0.4166635  0.0833158  0.3715329  )
        41           I   tau(  41) = (  0.4166661  0.0833105  0.8715329  )
        42           I   tau(  42) = (  0.4166619  0.3333145  0.3715275  )
        43           I   tau(  43) = (  0.4166645  0.3333092  0.8715275  )
        44           I   tau(  44) = (  0.4166604  0.5833133  0.3715222  )
        45           I   tau(  45) = (  0.4166630  0.5833080  0.8715221  )
        46           I   tau(  46) = (  0.4166589  0.8333120  0.3715168  )
        47           I   tau(  47) = (  0.4166614  0.8333067  0.8715168  )
        48           I   tau(  48) = (  0.6666629  0.0833146  0.3715372  )
        49           I   tau(  49) = (  0.6666655  0.0833093  0.8715372  )
        50           I   tau(  50) = (  0.6666613  0.3333133  0.3715318  )
        51           I   tau(  51) = (  0.6666639  0.3333080  0.8715318  )
        52           I   tau(  52) = (  0.6666598  0.5833121  0.3715264  )
        53           I   tau(  53) = (  0.6666624  0.5833068  0.8715264  )
        54           I   tau(  54) = (  0.6666582  0.8333108  0.3715210  )
        55           I   tau(  55) = (  0.6666608  0.8333055  0.8715210  )
        56           I   tau(  56) = (  0.9166623  0.0833134  0.3715414  )
        57           I   tau(  57) = (  0.9166648  0.0833080  0.8715414  )
        58           I   tau(  58) = (  0.9166607  0.3333121  0.3715361  )
        59           I   tau(  59) = (  0.9166633  0.3333068  0.8715361  )
        60           I   tau(  60) = (  0.9166592  0.5833108  0.3715307  )
        61           I   tau(  61) = (  0.9166618  0.5833055  0.8715307  )
        62           I   tau(  62) = (  0.9166576  0.8333096  0.3715253  )
        63           I   tau(  63) = (  0.9166602  0.8333043  0.8715253  )
        64           I   tau(  64) = (  0.0833270  0.1666576  0.1284675  )
        65           I   tau(  65) = (  0.0833296  0.1666523  0.6284675  )
        66           I   tau(  66) = (  0.0833255  0.4166564  0.1284621  )
        67           I   tau(  67) = (  0.0833281  0.4166511  0.6284621  )
        68           I   tau(  68) = (  0.0833239  0.6666551  0.1284567  )
        69           I   tau(  69) = (  0.0833265  0.6666498  0.6284567  )
        70           I   tau(  70) = (  0.0833224  0.9166539  0.1284513  )
        71           I   tau(  71) = (  0.0833250  0.9166486  0.6284513  )
        72           I   tau(  72) = (  0.3333264  0.1666564  0.1284717  )
        73           I   tau(  73) = (  0.3333290  0.1666511  0.6284717  )
        74           I   tau(  74) = (  0.3333249  0.4166552  0.1284664  )
        75           I   tau(  75) = (  0.3333275  0.4166499  0.6284663  )
        76           I   tau(  76) = (  0.3333233  0.6666539  0.1284610  )
        77           I   tau(  77) = (  0.3333259  0.6666486  0.6284610  )
        78           I   tau(  78) = (  0.3333218  0.9166527  0.1284556  )
        79           I   tau(  79) = (  0.3333244  0.9166473  0.6284556  )
        80           I   tau(  80) = (  0.5833258  0.1666552  0.1284760  )
        81           I   tau(  81) = (  0.5833284  0.1666499  0.6284760  )
        82           I   tau(  82) = (  0.5833243  0.4166539  0.1284706  )
        83           I   tau(  83) = (  0.5833269  0.4166486  0.6284706  )
        84           I   tau(  84) = (  0.5833227  0.6666527  0.1284652  )
        85           I   tau(  85) = (  0.5833253  0.6666474  0.6284652  )
        86           I   tau(  86) = (  0.5833212  0.9166514  0.1284599  )
        87           I   tau(  87) = (  0.5833238  0.9166461  0.6284599  )
        88           I   tau(  88) = (  0.8333252  0.1666540  0.1284803  )
        89           I   tau(  89) = (  0.8333278  0.1666487  0.6284803  )
        90           I   tau(  90) = (  0.8333237  0.4166527  0.1284749  )
        91           I   tau(  91) = (  0.8333262  0.4166474  0.6284749  )
        92           I   tau(  92) = (  0.8333221  0.6666515  0.1284695  )
        93           I   tau(  93) = (  0.8333247  0.6666462  0.6284695  )
        94           I   tau(  94) = (  0.8333206  0.9166502  0.1284641  )
        95           I   tau(  95) = (  0.8333232  0.9166449  0.6284641  )
        96           Pb  tau(  96) = (  0.1666641  0.0833170  0.3715286  )

     number of k points=     1  Gaussian smearing, width (Ry)=  0.0100
                       cart. coord. in units 2pi/alat
        k(    1) = (   0.0000000   0.0000000   0.0000000), wk =   2.0000000

                       cryst. coord.
        k(    1) = (   0.0000000   0.0000000   0.0000000), wk =   2.0000000

     Dense  grid:  3385235 G-vectors     FFT dimensions: ( 216, 216, 180)

     Smooth grid:  2422379 G-vectors     FFT dimensions: ( 192, 192, 150)

     Dynamical RAM for                 wfc:      33.20 MB

     Dynamical RAM for     wfc (w. buffer):      33.20 MB

     Dynamical RAM for           str. fact:       0.81 MB

     Dynamical RAM for           local pot:       0.00 MB

     Dynamical RAM for          nlocal pot:      62.36 MB

     Dynamical RAM for                qrad:       3.00 MB

     Dynamical RAM for          rho,v,vnew:       3.35 MB

     Dynamical RAM for               rhoin:       1.12 MB

     Dynamical RAM for            rho*nmix:       6.46 MB

     Dynamical RAM for           G-vectors:       1.66 MB

     Dynamical RAM for          h,s,v(r/c):     619.92 MB

     Dynamical RAM for          <psi|beta>:      24.26 MB

     Dynamical RAM for                 psi:     132.80 MB

     Dynamical RAM for                hpsi:     132.80 MB

     Dynamical RAM for                spsi:     132.80 MB

     Dynamical RAM for      wfcinit/wfcrot:      85.78 MB

     Dynamical RAM for           addusdens:     100.50 MB

     Dynamical RAM for          addusforce:     150.99 MB

     Dynamical RAM for         addusstress:      81.13 MB

     Estimated static dynamical RAM per process >     110.26 MB

     Estimated max dynamical RAM per process >       1.13 GB

     Estimated total dynamical RAM >     144.91 GB

     Atomic positions and unit cell read from directory:
     ./PbI2.save/
     Atomic positions from file used, from input discarded
 

     Check: negative core charge=   -0.000001

     The initial density is read from file :
     ./PbI2.save/charge-density



     %%%%%%%%%%%%%%%%%%%%%%%%%%%%%%%%%%%%%%%%%%%%%%%%%%%%%%%%%%%%%%%%%%%%%%%%
     %                                                                      %
     % You are using vdW-DF, which was implemented by the Thonhauser group. %
     % Please cite the following two papers that made this development      %
     % possible and the two reviews that describe the various versions:     %
     %                                                                      %
     %   T. Thonhauser et al., PRL 115, 136402 (2015).                      %
     %   T. Thonhauser et al., PRB 76, 125112 (2007).                       %
     %   K. Berland et al., Rep. Prog. Phys. 78, 066501 (2015).             %
     %   D.C. Langreth et al., J. Phys.: Condens. Matter 21, 084203 (2009). %
     %                                                                      %
     % If you are calculating stress with vdW-DF, please also cite:         %
     %                                                                      %
     %   R. Sabatini et al., J. Phys.: Condens. Matter 24, 424209 (2012).   %
     %                                                                      %
     %%%%%%%%%%%%%%%%%%%%%%%%%%%%%%%%%%%%%%%%%%%%%%%%%%%%%%%%%%%%%%%%%%%%%%%%

     %%%%%%%%%%%%%%%%%%%%%%%%%%%%%%%%%%%%%%%%%%%%%%%%%%%%%%%%%%%%%%%%%%%%%%%%
     %                                                                      %
     %  vdW-DF NEWS:                                                        %
     %                                                                      %
     %  * vdW-DF3 is now available. DOI: 10.1021/acs.jctc.0c00471           %
     %    use with input_dft = 'vdW-DF3-opt1' or 'vdW-DF3-opt2'             %
     %                                                                      %
     %  * Unscreened and range-separated vdW-DF hybrid functionals          %
     %    DOI: 10.1063/1.4986522 and 10.1088/1361-648X/ac2ad2               %
     %    use with input_dft = 'vdW-DF-cx0' (etc) and 'vdW-DF-ahcx'         %
     %                                                                      %
     %%%%%%%%%%%%%%%%%%%%%%%%%%%%%%%%%%%%%%%%%%%%%%%%%%%%%%%%%%%%%%%%%%%%%%%%


     Carrying out vdW-DF run using the following parameters:
     Nqs    =  20  Npoints =  1024  r_max =  100.000
     q_mesh =  0.00001000  0.04494208  0.09755937  0.15916263
               0.23128650  0.31572767  0.41458969  0.53033537
               0.66584808  0.82450364  1.01025438  1.22772762
               1.48234092  1.78043706  2.12944203  2.53805004
               3.01644009  3.57652955  4.23227104  5.00000000


     -----------------------------------------------
     Non-local corr. energy    =      45.71066661 Ry
     -----------------------------------------------

     Starting wfcs from file
     Checking if some PAW data can be deallocated... 
       PAW data deallocated on   63 nodes for type:  1
       PAW data deallocated on   65 nodes for type:  2

     total cpu time spent up to now is       20.6 secs

     Self-consistent Calculation

     iteration #  1     ecut=    70.00 Ry     beta= 0.70
     Davidson diagonalization with overlap

---- Real-time Memory Report at c_bands before calling an iterative solver
           388 MiB given to the printing process from OS
             0 MiB allocation reported by mallinfo(arena+hblkhd)
       1532109 MiB available memory on the node where the printing process lives
------------------
     ethr =  1.00E-05,  avg # of iterations =  2.0

     Threshold (ethr) on eigenvalues was too large:
     Diagonalizing with lowered threshold

     Davidson diagonalization with overlap

---- Real-time Memory Report at c_bands before calling an iterative solver
           968 MiB given to the printing process from OS
             0 MiB allocation reported by mallinfo(arena+hblkhd)
       1516724 MiB available memory on the node where the printing process lives
------------------
     c_bands:  1 eigenvalues not converged
     ethr =  8.65E-13,  avg # of iterations = 20.0


     -----------------------------------------------
     Non-local corr. energy    =      45.71066867 Ry
     -----------------------------------------------


     total cpu time spent up to now is      251.8 secs

     End of self-consistent calculation

          k = 0.0000 0.0000 0.0000 (302703 PWs)   bands (ev):

   -40.9077 -40.9077 -40.9077 -40.9022 -40.9022 -40.9021 -40.9012 -40.9011
   -40.9011 -40.8847 -40.8847 -40.8847 -40.8842 -40.8842 -40.8841 -40.8395
   -40.8393 -40.8393 -40.8376 -40.8375 -40.8374 -40.8343 -40.8343 -40.8342
   -40.8312 -40.8312 -40.8312 -40.8309 -40.8308 -40.8308 -40.8282 -40.8281
   -40.8281 -40.8260 -40.8260 -40.8259 -40.8259 -40.8258 -40.8258 -40.8256
   -40.8256 -40.8236 -40.8236 -40.8236 -40.8235 -40.8235 -40.8234 -40.8234
   -40.8234 -40.8234 -40.8234 -40.8233 -40.8233 -40.8232 -40.8232 -40.8232
   -40.8230 -40.8230 -40.8230 -40.8221 -40.8221 -40.8204 -40.8181 -40.8180
   -40.8179 -40.8179 -40.8179 -40.8179 -40.8175 -40.8175 -40.8174 -40.8174
   -40.8173 -40.8173 -40.8135 -40.8133 -40.8133 -40.8129 -40.8128 -40.8127
   -40.8127 -40.8127 -40.8127 -40.8127 -40.8127 -40.8127 -40.8122 -40.8121
   -40.8121 -40.8121 -40.8121 -40.8121 -40.8101 -40.8100 -40.8100 -40.8100
   -40.8100 -40.8100 -40.8094 -40.8094 -40.8094 -40.8094 -40.8094 -40.8094
   -40.8091 -40.8091 -40.8091 -40.8091 -40.8091 -40.8091 -40.8045 -40.8045
   -40.8044 -40.8043 -40.8043 -40.8043 -40.8038 -40.8037 -40.8037 -40.8037
   -40.8037 -40.8036 -40.8033 -40.8032 -40.8032 -40.8028 -40.8028 -40.8027
   -40.8025 -40.8024 -40.8023 -40.8023 -40.8022 -40.8022 -40.8022 -40.8021
   -40.8021 -40.8018 -40.8017 -40.8017 -40.8016 -40.8015 -40.8015 -40.8015
   -40.8015 -40.8015 -40.8015 -40.8015 -40.8014 -40.8014 -40.8014 -40.8014
   -40.8012 -40.8011 -40.8010 -40.7979 -40.7979 -40.7978 -40.7978 -40.7978
   -40.7977 -40.7976 -40.7976 -40.7975 -40.7969 -40.7969 -40.7968 -40.7967
   -40.7967 -40.7966 -40.7938 -40.7938 -40.7919 -40.7919 -40.7912 -40.7256
   -40.7255 -40.7255 -40.7224 -40.7223 -40.7223 -40.7221 -40.7220 -40.7220
   -40.7145 -40.7144 -40.7144 -40.7140 -40.7140 -40.7140 -40.7116 -40.7115
   -40.7114 -40.7105 -40.7104 -40.7104 -40.7083 -40.7082 -40.7081 -40.7034
   -40.7034 -40.7033 -40.7031 -40.7031 -40.7030 -40.6927 -40.6926 -40.6926
   -40.6926 -40.6926 -40.6926 -40.6920 -40.6919 -40.6919 -40.6919 -40.6919
   -40.6918 -40.6905 -40.6904 -40.6904 -40.6904 -40.6903 -40.6903 -40.6892
   -40.6891 -40.6891 -40.6891 -40.6891 -40.6891 -40.6886 -40.6885 -40.6885
   -40.6885 -40.6884 -40.6884 -40.6884 -40.6884 -40.6884 -40.6881 -40.6880
   -40.6880 -40.6856 -40.6855 -40.6855 -40.6838 -40.6837 -40.6837 -40.6833
   -40.6832 -40.6832 -40.6808 -40.6808 -40.6806 -40.6806 -40.6805 -40.6805
   -40.6803 -40.6802 -40.6801 -40.6801 -40.6800 -40.6800 -40.6665 -40.6664
   -40.6663 -40.6663 -40.6662 -40.6662 -40.6628 -40.6628 -40.6626 -40.6626
   -40.6625 -40.6625 -40.6592 -40.6592 -40.6591 -40.6590 -40.6590 -40.6590
   -40.6277 -40.6277 -40.6261 -40.6261 -40.6254 -40.5987 -40.5987 -40.5986
   -40.5958 -40.5958 -40.5957 -40.5941 -40.5940 -40.5939 -40.5864 -40.5864
   -40.5863 -40.5858 -40.5857 -40.5857 -40.5775 -40.5774 -40.5773 -40.5766
   -40.5766 -40.5765 -40.5501 -40.5501 -40.5499 -40.5492 -40.5491 -40.5490
   -40.5410 -40.5410 -40.5408 -12.9977 -12.9977 -12.9953 -12.9898 -12.9863
   -12.9863 -12.9856 -12.9841 -12.9841 -12.9810 -12.9810 -12.9792 -12.9781
   -12.9766 -12.9765 -12.9754 -12.9740 -12.9740 -12.9714 -12.9710 -12.9710
   -12.9699 -12.9693 -12.9692 -12.9677 -12.9675 -12.9675 -12.9673 -12.9656
   -12.9656 -12.9655 -12.9628 -12.9628 -12.9616 -12.9616 -12.9604 -12.9595
   -12.9595 -12.9570 -12.9567 -12.9541 -12.9541 -12.9509 -12.9509 -12.9489
   -12.9485 -12.9485 -12.9483 -12.9469 -12.9469 -12.9468 -12.9466 -12.9453
   -12.9453 -12.9438 -12.9438 -12.9429 -12.9428 -12.9428 -12.9425 -12.9420
   -12.9420 -12.9413 -12.9410 -12.9410 -12.9408 -12.9396 -12.9396 -12.9393
   -12.9382 -12.9382 -12.9370 -12.9370 -12.9362 -12.9357 -12.9357 -12.9342
   -12.9307 -12.9282 -12.9282 -12.8706 -12.8705 -12.8685 -12.8620 -12.8619
   -12.8616 -12.8578 -12.8578 -12.8522 -12.8517 -12.8517 -12.8509 -12.8508
   -12.8508 -12.8456 -12.8456 -12.8447 -12.8443 -12.8442 -12.8440 -12.8430
   -12.8407 -12.8407 -12.8398 -12.8345 -12.8345 -12.8313 -12.8305 -12.8295
   -12.8295 -12.8266 -12.8263 -12.8263 -12.8243 -12.8243 -12.8238 -12.8238
   -12.8215 -12.8215 -12.8213 -12.8210 -12.8186 -12.8186 -12.8185 -12.8176
   -12.8175 -12.8120 -12.8120 -12.8116 -12.8108 -12.8108 -12.8107 -12.8093
   -12.8093 -12.8076 -12.8051 -12.8041 -12.8041 -12.8040 -12.8034 -12.8033
   -12.8001 -12.8001 -12.7993 -12.7985 -12.7985 -12.7976 -12.7123 -12.7121
   -12.6992 -12.6991 -12.6811 -12.6786 -12.6725 -12.6724 -12.6675 -12.6437
   -12.6376 -12.6375 -12.6198 -12.6197 -12.6196 -12.6002 -12.5957 -12.5955
    -8.1222  -7.9477  -7.9416  -7.9306  -7.9306  -7.9159  -7.9135  -7.9135
    -7.8005  -7.7820  -7.7819  -7.7702  -7.7366  -7.7366  -7.7072  -7.6995
    -7.6995  -7.6683  -7.6645  -7.6645  -7.6644  -7.6484  -7.6483  -7.6380
    -7.6279  -7.6274  -7.6274  -7.5973  -7.5964  -7.5964  -7.5897  -7.5897
    -7.5636  -7.5636  -7.5490  -7.5412  -7.5328  -7.5327  -7.5323  -7.5273
    -7.5246  -7.5246  -7.5238  -7.5238  -7.5205  -7.5202  -7.5052  -7.5051
    -7.4568  -7.4567  -7.4541  -7.4375  -7.4375  -7.4347  -7.4106  -7.4105
    -7.3908  -7.3908  -7.3885  -7.3734  -7.3389  -7.3264  -7.3264  -3.9502
    -3.6850  -3.6849  -3.6841  -3.6678  -3.6677  -3.6611  -3.6611  -3.6556
    -3.6548  -3.5444  -3.5383  -3.5383  -3.5297  -3.5297  -3.5186  -3.4897
    -3.4271  -3.4156  -3.4156  -3.4042  -3.4041  -3.3955  -3.3954  -3.3934
    -3.2758  -3.2687  -3.2687  -3.1995  -3.1784  -3.1783  -3.0917  -2.8193
     0.8700   0.8700   0.8713   1.1745   1.1814   1.1814   1.1821   1.1935
     1.1935   1.2040   1.2041   1.2078   1.3482   1.3482   1.3657   1.3751
     1.3766   1.3801   1.3801   1.4178   1.4179   1.4593   1.4713   1.4713
     1.4835   1.4835   1.5092   1.5152   1.5171   1.5171   1.5305   1.5305
     1.5682   1.5865   1.5865   1.6092   1.6696   1.6696   1.6707   1.6874
     1.7053   1.7053   1.7481   1.7481   1.7906   1.8083   1.8083   1.8251
     1.8251   1.8254   1.8359   1.9005   1.9042   1.9042   2.0390   2.0390
     2.0412   2.0495   2.0495   2.0528   2.0725   2.0750   2.0750   2.0889
     2.0890   2.1082   2.1204   2.1621   2.1621   2.1827   2.1964   2.1964
     2.2105   2.2105   2.2111   2.2286   2.2303   2.2303   2.2752   2.2901
     2.3149   2.3149   2.3251   2.3252   2.3355   2.3423   2.3499   2.3500
     2.3671   2.3671   2.3835   2.3872   2.3872   2.4023   2.4226   2.4655
     2.4656   2.4899   2.5180   2.5181   2.5456   2.5601   2.5602   2.5988
     2.5988   2.6147   2.6372   2.6372   2.6395   2.6793   2.6794   2.6908
     2.7209   2.7209   2.7323   2.7552   2.7555   2.7555   2.7606   2.7703
     2.7703   2.8435   2.8435   2.8462   2.8462   2.8503   2.8583   2.8584
     2.8596   2.8719   2.8719   2.8726   2.8849   2.8849   2.8944   2.9071
     2.9071   2.9392   2.9393   2.9507   2.9739   2.9739   2.9827   2.9976
     2.9985   2.9985   3.0158   3.0159   3.0193   3.0286   3.0286   3.0336
     3.0336   3.0422   3.0674   3.0674   3.0703   3.0848   3.0849   3.0957
     3.0958   3.1337   3.1577   3.1578   3.2001   3.2001   3.2091   3.2145
     3.2164   3.2164   3.2389   3.2397   3.2397   3.2504   3.2504   3.2646
     3.3181   3.3230   3.3231   3.3906   3.3981   3.3981   3.4240   3.4241
     3.4444   3.4474   3.4474   3.4551   3.4801   4.5760   5.1054   5.1056
     5.9402   6.1843   6.4209   6.5009   6.5009   6.5119   6.5119   6.5293
     6.5930   6.5930   6.6099   6.7175   6.7540   6.7541   6.7699   6.7699
     6.7914   6.7915   6.8227   6.8785   6.8785   6.9354   6.9681   6.9681
     6.9882   6.9883   7.0028   7.0138   7.0138   7.0504   7.1227   7.1227
     7.1673   7.1746   7.1749   7.1750   7.1888   7.2163   7.2164   7.2672
     7.2680   7.2680   7.2736   7.2736   7.2737   7.2763   7.3065   7.3066
     7.3088   7.3089   7.3203   7.3255   7.3283   7.3283   7.3612   7.3794
     7.3916   7.3917   7.3971   7.3971   7.4409   7.4410   7.4434   7.4459
     7.4640   7.4651   7.4651   7.4822   7.4823   7.4839   7.5223   7.5319
     7.5321   7.5474   7.5475   7.5765   7.5771   7.5771   7.6001   7.6002
     7.6136   7.6149   7.6150   7.6480   7.6494   7.6494   7.7448   7.7489
     7.7490   7.8165   7.8621   7.8623   8.0369   8.0886   8.0887   8.0923
     9.2075   9.2075   9.2169   9.8011   9.8011   9.8156   9.8528   9.8636
     9.8636   9.8800   9.8900   9.8931   9.8932  10.0096  10.0562  10.0562
    10.0744  10.0765  10.0765  10.0900  10.0952  10.1146  10.1147  10.1419
    10.1420  10.3552  10.3819  10.3861  10.3861  10.4016  10.4016  10.4466
    10.4947  10.5023  10.5023  10.5247  10.5320  10.5320  10.8070  10.8071
    10.8122  10.8424  10.8425  10.8625  10.9128  10.9497  10.9497  10.9504
    10.9855  10.9855  11.1621  11.1694  11.1695  11.2052  11.2164  11.2274

     occupation numbers 
     1.0000   1.0000   1.0000   1.0000   1.0000   1.0000   1.0000   1.0000
     1.0000   1.0000   1.0000   1.0000   1.0000   1.0000   1.0000   1.0000
     1.0000   1.0000   1.0000   1.0000   1.0000   1.0000   1.0000   1.0000
     1.0000   1.0000   1.0000   1.0000   1.0000   1.0000   1.0000   1.0000
     1.0000   1.0000   1.0000   1.0000   1.0000   1.0000   1.0000   1.0000
     1.0000   1.0000   1.0000   1.0000   1.0000   1.0000   1.0000   1.0000
     1.0000   1.0000   1.0000   1.0000   1.0000   1.0000   1.0000   1.0000
     1.0000   1.0000   1.0000   1.0000   1.0000   1.0000   1.0000   1.0000
     1.0000   1.0000   1.0000   1.0000   1.0000   1.0000   1.0000   1.0000
     1.0000   1.0000   1.0000   1.0000   1.0000   1.0000   1.0000   1.0000
     1.0000   1.0000   1.0000   1.0000   1.0000   1.0000   1.0000   1.0000
     1.0000   1.0000   1.0000   1.0000   1.0000   1.0000   1.0000   1.0000
     1.0000   1.0000   1.0000   1.0000   1.0000   1.0000   1.0000   1.0000
     1.0000   1.0000   1.0000   1.0000   1.0000   1.0000   1.0000   1.0000
     1.0000   1.0000   1.0000   1.0000   1.0000   1.0000   1.0000   1.0000
     1.0000   1.0000   1.0000   1.0000   1.0000   1.0000   1.0000   1.0000
     1.0000   1.0000   1.0000   1.0000   1.0000   1.0000   1.0000   1.0000
     1.0000   1.0000   1.0000   1.0000   1.0000   1.0000   1.0000   1.0000
     1.0000   1.0000   1.0000   1.0000   1.0000   1.0000   1.0000   1.0000
     1.0000   1.0000   1.0000   1.0000   1.0000   1.0000   1.0000   1.0000
     1.0000   1.0000   1.0000   1.0000   1.0000   1.0000   1.0000   1.0000
     1.0000   1.0000   1.0000   1.0000   1.0000   1.0000   1.0000   1.0000
     1.0000   1.0000   1.0000   1.0000   1.0000   1.0000   1.0000   1.0000
     1.0000   1.0000   1.0000   1.0000   1.0000   1.0000   1.0000   1.0000
     1.0000   1.0000   1.0000   1.0000   1.0000   1.0000   1.0000   1.0000
     1.0000   1.0000   1.0000   1.0000   1.0000   1.0000   1.0000   1.0000
     1.0000   1.0000   1.0000   1.0000   1.0000   1.0000   1.0000   1.0000
     1.0000   1.0000   1.0000   1.0000   1.0000   1.0000   1.0000   1.0000
     1.0000   1.0000   1.0000   1.0000   1.0000   1.0000   1.0000   1.0000
     1.0000   1.0000   1.0000   1.0000   1.0000   1.0000   1.0000   1.0000
     1.0000   1.0000   1.0000   1.0000   1.0000   1.0000   1.0000   1.0000
     1.0000   1.0000   1.0000   1.0000   1.0000   1.0000   1.0000   1.0000
     1.0000   1.0000   1.0000   1.0000   1.0000   1.0000   1.0000   1.0000
     1.0000   1.0000   1.0000   1.0000   1.0000   1.0000   1.0000   1.0000
     1.0000   1.0000   1.0000   1.0000   1.0000   1.0000   1.0000   1.0000
     1.0000   1.0000   1.0000   1.0000   1.0000   1.0000   1.0000   1.0000
     1.0000   1.0000   1.0000   1.0000   1.0000   1.0000   1.0000   1.0000
     1.0000   1.0000   1.0000   1.0000   1.0000   1.0000   1.0000   1.0000
     1.0000   1.0000   1.0000   1.0000   1.0000   1.0000   1.0000   1.0000
     1.0000   1.0000   1.0000   1.0000   1.0000   1.0000   1.0000   1.0000
     1.0000   1.0000   1.0000   1.0000   1.0000   1.0000   1.0000   1.0000
     1.0000   1.0000   1.0000   1.0000   1.0000   1.0000   1.0000   1.0000
     1.0000   1.0000   1.0000   1.0000   1.0000   1.0000   1.0000   1.0000
     1.0000   1.0000   1.0000   1.0000   1.0000   1.0000   1.0000   1.0000
     1.0000   1.0000   1.0000   1.0000   1.0000   1.0000   1.0000   1.0000
     1.0000   1.0000   1.0000   1.0000   1.0000   1.0000   1.0000   1.0000
     1.0000   1.0000   1.0000   1.0000   1.0000   1.0000   1.0000   1.0000
     1.0000   1.0000   1.0000   1.0000   1.0000   1.0000   1.0000   1.0000
     1.0000   1.0000   1.0000   1.0000   1.0000   1.0000   1.0000   1.0000
     1.0000   1.0000   1.0000   1.0000   1.0000   1.0000   1.0000   1.0000
     1.0000   1.0000   1.0000   1.0000   1.0000   1.0000   1.0000   1.0000
     1.0000   1.0000   1.0000   1.0000   1.0000   1.0000   1.0000   1.0000
     1.0000   1.0000   1.0000   1.0000   1.0000   1.0000   1.0000   1.0000
     1.0000   1.0000   1.0000   1.0000   1.0000   1.0000   1.0000   1.0000
     1.0000   1.0000   1.0000   1.0000   1.0000   1.0000   1.0000   1.0000
     1.0000   1.0000   1.0000   1.0000   1.0000   1.0000   1.0000   1.0000
     1.0000   1.0000   1.0000   1.0000   1.0000   1.0000   1.0000   1.0000
     1.0000   1.0000   1.0000   1.0000   1.0000   1.0000   1.0000   1.0000
     1.0000   1.0000   1.0000   1.0000   1.0000   1.0000   1.0000   1.0000
     1.0000   1.0000   1.0000   1.0000   1.0000   1.0000   1.0000   1.0000
     1.0000   1.0000   1.0000   1.0000   1.0000   1.0000   1.0000   1.0000
     1.0000   1.0000   1.0000   1.0000   1.0000   1.0000   1.0000   1.0000
     1.0000   1.0000   1.0000   1.0000   1.0000   1.0000   1.0000   1.0000
     1.0000   1.0000   1.0000   1.0000   1.0000   1.0000   1.0000   1.0000
     1.0000   1.0000   1.0000   1.0000   1.0000   1.0000   1.0000   1.0000
     1.0000   1.0000   1.0000   1.0000   1.0000   1.0000   1.0000   1.0000
     1.0000   1.0000   1.0000   1.0000   1.0000   1.0000   1.0000   1.0000
     1.0000   1.0000   1.0000   1.0000   1.0000   1.0000   1.0000   1.0000
     1.0000   1.0000   1.0000   1.0000   1.0000   1.0000   1.0000   1.0000
     1.0000   1.0000   1.0000   1.0000   1.0000   1.0000   1.0000   1.0000
     1.0000   1.0000   1.0000   1.0000   1.0000   1.0000   1.0000   1.0000
     1.0000   1.0000   1.0000   1.0000   1.0000   1.0000   1.0000   1.0000
     1.0000   1.0000   1.0000   1.0000   1.0000   1.0000   1.0000   1.0000
     1.0000   1.0000   1.0000   1.0000   1.0000   1.0000   1.0000   1.0000
     1.0000   1.0000   1.0000   1.0000   1.0000   1.0000   1.0000   1.0000
     1.0000   1.0000   1.0000   1.0000   1.0000   1.0000   1.0000   1.0000
     1.0000   1.0000   1.0000   1.0000   1.0000   1.0000   1.0000   1.0000
     1.0000   1.0000   1.0000   1.0000   1.0000   1.0000   1.0000   1.0000
     1.0000   1.0000   1.0000   1.0000   1.0000   1.0000   1.0000   1.0000
     1.0000   1.0000   1.0000   1.0000   1.0000   1.0000   1.0000   1.0000
     1.0000   1.0000   1.0000   1.0000   1.0000   1.0000   1.0000   1.0000
     1.0000   1.0000   1.0000   1.0000   1.0000   1.0000   1.0000   1.0000
     1.0000   1.0000   1.0000   1.0000   1.0000   1.0000   1.0000   1.0000
     1.0000   1.0000   1.0000   1.0000   1.0000   1.0000   1.0000   1.0000
     1.0000   1.0000   1.0000   1.0000   1.0000   1.0000   1.0000   1.0000
     1.0000   1.0000   1.0000   1.0000   1.0000   1.0000   1.0000   1.0000
     1.0000   1.0000   1.0000   1.0000   1.0000   1.0000   1.0000   1.0000
     1.0000   1.0000   1.0000   1.0000   1.0000   1.0000   1.0000   1.0000
     1.0000   1.0000   1.0000   1.0000   1.0000   1.0000   1.0000   1.0000
     1.0000   1.0000   1.0000   1.0000   1.0000   1.0000   1.0000   1.0000
     1.0000   1.0000   1.0000   1.0000   1.0000   1.0000   1.0000   1.0000
     1.0000   1.0000   1.0000   1.0000   1.0000   1.0000   1.0000   1.0000
     1.0000   1.0000   1.0000   1.0000   1.0000   1.0000   1.0000   1.0000
     1.0000   1.0000   1.0000   1.0000   1.0000   1.0000   1.0000   1.0000
     1.0000   1.0000   1.0000   1.0000   1.0000   1.0000   1.0000   1.0000
     1.0000   1.0000   1.0000   1.0000   1.0000   1.0000   0.2503   0.2497
     0.0000   0.0000   0.0000   0.0000   0.0000   0.0000   0.0000   0.0000
     0.0000   0.0000   0.0000   0.0000   0.0000   0.0000   0.0000   0.0000
     0.0000   0.0000   0.0000   0.0000   0.0000   0.0000   0.0000   0.0000
     0.0000   0.0000   0.0000   0.0000   0.0000   0.0000   0.0000   0.0000
     0.0000   0.0000   0.0000   0.0000   0.0000   0.0000   0.0000   0.0000
     0.0000   0.0000   0.0000   0.0000   0.0000   0.0000   0.0000   0.0000
     0.0000   0.0000   0.0000   0.0000   0.0000   0.0000   0.0000   0.0000
     0.0000   0.0000   0.0000   0.0000   0.0000   0.0000   0.0000   0.0000
     0.0000   0.0000   0.0000   0.0000   0.0000   0.0000   0.0000   0.0000
     0.0000   0.0000   0.0000   0.0000   0.0000   0.0000   0.0000   0.0000
     0.0000   0.0000   0.0000   0.0000   0.0000   0.0000   0.0000   0.0000
     0.0000   0.0000   0.0000   0.0000   0.0000   0.0000   0.0000   0.0000
     0.0000   0.0000   0.0000   0.0000   0.0000   0.0000   0.0000   0.0000
     0.0000   0.0000   0.0000   0.0000   0.0000   0.0000   0.0000   0.0000
     0.0000   0.0000   0.0000   0.0000   0.0000   0.0000   0.0000   0.0000
     0.0000   0.0000   0.0000   0.0000   0.0000   0.0000   0.0000   0.0000
     0.0000   0.0000   0.0000   0.0000   0.0000   0.0000   0.0000   0.0000
     0.0000   0.0000   0.0000   0.0000   0.0000   0.0000   0.0000   0.0000
     0.0000   0.0000   0.0000   0.0000   0.0000   0.0000   0.0000   0.0000

     the Fermi energy is     5.0406 ev

!    total energy              =  -65088.74998778 Ry
     total all-electron energy =  -2276514.791640 Ry
     estimated scf accuracy    <       0.00000001 Ry
     smearing contrib. (-TS)   =      -0.00898813 Ry
     internal energy E=F+TS    =  -65088.74099965 Ry

     The total energy is F=E-TS. E is the sum of the following terms:
     one-electron contribution =  -11817.37369460 Ry
     hartree contribution      =    6614.60484511 Ry
     xc contribution           =   -4516.26596996 Ry
     ewald contribution        =   -9855.27353424 Ry
     one-center paw contrib.   =  -45514.43264595 Ry
      -> PAW hartree energy AE =      95.92679969 Ry
      -> PAW hartree energy PS =     -96.16376304 Ry
      -> PAW xc energy AE      =    -798.43165438 Ry
      -> PAW xc energy PS      =      33.31159602 Ry
      -> total E_H with PAW    =    6614.36788176 Ry
      -> total E_XC with PAW   =   -5281.38602832 Ry

     convergence has been achieved in   1 iterations


     -----------------------------------------------
     Non-local corr. energy    =      45.71066867 Ry
     -----------------------------------------------


     Forces acting on atoms (cartesian axes, Ry/au):

     atom    1 type  1   force =    -0.00000041    0.00052508   -0.00024709
     atom    2 type  1   force =     0.00000049    0.00091256   -0.00032242
     atom    3 type  1   force =    -0.00011202    0.00000949   -0.00001343
     atom    4 type  1   force =     0.00000476   -0.00036589   -0.00052214
     atom    5 type  1   force =    -0.00004887   -0.00010204   -0.00001318
     atom    6 type  1   force =    -0.00031493    0.00019006   -0.00051971
     atom    7 type  1   force =     0.00045119   -0.00025938   -0.00024503
     atom    8 type  1   force =     0.00079065   -0.00045593   -0.00031888
     atom    9 type  1   force =     0.00045490    0.00026452   -0.00050148
     atom   10 type  1   force =    -0.00029688   -0.00017126    0.00030801
     atom   11 type  1   force =     0.00011214    0.00000947   -0.00001363
     atom   12 type  1   force =    -0.00000329   -0.00036522   -0.00052168
     atom   13 type  1   force =     0.00000050   -0.00000001    0.00020580
     atom   14 type  1   force =     0.00000072   -0.00000199   -0.00064031
     atom   15 type  1   force =     0.00006468    0.00009330   -0.00001008
     atom   16 type  1   force =    -0.00032276    0.00017789   -0.00051771
     atom   17 type  1   force =    -0.00000332    0.00027509   -0.00020467
     atom   18 type  1   force =    -0.00000024   -0.00004429    0.00001198
     atom   19 type  1   force =     0.00023456   -0.00013841   -0.00020586
     atom   20 type  1   force =    -0.00003857    0.00001926    0.00001274
     atom   21 type  1   force =     0.00004663   -0.00010445   -0.00001684
     atom   22 type  1   force =     0.00031292    0.00018283   -0.00052547
     atom   23 type  1   force =    -0.00006684    0.00009186   -0.00001345
     atom   24 type  1   force =     0.00031781    0.00017877   -0.00052402
     atom   25 type  1   force =    -0.00045619    0.00026257   -0.00050634
     atom   26 type  1   force =     0.00029567   -0.00017260    0.00030406
     atom   27 type  1   force =    -0.00023943   -0.00013651   -0.00020659
     atom   28 type  1   force =     0.00003493    0.00001843    0.00001232
     atom   29 type  1   force =    -0.00000310   -0.00052388   -0.00050347
     atom   30 type  1   force =    -0.00000011    0.00034455    0.00030569
     atom   31 type  1   force =    -0.00045397   -0.00026083   -0.00024959
     atom   32 type  1   force =    -0.00078883   -0.00045331   -0.00032728
     atom   33 type  2   force =    -0.00003035    0.00000212    0.00011397
     atom   34 type  2   force =    -0.00027671    0.00007677   -0.00017095
     atom   35 type  2   force =     0.00006095   -0.00010947    0.00044736
     atom   36 type  2   force =     0.00004946    0.00001099    0.00009200
     atom   37 type  2   force =     0.00011220    0.00005269    0.00033772
     atom   38 type  2   force =    -0.00008020   -0.00030555   -0.00019923
     atom   39 type  2   force =    -0.00007258    0.00010661    0.00045552
     atom   40 type  2   force =     0.00023130    0.00021058   -0.00020024
     atom   41 type  2   force =    -0.00012087    0.00000243    0.00045134
     atom   42 type  2   force =     0.00025966    0.00010051   -0.00017854
     atom   43 type  2   force =    -0.00007609   -0.00008837    0.00045118
     atom   44 type  2   force =     0.00000960   -0.00010312   -0.00003193
     atom   45 type  2   force =     0.00000970   -0.00005351   -0.00009399
     atom   46 type  2   force =    -0.00006458    0.00004272   -0.00004342
     atom   47 type  2   force =    -0.00002934    0.00002404   -0.00009143
     atom   48 type  2   force =     0.00002606   -0.00005331    0.00009008
     atom   49 type  2   force =     0.00002182   -0.00013092    0.00033550
     atom   50 type  2   force =     0.00011065    0.00007073    0.00028796
     atom   51 type  2   force =    -0.00009657   -0.00004624    0.00053375
     atom   52 type  2   force =    -0.00004664    0.00004139    0.00009330
     atom   53 type  2   force =    -0.00011563    0.00008047    0.00033467
     atom   54 type  2   force =     0.00011145    0.00005962   -0.00002710
     atom   55 type  2   force =     0.00006421    0.00003346   -0.00009514
     atom   56 type  2   force =    -0.00020316    0.00017263   -0.00015649
     atom   57 type  2   force =     0.00011862   -0.00001595    0.00043805
     atom   58 type  2   force =    -0.00009732    0.00004728    0.00029538
     atom   59 type  2   force =     0.00010110   -0.00006431    0.00052980
     atom   60 type  2   force =    -0.00001450   -0.00011933    0.00029307
     atom   61 type  2   force =    -0.00001379    0.00011972    0.00053162
     atom   62 type  2   force =     0.00003268   -0.00025860   -0.00016325
     atom   63 type  2   force =     0.00003109    0.00011777    0.00044533
     atom   64 type  2   force =     0.00026185   -0.00016461    0.00042890
     atom   65 type  2   force =    -0.00012790    0.00004461    0.00009179
     atom   66 type  2   force =     0.00009731   -0.00007069    0.00026470
     atom   67 type  2   force =    -0.00000015   -0.00005450   -0.00016537
     atom   68 type  2   force =    -0.00001052    0.00010066    0.00026150
     atom   69 type  2   force =    -0.00004821   -0.00000081   -0.00016007
     atom   70 type  2   force =    -0.00002357    0.00031174    0.00043075
     atom   71 type  2   force =    -0.00006136   -0.00013184    0.00011119
     atom   72 type  2   force =    -0.00028236   -0.00014861    0.00042642
     atom   73 type  2   force =     0.00008775    0.00009543    0.00012227
     atom   74 type  2   force =     0.00000014   -0.00007416    0.00019617
     atom   75 type  2   force =    -0.00000159   -0.00005956   -0.00006917
     atom   76 type  2   force =     0.00020975    0.00010682    0.00005421
     atom   77 type  2   force =     0.00006427    0.00001847   -0.00027854
     atom   78 type  2   force =    -0.00005751    0.00003230    0.00019465
     atom   79 type  2   force =    -0.00002946    0.00002334   -0.00003827
     atom   80 type  2   force =    -0.00008950   -0.00004561    0.00025982
     atom   81 type  2   force =    -0.00001519    0.00003581   -0.00015960
     atom   82 type  2   force =    -0.00009406   -0.00005421    0.00025969
     atom   83 type  2   force =     0.00000184   -0.00002378   -0.00016414
     atom   84 type  2   force =    -0.00019233    0.00011812    0.00004953
     atom   85 type  2   force =    -0.00003998    0.00003769   -0.00028548
     atom   86 type  2   force =     0.00001929   -0.00023273    0.00005147
     atom   87 type  2   force =     0.00002927   -0.00006153   -0.00027894
     atom   88 type  2   force =     0.00010903   -0.00005798    0.00026075
     atom   89 type  2   force =     0.00005110    0.00001136   -0.00017198
     atom   90 type  2   force =     0.00000201   -0.00000163    0.00028351
     atom   91 type  2   force =     0.00000102    0.00000160   -0.00004952
     atom   92 type  2   force =    -0.00000264    0.00011538    0.00025747
     atom   93 type  2   force =     0.00002074    0.00002782   -0.00017011
     atom   94 type  2   force =     0.00006695    0.00003693    0.00019758
     atom   95 type  2   force =     0.00006344    0.00004403   -0.00008996
     atom   96 type  1   force =     0.00000556   -0.00000343   -0.00069737
     The non-local contrib.  to forces
     atom    1 type  1   force =     0.00001718    0.01271559   -0.01511401
     atom    2 type  1   force =    -0.00000383   -0.03546768    0.01657209
     atom    3 type  1   force =     0.00157925    0.00522298    0.00074236
     atom    4 type  1   force =     0.01848786   -0.00131545    0.02143856
     atom    5 type  1   force =     0.00534253   -0.00130683    0.00074343
     atom    6 type  1   force =     0.00812635    0.01659623    0.02141471
     atom    7 type  1   force =     0.01105642   -0.00640890   -0.01512998
     atom    8 type  1   force =    -0.03064325    0.01765079    0.01660160
     atom    9 type  1   force =     0.02078078    0.01196254   -0.00792358
     atom   10 type  1   force =     0.00757176    0.00435425   -0.02483193
     atom   11 type  1   force =    -0.00153919    0.00522333    0.00075979
     atom   12 type  1   force =    -0.01846020   -0.00129171    0.02142950
     atom   13 type  1   force =     0.00000664   -0.00002283   -0.00630104
     atom   14 type  1   force =     0.00001087   -0.00002317   -0.00100249
     atom   15 type  1   force =     0.00378112   -0.00399685    0.00073576
     atom   16 type  1   force =    -0.01028793   -0.01537009    0.02140970
     atom   17 type  1   force =     0.00000615   -0.00409198    0.00580311
     atom   18 type  1   force =    -0.00002047   -0.01471347    0.00084358
     atom   19 type  1   force =    -0.00350687    0.00200227    0.00580632
     atom   20 type  1   force =    -0.01275149    0.00731878    0.00080975
     atom   21 type  1   force =    -0.00532106   -0.00130921    0.00077924
     atom   22 type  1   force =    -0.00814410    0.01658049    0.02143071
     atom   23 type  1   force =    -0.00375845   -0.00400647    0.00075594
     atom   24 type  1   force =     0.01029262   -0.01538024    0.02143502
     atom   25 type  1   force =    -0.02074596    0.01195460   -0.00789556
     atom   26 type  1   force =    -0.00758846    0.00436900   -0.02484943
     atom   27 type  1   force =     0.00351609    0.00199034    0.00580368
     atom   28 type  1   force =     0.01274803    0.00733112    0.00081242
     atom   29 type  1   force =     0.00001592   -0.02397951   -0.00788512
     atom   30 type  1   force =     0.00000839   -0.00880453   -0.02484068
     atom   31 type  1   force =    -0.01102232   -0.00640699   -0.01510522
     atom   32 type  1   force =     0.03065961    0.01766474    0.01666893
     atom   33 type  2   force =    -0.00001157    0.00001368    0.24709919
     atom   34 type  2   force =    -0.01913020   -0.01355325    0.22294147
     atom   35 type  2   force =     0.00643877   -0.00311329    0.24961911
     atom   36 type  2   force =    -0.01298437   -0.00746751    0.23282928
     atom   37 type  2   force =     0.00106890    0.00061815    0.25159057
     atom   38 type  2   force =    -0.02132053   -0.00979358    0.22291965
     atom   39 type  2   force =     0.00048102    0.00715040    0.24963357
     atom   40 type  2   force =    -0.00218411    0.02337354    0.22290713
     atom   41 type  2   force =    -0.00594784   -0.00399044    0.24962337
     atom   42 type  2   force =     0.01912885   -0.01356489    0.22292576
     atom   43 type  2   force =    -0.00644869   -0.00311427    0.24962175
     atom   44 type  2   force =    -0.00000160   -0.00172680    0.24446515
     atom   45 type  2   force =    -0.00000199    0.00086587    0.25487672
     atom   46 type  2   force =    -0.00149416    0.00086621    0.24445624
     atom   47 type  2   force =     0.00075174   -0.00043560    0.25487886
     atom   48 type  2   force =    -0.00000420    0.01497045    0.23281607
     atom   49 type  2   force =     0.00000151   -0.00121715    0.25158032
     atom   50 type  2   force =    -0.00976074   -0.00561465    0.24485012
     atom   51 type  2   force =    -0.00832546   -0.00477309    0.25173068
     atom   52 type  2   force =     0.01298436   -0.00747175    0.23281107
     atom   53 type  2   force =    -0.00107464    0.00061920    0.25157751
     atom   54 type  2   force =     0.00150877    0.00087214    0.24446275
     atom   55 type  2   force =    -0.00074660   -0.00042932    0.25486851
     atom   56 type  2   force =     0.00218847    0.02335961    0.22293627
     atom   57 type  2   force =     0.00593552   -0.00400005    0.24960689
     atom   58 type  2   force =     0.00976671   -0.00561445    0.24486165
     atom   59 type  2   force =     0.00830586   -0.00476926    0.25173319
     atom   60 type  2   force =     0.00000035    0.01130208    0.24486658
     atom   61 type  2   force =    -0.00001077    0.00961773    0.25173446
     atom   62 type  2   force =     0.02131339   -0.00977679    0.22293271
     atom   63 type  2   force =    -0.00050098    0.00715581    0.24961647
     atom   64 type  2   force =     0.02989738   -0.01727568   -0.19869871
     atom   65 type  2   force =     0.02699112   -0.01564139   -0.24906548
     atom   66 type  2   force =    -0.00384900   -0.00249466   -0.25320127
     atom   67 type  2   force =    -0.00172351    0.00254344   -0.24123660
     atom   68 type  2   force =    -0.00407257   -0.00208491   -0.25320227
     atom   69 type  2   force =     0.00133274   -0.00278796   -0.24123408
     atom   70 type  2   force =    -0.00004131    0.03456808   -0.19872573
     atom   71 type  2   force =    -0.00008093    0.03123826   -0.24905335
     atom   72 type  2   force =    -0.02995399   -0.01725860   -0.19867050
     atom   73 type  2   force =    -0.02702803   -0.01556606   -0.24903555
     atom   74 type  2   force =    -0.00000107   -0.00275409   -0.24960643
     atom   75 type  2   force =     0.00000409    0.06413813   -0.21469822
     atom   76 type  2   force =    -0.00127672   -0.00072487   -0.25307965
     atom   77 type  2   force =     0.00232692    0.00134062   -0.23861373
     atom   78 type  2   force =    -0.00238049    0.00140024   -0.24961091
     atom   79 type  2   force =     0.05550490   -0.03202324   -0.21466512
     atom   80 type  2   force =    -0.00020981    0.00457491   -0.25319530
     atom   81 type  2   force =     0.00311278    0.00024333   -0.24122041
     atom   82 type  2   force =     0.00383696   -0.00246353   -0.25319589
     atom   83 type  2   force =     0.00172509    0.00258894   -0.24122665
     atom   84 type  2   force =     0.00129723   -0.00071256   -0.25308214
     atom   85 type  2   force =    -0.00229533    0.00136183   -0.23861074
     atom   86 type  2   force =     0.00002069    0.00150700   -0.25308156
     atom   87 type  2   force =     0.00003807   -0.00265709   -0.23860884
     atom   88 type  2   force =     0.00022761    0.00456144   -0.25320307
     atom   89 type  2   force =    -0.00306050    0.00020485   -0.24123670
     atom   90 type  2   force =    -0.00000103   -0.00000523   -0.24602737
     atom   91 type  2   force =    -0.00001574   -0.00001601   -0.23166008
     atom   92 type  2   force =     0.00403527   -0.00207299   -0.25320437
     atom   93 type  2   force =    -0.00137328   -0.00275334   -0.24123887
     atom   94 type  2   force =     0.00237754    0.00139526   -0.24961785
     atom   95 type  2   force =    -0.05547457   -0.03201155   -0.21472343
     atom   96 type  1   force =     0.00002149    0.00003113    0.19443670
     The ionic contribution  to forces
     atom    1 type  1   force =     0.00050988    0.30261450   -0.38599682
     atom    2 type  1   force =     0.00075083   -0.07306807   -1.27514931
     atom    3 type  1   force =    -0.09081749   -0.03049774   -0.15645097
     atom    4 type  1   force =    -0.38710286   -0.21435600   -0.49513178
     atom    5 type  1   force =    -0.07192844   -0.06264279   -0.15633607
     atom    6 type  1   force =    -0.37877492   -0.22743599   -0.49473100
     atom    7 type  1   force =     0.26129264   -0.14897276   -0.38584816
     atom    8 type  1   force =    -0.06474346    0.03935177   -1.27503772
     atom    9 type  1   force =    -0.17183234   -0.09828557    0.00684262
     atom   10 type  1   force =     0.04134929    0.02463339    0.45693939
     atom   11 type  1   force =     0.09149120   -0.03029858   -0.15661469
     atom   12 type  1   force =     0.38835612   -0.21508385   -0.49414089
     atom   13 type  1   force =     0.00088972    0.00073317    0.00685793
     atom   14 type  1   force =     0.00078982    0.00068914    0.14498384
     atom   15 type  1   force =     0.01937660    0.09565504   -0.15569529
     atom   16 type  1   force =     0.00695005    0.44466895   -0.49316975
     atom   17 type  1   force =    -0.00088941    0.20898988   -0.19666704
     atom   18 type  1   force =    -0.00019983    0.40644762    0.00986280
     atom   19 type  1   force =     0.17953826   -0.10451225   -0.19708791
     atom   20 type  1   force =     0.35149333   -0.20322320    0.00991530
     atom   21 type  1   force =     0.07142195   -0.06342696   -0.15599832
     atom   22 type  1   force =     0.37994261   -0.22762723   -0.49457339
     atom   23 type  1   force =    -0.01970906    0.09498818   -0.15543398
     atom   24 type  1   force =    -0.00644396    0.44408115   -0.49364569
     atom   25 type  1   force =     0.17107799   -0.09906914    0.00704936
     atom   26 type  1   force =    -0.04117562    0.02233337    0.45787543
     atom   27 type  1   force =    -0.18122042   -0.10423860   -0.19754043
     atom   28 type  1   force =    -0.35338246   -0.20384734    0.00922601
     atom   29 type  1   force =    -0.00120279    0.19812941    0.00526834
     atom   30 type  1   force =    -0.00193059   -0.04618367    0.45566561
     atom   31 type  1   force =    -0.26210468   -0.15010452   -0.38533862
     atom   32 type  1   force =     0.06320938    0.03766581   -1.27558798
     atom   33 type  2   force =     0.00021865    0.00048923  -14.34431665
     atom   34 type  2   force =     0.54801296    1.02710511  -13.06895040
     atom   35 type  2   force =    -0.28379722    0.45953843  -14.68352942
     atom   36 type  2   force =     0.32680478    0.18686377  -13.81630821
     atom   37 type  2   force =    -0.02577443   -0.01548264  -14.76645936
     atom   38 type  2   force =     1.16217272   -0.03988745  -13.06939986
     atom   39 type  2   force =     0.25757461   -0.47551672  -14.68345797
     atom   40 type  2   force =     0.61834496   -0.98645917  -13.06770240
     atom   41 type  2   force =     0.54232750    0.01633805  -14.68582065
     atom   42 type  2   force =    -0.54623502    1.02960910  -13.06815427
     atom   43 type  2   force =     0.28512930    0.46034355  -14.68444806
     atom   44 type  2   force =     0.00212924   -0.26279185  -13.99548994
     atom   45 type  2   force =     0.00192322    0.05036207  -14.99693055
     atom   46 type  2   force =    -0.22571257    0.13176761  -13.99427365
     atom   47 type  2   force =     0.04489371   -0.02307091  -14.99846474
     atom   48 type  2   force =     0.00100000   -0.37521153  -13.81687698
     atom   49 type  2   force =     0.00000581    0.02927805  -14.76905232
     atom   50 type  2   force =     0.46615063    0.26914359  -13.95525834
     atom   51 type  2   force =     0.45828579    0.26330368  -14.83247749
     atom   52 type  2   force =    -0.32617015    0.18774153  -13.81841053
     atom   53 type  2   force =     0.02530406   -0.01513125  -14.76703499
     atom   54 type  2   force =     0.22870148    0.13117744  -13.99505930
     atom   55 type  2   force =    -0.04335178   -0.02432781  -14.99789331
     atom   56 type  2   force =    -0.61704221   -0.98953412  -13.06752202
     atom   57 type  2   force =    -0.54249957    0.01469923  -14.68457523
     atom   58 type  2   force =    -0.46821858    0.26728408  -13.95461539
     atom   59 type  2   force =    -0.45949715    0.26256915  -14.83211741
     atom   60 type  2   force =    -0.00260709   -0.53959784  -13.95481286
     atom   61 type  2   force =    -0.00120832   -0.53007340  -14.83116407
     atom   62 type  2   force =    -1.16532263   -0.03996494  -13.06843480
     atom   63 type  2   force =    -0.25895722   -0.47641015  -14.68323534
     atom   64 type  2   force =    -1.87735252    1.08381672   12.54949321
     atom   65 type  2   force =    -1.30819993    0.75571777   13.86570487
     atom   66 type  2   force =     0.08550981    0.15758073   14.71029779
     atom   67 type  2   force =     0.00221901   -0.04813979   14.07529961
     atom   68 type  2   force =     0.17904620   -0.00608089   14.71036271
     atom   69 type  2   force =    -0.03985605    0.02533073   14.07560025
     atom   70 type  2   force =     0.00016555   -2.16849447   12.55045559
     atom   71 type  2   force =    -0.00006215   -1.51102456   13.86558249
     atom   72 type  2   force =     1.87946285    1.08480604   12.54772198
     atom   73 type  2   force =     1.30913059    0.75632021   13.86747805
     atom   74 type  2   force =     0.00130192    0.50561622   14.61899606
     atom   75 type  2   force =     0.00217761   -1.44875249   13.62009196
     atom   76 type  2   force =    -0.01287364   -0.00880654   14.55869626
     atom   77 type  2   force =     0.00146349    0.00102893   14.28648407
     atom   78 type  2   force =     0.43858448   -0.25233496   14.61753332
     atom   79 type  2   force =    -1.25012592    0.72540614   13.62210503
     atom   80 type  2   force =     0.09452430   -0.15221802   14.71000551
     atom   81 type  2   force =    -0.04288034    0.02069343   14.07668932
     atom   82 type  2   force =    -0.08467528    0.15795202   14.71168316
     atom   83 type  2   force =    -0.00250438   -0.04832269   14.07529233
     atom   84 type  2   force =     0.01496569   -0.00948806   14.55962407
     atom   85 type  2   force =     0.00011478   -0.00032463   14.28608544
     atom   86 type  2   force =     0.00053286    0.01663993   14.55785169
     atom   87 type  2   force =    -0.00032805    0.00020105   14.28789455
     atom   88 type  2   force =    -0.09546915   -0.15350041   14.70984592
     atom   89 type  2   force =     0.04097670    0.02016961   14.07484424
     atom   90 type  2   force =    -0.00140602   -0.00110309   14.52890710
     atom   91 type  2   force =    -0.00114510   -0.00112095   14.01571449
     atom   92 type  2   force =    -0.18051571   -0.00683029   14.71156705
     atom   93 type  2   force =     0.03841674    0.02461032   14.07399608
     atom   94 type  2   force =    -0.43825196   -0.25359005   14.61839906
     atom   95 type  2   force =     1.25101298    0.72341143   13.61962866
     atom   96 type  1   force =    -0.00152616   -0.00143040   -3.90199625
     The local contribution  to forces
     atom    1 type  1   force =    -0.00050770   -0.31459147    0.40071552
     atom    2 type  1   force =    -0.00067615    0.11068919    1.25951533
     atom    3 type  1   force =     0.08912889    0.02536415    0.15573810
     atom    4 type  1   force =     0.36889182    0.21530279    0.47361338
     atom    5 type  1   force =     0.06659140    0.06385314    0.15561656
     atom    6 type  1   force =     0.37043092    0.21135108    0.47325067
     atom    7 type  1   force =    -0.27167498    0.15500616    0.40057882
     atom    8 type  1   force =     0.09736092   -0.05810608    1.25937816
     atom    9 type  1   force =     0.15192052    0.08679790    0.00042489
     atom   10 type  1   force =    -0.04916215   -0.02917879   -0.43214926
     atom   11 type  1   force =    -0.08985735    0.02513195    0.15588251
     atom   12 type  1   force =    -0.37018517    0.21596017    0.47262933
     atom   13 type  1   force =    -0.00093453   -0.00070359   -0.00048805
     atom   14 type  1   force =    -0.00085371   -0.00065979   -0.14455836
     atom   15 type  1   force =    -0.02308317   -0.09160868    0.15498498
     atom   16 type  1   force =     0.00276922   -0.42935667    0.47169571
     atom   17 type  1   force =     0.00085766   -0.20468770    0.19078051
     atom   18 type  1   force =     0.00018382   -0.39206102   -0.01059389
     atom   19 type  1   force =    -0.17584286    0.10238915    0.19119679
     atom   20 type  1   force =    -0.33901501    0.19604275   -0.01061461
     atom   21 type  1   force =    -0.06611321    0.06459956    0.15524635
     atom   22 type  1   force =    -0.37160771    0.21145155    0.47304977
     atom   23 type  1   force =     0.02332007   -0.09092186    0.15470985
     atom   24 type  1   force =    -0.00343114   -0.42874101    0.47212110
     atom   25 type  1   force =    -0.15119934    0.08763650    0.00019909
     atom   26 type  1   force =     0.04897989   -0.02679055   -0.43308453
     atom   27 type  1   force =     0.17752678    0.10216424    0.19165224
     atom   28 type  1   force =     0.34091849    0.19670436   -0.00992468
     atom   29 type  1   force =     0.00122815   -0.17514263    0.00196572
     atom   30 type  1   force =     0.00200075    0.05526845   -0.43087438
     atom   31 type  1   force =     0.27252014    0.15615217    0.40004969
     atom   32 type  1   force =    -0.09564752   -0.05640079    1.25985224
     atom   33 type  2   force =    -0.00016511   -0.00050873   14.10262473
     atom   34 type  2   force =    -0.52952526   -1.01392667   12.85055738
     atom   35 type  2   force =     0.27761489   -0.45663478   14.43967751
     atom   36 type  2   force =    -0.31416091   -0.17956223   13.58860573
     atom   37 type  2   force =     0.02486492    0.01498487   14.52065349
     atom   38 type  2   force =    -1.14148048    0.04936181   12.85106508
     atom   39 type  2   force =    -0.25809224    0.46871321   14.43957307
     atom   40 type  2   force =    -0.61620765    0.96380597   12.84939163
     atom   41 type  2   force =    -0.53670221   -0.01247539   14.44193469
     atom   42 type  2   force =     0.52777444   -1.01646414   12.84979907
     atom   43 type  2   force =    -0.27892416   -0.45746997   14.44058401
     atom   44 type  2   force =    -0.00214581    0.26431276   13.75654695
     atom   45 type  2   force =    -0.00193963   -0.05119284   14.74731169
     atom   46 type  2   force =     0.22698038   -0.13251021   13.75535232
     atom   47 type  2   force =    -0.04565439    0.02350726   14.74883258
     atom   48 type  2   force =    -0.00104006    0.36062971   13.58917571
     atom   49 type  2   force =    -0.00004423   -0.02825276   14.52325052
     atom   50 type  2   force =    -0.45663636   -0.26368749   13.71603442
     atom   51 type  2   force =    -0.45036340   -0.25877693   14.58660777
     atom   52 type  2   force =     0.31352450   -0.18048559   13.59070854
     atom   53 type  2   force =    -0.02439410    0.01459264   14.52124408
     atom   54 type  2   force =    -0.23006297   -0.13194996   13.75610692
     atom   55 type  2   force =     0.04404403    0.02474253   14.74828747
     atom   56 type  2   force =     0.61484374    0.96695981   12.84911808
     atom   57 type  2   force =     0.53687473   -0.01079263   14.44073664
     atom   58 type  2   force =     0.45867628   -0.26179145   13.71537306
     atom   59 type  2   force =     0.45157444   -0.25801282   14.58624879
     atom   60 type  2   force =     0.00262685    0.52857925   13.71557359
     atom   61 type  2   force =     0.00123738    0.52092089   14.58529298
     atom   62 type  2   force =     1.14471719    0.04934267   12.85004471
     atom   63 type  2   force =     0.25955211    0.46958017   14.43938760
     atom   64 type  2   force =     1.84855228   -1.06715006  -12.35453915
     atom   65 type  2   force =     1.28183989   -0.74038993  -13.62195792
     atom   66 type  2   force =    -0.08161841   -0.15520723  -14.46235822
     atom   67 type  2   force =    -0.00048107    0.04568771  -13.83939423
     atom   68 type  2   force =    -0.17505176    0.00828638  -14.46242006
     atom   69 type  2   force =     0.03860978   -0.02252423  -13.83970244
     atom   70 type  2   force =    -0.00006588    2.13516391  -12.35547068
     atom   71 type  2   force =     0.00025587    1.48047319  -13.62187100
     atom   72 type  2   force =    -1.85055806   -1.06819561  -12.35279338
     atom   73 type  2   force =    -1.28265750   -0.74115303  -13.62379728
     atom   74 type  2   force =    -0.00130238   -0.50307040  -14.37461038
     atom   75 type  2   force =    -0.00217422    1.38607796  -13.40986835
     atom   76 type  2   force =     0.01420801    0.00959185  -14.31114679
     atom   77 type  2   force =    -0.00380217   -0.00232988  -14.05303225
     atom   78 type  2   force =    -0.43638797    0.25103915  -14.37313452
     atom   79 type  2   force =     1.19585482   -0.69408411  -13.41193920
     atom   80 type  2   force =    -0.09447487    0.14765859  -14.46207138
     atom   81 type  2   force =     0.03976938   -0.02100967  -13.84080620
     atom   82 type  2   force =     0.08080054   -0.15565206  -14.46374486
     atom   83 type  2   force =     0.00076251    0.04576008  -13.83939909
     atom   84 type  2   force =    -0.01635927    0.01023515  -14.31207457
     atom   85 type  2   force =     0.00213743   -0.00104146  -14.05263437
     atom   86 type  2   force =    -0.00059376   -0.01823541  -14.31030479
     atom   87 type  2   force =     0.00022665    0.00243681  -14.05444484
     atom   88 type  2   force =     0.09536366    0.14898246  -14.46191147
     atom   89 type  2   force =    -0.03799688   -0.02040365  -13.83894049
     atom   90 type  2   force =     0.00141101    0.00110677  -14.28779855
     atom   91 type  2   force =     0.00115922    0.00113735  -13.78891620
     atom   92 type  2   force =     0.17660413    0.00899555  -14.46362611
     atom   93 type  2   force =    -0.03707580   -0.02189231  -13.83808948
     atom   94 type  2   force =     0.43605115    0.25229756  -14.37401289
     atom   95 type  2   force =    -1.19682514   -0.69214009  -13.40936253
     atom   96 type  1   force =     0.00162528    0.00138512    3.70873240
     The core correction contribution to forces
     atom    1 type  1   force =     0.00000004   -0.00025618    0.00027122
     atom    2 type  1   force =     0.00000091   -0.00131207   -0.00125860
     atom    3 type  1   force =    -0.00001961   -0.00008217   -0.00001691
     atom    4 type  1   force =    -0.00029872    0.00001537   -0.00034289
     atom    5 type  1   force =    -0.00008132    0.00002556   -0.00001694
     atom    6 type  1   force =    -0.00013649   -0.00026489   -0.00034267
     atom    7 type  1   force =    -0.00022140    0.00012801    0.00027106
     atom    8 type  1   force =    -0.00113530    0.00065602   -0.00125871
     atom    9 type  1   force =    -0.00045043   -0.00026037    0.00021757
     atom   10 type  1   force =    -0.00008337   -0.00004876    0.00041074
     atom   11 type  1   force =     0.00001850   -0.00008270   -0.00001727
     atom   12 type  1   force =     0.00029766    0.00001404   -0.00034273
     atom   13 type  1   force =    -0.00000080    0.00000023    0.00011420
     atom   14 type  1   force =    -0.00000118    0.00000043    0.00007998
     atom   15 type  1   force =    -0.00006292    0.00005768   -0.00001697
     atom   16 type  1   force =     0.00015994    0.00025084   -0.00034274
     atom   17 type  1   force =    -0.00000006    0.00003555   -0.00008656
     atom   18 type  1   force =    -0.00000011    0.00025731   -0.00001822
     atom   19 type  1   force =     0.00003097   -0.00001749   -0.00008662
     atom   20 type  1   force =     0.00022348   -0.00012841   -0.00001770
     atom   21 type  1   force =     0.00008109    0.00002539   -0.00001703
     atom   22 type  1   force =     0.00013680   -0.00026501   -0.00034253
     atom   23 type  1   force =     0.00006171    0.00005825   -0.00001676
     atom   24 type  1   force =    -0.00016159    0.00025129   -0.00034265
     atom   25 type  1   force =     0.00044997   -0.00025924    0.00021785
     atom   26 type  1   force =     0.00008331   -0.00004757    0.00041131
     atom   27 type  1   force =    -0.00003027   -0.00001695   -0.00008647
     atom   28 type  1   force =    -0.00022273   -0.00012776   -0.00001785
     atom   29 type  1   force =     0.00000076    0.00051929    0.00021695
     atom   30 type  1   force =     0.00000097    0.00009676    0.00041103
     atom   31 type  1   force =     0.00022220    0.00012845    0.00027147
     atom   32 type  1   force =     0.00113846    0.00065681   -0.00125928
     atom   33 type  2   force =    -0.00000087    0.00000317   -0.00518430
     atom   34 type  2   force =     0.00039397    0.00040728   -0.00472772
     atom   35 type  2   force =    -0.00018371    0.00011531   -0.00524426
     atom   36 type  2   force =     0.00035645    0.00020792   -0.00496242
     atom   37 type  2   force =    -0.00003915   -0.00002009   -0.00542980
     atom   38 type  2   force =     0.00054829    0.00014094   -0.00472629
     atom   39 type  2   force =     0.00000554   -0.00021277   -0.00524493
     atom   40 type  2   force =     0.00015512   -0.00054121   -0.00472611
     atom   41 type  2   force =     0.00018895    0.00010508   -0.00524330
     atom   42 type  2   force =    -0.00039385    0.00040784   -0.00472680
     atom   43 type  2   force =     0.00018272    0.00011570   -0.00524449
     atom   44 type  2   force =    -0.00000032    0.00005620   -0.00548799
     atom   45 type  2   force =    -0.00000022   -0.00007746   -0.00533975
     atom   46 type  2   force =     0.00004590   -0.00002402   -0.00548798
     atom   47 type  2   force =    -0.00006938    0.00004203   -0.00533923
     atom   48 type  2   force =    -0.00000044   -0.00040954   -0.00495651
     atom   49 type  2   force =    -0.00000041    0.00004703   -0.00542337
     atom   50 type  2   force =     0.00031315    0.00018224   -0.00528432
     atom   51 type  2   force =     0.00026864    0.00015795   -0.00531050
     atom   52 type  2   force =    -0.00035703    0.00020787   -0.00495616
     atom   53 type  2   force =     0.00003805   -0.00001991   -0.00542723
     atom   54 type  2   force =    -0.00004716   -0.00002433   -0.00548708
     atom   55 type  2   force =     0.00006861    0.00004186   -0.00533807
     atom   56 type  2   force =    -0.00015604   -0.00054172   -0.00472869
     atom   57 type  2   force =    -0.00019017    0.00010493   -0.00524223
     atom   58 type  2   force =    -0.00031336    0.00018193   -0.00528476
     atom   59 type  2   force =    -0.00026948    0.00015757   -0.00531026
     atom   60 type  2   force =    -0.00000028   -0.00036308   -0.00528661
     atom   61 type  2   force =    -0.00000070   -0.00030849   -0.00531168
     atom   62 type  2   force =    -0.00054961    0.00013994   -0.00472783
     atom   63 type  2   force =    -0.00000701   -0.00021303   -0.00524380
[...]
              0.220425361487302E+03
              0.100135689644887E+03
              0.162943873841200E+03
             -0.900491437979349E+01
              0.500694742619453E+03
              0.839414507932856E+02
             -0.772640863794095E+02
              0.910041015555134E+01
             -0.508128084934945E+02
              0.411246760558180E+03
             -0.236709406965138E+02
              0.885390751284430E+02
              0.296557548800451E+03
              0.650186744227681E+02
             -0.233948116431949E+03
             -0.341105350861982E+03
              0.349033211772439E+01
             -0.383641000453241E+03
              0.130235903171370E+03
             -0.776027928267038E+02
             -0.180357884075213E+03
              0.162021520226515E+03
              0.620911154098562E+02
              0.146121056408422E+03
              0.129463807096092E+02
              0.232844792719571E+03
             -0.380385646257252E+03
             -0.349108625281510E+02
             -0.331852878963113E+03
              0.597986240183868E+02
              0.179713984073033E+03
             -0.333274433485067E+02
             -0.124998701826230E+03
              0.267374961517157E+03
             -0.123807804706977E+03
              0.871229522883498E+02
             -0.776193148653865E+02
              0.190842229688201E+03
              0.230475384191425E+03
             -0.994404635133214E+02
              0.198122079784697E+03
              0.760814839393629E+02
             -0.204386417093982E+03
             -0.122297765996055E+03
              0.329713660031021E+03
              0.156324332521239E+03
             -0.150960028905292E+02
             -0.445138041418300E+02
              0.484593749112117E+03
              0.290656405930577E+03
              0.106493980114869E+03
             -0.310749998949969E+03
              0.486421442341401E+03
             -0.220015481160844E+03
             -0.272754620208036E+03
             -0.422510612463139E+03
              0.203616479844733E+03
             -0.386508611153249E+03
              0.167528453118220E+03
              0.275224177888084E+03
              0.203870098883987E+03
              0.432982703950946E+02
              0.121687331548372E+03
             -0.304587253871501E+03
             -0.108224167736469E+03
             -0.984103120447880E+02
              0.147226355158834E+03
              0.328603745086981E+03
              0.323901659697323E+03
              0.248026863174493E+03
             -0.612936464969584E+02
              0.880747463847838E+02
              0.123314520974459E+02
             -0.973732546121551E+02
              0.145252928677155E+03
              0.139183145631817E+03
             -0.198392827411277E+03
             -0.200847889394993E+03
             -0.921264370707947E+02
              0.213403688835823E+03
              0.108515988095507E+03
             -0.145216403488395E+03
             -0.253163364369932E+03
             -0.347776965684395E+03
              0.722451270211042E+01
              0.990011717306911E+02
             -0.134564519074569E+03
              0.494022612738853E+03
              0.470943284074929E+01
             -0.573985219077055E+03
              0.143943694125478E+03
              0.236897014193058E+03
             -0.859850718603011E+02
              0.904303511661908E+01
             -0.129826215540666E+03
              0.220411200946441E+03
              0.108645095512038E+03
             -0.289998789370111E+03
              0.344359182695938E+03
              0.235541439006657E+02
             -0.137589948074004E+03
             -0.169492181138715E+03
              0.690344709604240E+03
              0.308682977822164E+03
             -0.774028491365393E+02
              0.170166386083962E+03
             -0.336349208876074E+03
             -0.730249701855701E+02
             -0.298976622192148E+03
              0.115455050184097E+03
              0.214609485596190E+03
              0.236101887110191E+03
             -0.103482339095836E+03
              0.179374751730484E+02
              0.294118189355550E+03
              0.940633453288397E+02
              0.175413726412472E+03
              0.713838782924465E+02
             -0.394834912055837E+02
              0.712703113329667E+00
             -0.546359345681587E+02
              0.609069191943140E+02
              0.205350663217437E+02
             -0.267129933195147E+03
              0.409427392536393E+03
              0.157634689026354E+03
             -0.290045041672601E+03
             -0.213205590710643E+03
             -0.300910903785985E+03
             -0.130343477588211E+03
             -0.945550288618501E+02
             -0.237940222048066E+03
             -0.234962561355026E+03
              0.282930878028752E+03
              0.225146426409403E+03
             -0.311801560222407E+02
              0.337889679650704E+03
              0.486073647141875E+02
             -0.543198455406075E+03
              0.291664507549875E+03
              0.497834650701745E+02
              0.229067795787807E+03
              0.309498410345234E+02
              0.259568273932854E+02
              0.467146423175982E+02
              0.123828053586279E+03
             -0.226583087797996E+03
             -0.106917355481522E+03
             -0.214432537536125E+03
             -0.177262889721037E+03
              0.739525672101115E+02
             -0.196847361170268E+03
              0.947684444998954E+02
              0.130139763461304E+03
             -0.120659216847662E+03
             -0.770600169331258E+02
              0.513638923681651E+01
              0.337713228628759E+03
              0.509860464012991E+02
              0.324208002282499E+03
              0.116288801659391E+03
             -0.428447171077589E+03
             -0.142097746544624E+03
              0.146121367967024E+03
              0.337168432248368E+03
              0.556444742253598E+02
              0.138613577569934E+03
              0.310266258659820E+03
             -0.179660885624790E+03
             -0.275921385286609E+03
              0.382463834006602E+03
              0.223091642099548E+02
             -0.404213246954994E+03
              0.147775025226324E+03
              0.255827852024090E+03
             -0.654569606454684E+02
             -0.266447026624026E+03
              0.554427240440270E+02
              0.115779742760633E+02
             -0.129443766831413E+03
              0.495265724704677E+02
             -0.430726038090608E+02
              0.601345157153523E+03
              0.175050258331448E+03
             -0.254688452483034E+03
              0.751564898172146E+02
              0.366149635791193E+03
             -0.247558391610183E+03
             -0.646043960351728E+02
             -0.234180847483547E+03
              0.187686644742806E+03
              0.592660842729313E+02
              0.124093922240129E+03
              0.224657413936825E+02
              0.425267909155467E+03
             -0.242095364423145E+03
             -0.191041003823365E+03
             -0.184415120975181E+03
              0.162096351233831E+03
              0.422595542136406E+03
             -0.706346018190375E+02
              0.172880576770007E+03
             -0.245573031777952E+03
              0.471723248740243E+02
             -0.785557635179240E+02
              0.172933973913334E+02
             -0.953042093095369E+02
             -0.776214579459157E+02
             -0.763369931476711E+02
              0.627655893171523E+02
              0.122640860290914E+03
             -0.267952231874350E+03
              0.198374339599676E+03
             -0.319251726853510E+03
              0.240752669432010E+03
             -0.254534338611506E+03
              0.412755666946193E+03
              0.226763825298305E+03
              0.261027925877189E+03
              0.648522155013579E+02
              0.761484673397531E+02
             -0.570246938195484E+03
              0.922977025460882E+02
              0.208491295049530E+02
              0.542766690651351E+02
             -0.930592373548634E+02
              0.440811095779901E+03
             -0.102347096809814E+03
             -0.182173180352351E+03
             -0.426447717874226E+03
             -0.147996537912241E+03
             -0.204635496568119E+03
             -0.178010055806466E+03
             -0.400689711855971E+02
             -0.973879519133966E+02
             -0.123974604396710E+03
             -0.189878450101935E+03
              0.145260962591212E+03
              0.458118186214906E+03
              0.386993496380358E+03
             -0.686955659607802E+02
             -0.465168452271029E+03
             -0.198374670197983E+03
              0.951061124908688E+02
              0.952375101480294E+02
              0.152041718393892E+03
              0.106891205366052E+03
              0.188454788020335E+02
              0.454395365615583E+03
             -0.110422634141879E+03
              0.223312632611720E+03
              0.115002291812658E+03
             -0.154866567169637E+03
             -0.742279443959742E+02
              0.205873038897548E+03
             -0.110037411939044E+03
             -0.676103542031357E+02
             -0.500874172762785E+02
              0.265131487580118E+03
             -0.348805266460763E+03
             -0.281632112962420E+02
             -0.269187511073827E+03
             -0.571858009923840E+03
             -0.159765272549498E+01
             -0.844471455672692E+02
              0.222299759814037E+03
              0.246998525073061E+03
              0.337902284892109E+03
             -0.219721969220273E+03
              0.341739222046396E+03
              0.854213235681940E+02
             -0.126920059190709E+03
              0.456054746487559E+02
             -0.107806818474734E+03
             -0.637068815073908E+02
              0.197446033838427E+03
             -0.163513628064738E+03
              0.438512528387651E+03
             -0.116881987959336E+03
             -0.242482624329299E+03
              0.458587926963918E+03
             -0.248234552215932E+03
             -0.199778995681859E+02
              0.240373940963284E+02
              0.132209888301330E+03
             -0.193664349601128E+03
             -0.147578309824392E+03
              0.235479290991123E+03
             -0.354436313171764E+03
              0.292187078761505E+03
              0.432020801426159E+02
              0.209404179415045E+03
              0.303303464013207E+03
              0.777561689065409E+02
             -0.421614435364020E+03
             -0.182442926265545E+03
             -0.304451926227085E+03
             -0.181018591559091E+03
             -0.482873148865151E+02
              0.653486146425130E+02
             -0.141864023327779E+03
             -0.242150230750849E+01
             -0.423230208029374E+03
              0.235660354169138E+02
             -0.272969082373446E+03
              0.264520751278216E+03
             -0.154923344741975E+03
             -0.374512450590328E+02
              0.199764836411369E+03
              0.395471787892600E+02
              0.185608411850245E+03
             -0.353911206666520E+03
              0.587259752386872E+02
              0.242028979458910E+02
              0.152356420364837E+03
              0.244262183906417E+03
             -0.451060734789266E+02
             -0.277952402735150E+03
             -0.160927491344069E+03
             -0.113353637062841E+03
             -0.333321278114272E+02
              0.259196866421693E+03
              0.168327831139100E+03
             -0.170414240898739E+03
             -0.159984607123378E+03
              0.117482369799679E+03
              0.127940810818279E+03
             -0.345647124781568E+03
              0.805327960776327E+02
              0.247727708928242E+03
             -0.110974597162715E+02
              0.312349171366055E+03
              0.144146122159093E+03
              0.245588933802721E+03
              0.373484533144906E+03
              0.561266668643628E+02
             -0.508794804176129E+03
              0.701835036021444E+02
              0.550155537118429E+03
              0.399868108614601E+03
             -0.275710220892658E+03
              0.248849297723381E+02
              0.357891774348243E+03
              0.310016340950357E+03
              0.136307716528289E+03
             -0.825215320206121E+02
              0.136959281335450E+03
              0.283512496366318E+03
             -0.131076181176443E+03
             -0.844262420241661E+02
              0.192021978849111E+03
             -0.115341007555789E+02
              0.172498511057584E+03
             -0.531628585763108E+02
              0.359576799432617E+03
             -0.137012841491406E+03
              0.824990483915790E+02
             -0.152295334767661E+03
              0.177926570977685E+03
             -0.241173705223919E+02
              0.265164694952119E+03
              0.188957868147830E+02
              0.118746963662062E+03
             -0.168674946484973E+03
             -0.117865997816720E+03
             -0.601630038873172E+02
             -0.547624192657169E+02
              0.288808887657133E+03
              0.142151766910617E+03
              0.350330213338230E+03
              0.323218234396445E+03
              0.906758986401346E+02
              0.161801573616342E+02
              0.344535934771489E+03
              0.193648637820330E+03
              0.478814053185488E+00
              0.335682812936188E+03
             -0.275442487145132E+03
              0.965916888399975E+02
             -0.179508892919816E+03
             -0.486396251839440E+02
              0.463971917291061E+03
             -0.649445125791981E+02
             -0.194293472289332E+02
             -0.504539644453871E+02
              0.381201244778396E+03
             -0.818288872034336E+02
             -0.701416586833011E+01
              0.768989546009039E+03
             -0.227578087897067E+03
             -0.284154292080883E+03
             -0.284384807113187E+03
             -0.181597819446521E+03
              0.165726456200366E+03
             -0.743238371619000E+02
              0.421473621292935E+02
             -0.192061526402031E+02
              0.975809608993175E+02
              0.156465440399343E+03
              0.182320743472914E+03
              0.262624622797297E+03
              0.168142615060744E+03
              0.171467141386478E+03
             -0.317370858892285E+03
             -0.327720086677616E+03
             -0.739068378779679E+02
             -0.292927841692595E+03
              0.465117886981981E+03
              0.391718542705519E+03
              0.184781984056862E+03
              0.509317778508886E+03
             -0.254432066298429E+03
             -0.109683124899609E+03
             -0.158093894222043E+03
              0.440699654136094E+03
 
 BEEF-vdW xc energy contributions
            1 :    -3983.343141473908     
            2 :     3649.814081571500     
            3 :    -3081.181161842800     
            4 :     2429.202070678691     
            5 :    -1836.803879418361     
            6 :     1391.841162813369     
            7 :    -1112.635645009278     
            8 :     961.3743279778364     
            9 :    -872.7678781248469     
           10 :     785.4540131555977     
           11 :    -665.3195262405288     
           12 :     512.7798930984777     
           13 :    -352.9795390801610     
           14 :     216.5567340209091     
           15 :    -122.5161671767037     
           16 :     71.10221130576701     
           17 :    -47.35888503024944     
           18 :     30.91929443518347     
           19 :    -6.343286950866059     
           20 :    -30.50692229690139     
           21 :     72.43546323216560     
           22 :    -106.7449572169126     
           23 :     123.4884309017061     
           24 :    -121.4136080409789     
           25 :     108.4564627622931     
           26 :    -97.04493195146006     
           27 :     97.28758181781359     
           28 :    -111.8004638055863     
           29 :     134.6594244303915     
           30 :    -154.7833135650171     
           31 :    -343.5182130653830     
           32 :    -247.2216872440595     

     Writing all to output data dir ./PbI2.save/
 
     init_run     :     11.15s CPU     18.56s WALL (       1 calls)
     electrons    :    220.73s CPU    233.74s WALL (       1 calls)
     forces       :      8.60s CPU      8.93s WALL (       1 calls)
     stress       :    110.30s CPU    112.92s WALL (       1 calls)

     Called by init_run:
     wfcinit      :      6.30s CPU     13.18s WALL (       1 calls)
     potinit      :      1.34s CPU      1.56s WALL (       1 calls)
     hinit0       :      1.08s CPU      1.20s WALL (       1 calls)

     Called by electrons:
     c_bands      :    210.90s CPU    223.08s WALL (       2 calls)
     sum_band     :      6.29s CPU      6.59s WALL (       2 calls)
     v_of_rho     :      1.65s CPU      1.77s WALL (       2 calls)
     v_h          :      0.02s CPU      0.02s WALL (       2 calls)
     v_xc         :     26.18s CPU     28.20s WALL (      38 calls)
     newd         :      0.59s CPU      0.82s WALL (       2 calls)
     PAW_pot      :      0.57s CPU      0.58s WALL (       2 calls)
     mix_rho      :      0.00s CPU      0.00s WALL (       2 calls)
     vdW_kernel   :      0.25s CPU      0.26s WALL (       1 calls)

     Called by c_bands:
     init_us_2    :      0.15s CPU      0.16s WALL (       4 calls)
     init_us_2:cp :      0.15s CPU      0.16s WALL (       4 calls)
     cegterg      :    209.61s CPU    220.51s WALL (       2 calls)

     Called by sum_band:
     sum_band:wei :      0.00s CPU      0.00s WALL (       2 calls)
     sum_band:loo :      5.53s CPU      5.58s WALL (       2 calls)
     sum_band:buf :      0.00s CPU      0.00s WALL (       2 calls)
     sum_band:ini :      0.14s CPU      0.14s WALL (       2 calls)
     sum_band:cal :      2.41s CPU      2.43s WALL (       2 calls)
     sum_band:bec :      0.03s CPU      0.04s WALL (       2 calls)
     addusdens    :      0.66s CPU      0.90s WALL (       2 calls)
     addusd:skk   :      0.07s CPU      0.07s WALL (       4 calls)
     addusd:dgemm :      0.35s CPU      0.59s WALL (       4 calls)
     addusd:qvan2 :      0.23s CPU      0.23s WALL (       4 calls)

     Called by *egterg:
     cdiaghg      :    158.98s CPU    167.85s WALL (      22 calls)
     cegterg:over :      8.62s CPU      8.89s WALL (      22 calls)
     cegterg:upda :      4.50s CPU      4.62s WALL (      22 calls)
     cegterg:last :      2.57s CPU      2.59s WALL (       2 calls)
     h_psi        :     24.99s CPU     25.34s WALL (      24 calls)
     s_psi        :      5.30s CPU      5.35s WALL (      24 calls)
     g_psi        :      0.03s CPU      0.03s WALL (      22 calls)

     Called by h_psi:
     h_psi:calbec :      5.99s CPU      6.03s WALL (      24 calls)
     vloc_psi     :     13.59s CPU     13.72s WALL (      24 calls)
     add_vuspsi   :      5.28s CPU      5.35s WALL (      24 calls)

     General routines
     calbec       :     14.46s CPU     14.57s WALL (      31 calls)
     fft          :     15.89s CPU     16.09s WALL (    2232 calls)
     ffts         :      0.03s CPU      0.03s WALL (       4 calls)
     fftw         :     15.57s CPU     15.72s WALL (    9998 calls)
     interpolate  :      0.03s CPU      0.04s WALL (       2 calls)
 
     Parallel routines

     PAW routines
     PAW_pot      :      0.57s CPU      0.58s WALL (       2 calls)
 
     PWSCF        :   6m20.16s CPU   6m52.57s WALL

 
   This run was terminated on:   8:13:12   3Mar2024            

=------------------------------------------------------------------------------=
   JOB DONE.
=------------------------------------------------------------------------------=
