
     Program PWSCF v.7.1 starts on  3Mar2024 at  7:53:45 

     This program is part of the open-source Quantum ESPRESSO suite
     for quantum simulation of materials; please cite
         "P. Giannozzi et al., J. Phys.:Condens. Matter 21 395502 (2009);
         "P. Giannozzi et al., J. Phys.:Condens. Matter 29 465901 (2017);
         "P. Giannozzi et al., J. Chem. Phys. 152 154105 (2020);
          URL http://www.quantum-espresso.org", 
     in publications or presentations arising from this work. More details at
     http://www.quantum-espresso.org/quote

     Parallel version (MPI & OpenMP), running on     256 processor cores
     Number of MPI processes:               256
     Threads/MPI process:                     1

     MPI processes distributed on     2 nodes
     1923046 MiB available memory on the printing compute node when the environment starts
 
     Reading input from espresso.pwi
Warning: card &CELL ignored
Warning: card    CELL_DYNAMICS    = 'BFGS' ignored
Warning: card / ignored

     Current dimensions of program PWSCF are:
     Max number of different atomic species (ntypx) = 10
     Max number of k-points (npk) =  40000
     Max angular momentum in pseudopotentials (lmaxx) =  4
     file Ga.pbe-dn-kjpaw_psl.1.0.0.UPF: wavefunction(s)  4S renormalized
     file N.pbe-n-kjpaw_psl.1.0.0.UPF: wavefunction(s)  2S renormalized

     **************************************************************************
     Initializing libbeef V0.1.2 with the BEEF-vdW functional.
     Citation: Wellendorff et al., PRB 85, 235149 (2012).
     **************************************************************************


     IMPORTANT: XC functional enforced from input :
     Exchange-correlation= BEEF-VDW
                           (   1   4  43  14   2   0   0)
     Any further DFT definition will be discarded
     Please, verify this is what you really want

 
     K-points division:     npool     =       4
     R & G space division:  proc/nbgrp/npool/nimage =      64
     Subspace diagonalization in iterative solution of the eigenvalue problem:
     a serial algorithm will be used

 
     Parallelization info
     --------------------
     sticks:   dense  smooth     PW     G-vecs:    dense   smooth      PW
     Min         226     181     47                26979    19303    2571
     Max         228     182     48                26983    19308    2576
     Sum       14527   11629   3037              1726709  1235535  164709
 
     Using Slab Decomposition
 


     bravais-lattice index     =            4
     lattice parameter (alat)  =      24.5252  a.u.
     unit-cell volume          =   15616.6055 (a.u.)^3
     number of atoms/cell      =          192
     number of atomic types    =            2
     number of electrons       =      1720.00
     number of Kohn-Sham states=         1032
     kinetic-energy cutoff     =      70.0000  Ry
     charge density cutoff     =     350.0000  Ry
     scf convergence threshold =      1.0E-07
     mixing beta               =       0.7000
     number of iterations used =            8  plain     mixing
     Exchange-correlation= BEEF-VDW
                           (   1   4  43  14   2   0   0)

     celldm(1)=  24.525232  celldm(2)=   0.000000  celldm(3)=   1.222409
     celldm(4)=   0.000000  celldm(5)=   0.000000  celldm(6)=   0.000000

     crystal axes: (cart. coord. in units of alat)
               a(1) = (   1.000000   0.000000   0.000000 )  
               a(2) = (  -0.500000   0.866025   0.000000 )  
               a(3) = (   0.000000   0.000000   1.222409 )  

     reciprocal axes: (cart. coord. in units 2 pi/alat)
               b(1) = (  1.000000  0.577350 -0.000000 )  
               b(2) = (  0.000000  1.154701  0.000000 )  
               b(3) = (  0.000000 -0.000000  0.818057 )  


     PseudoPot. # 1 for Ga read from file:
     //group///packages/espresso/pseudo/psl_1.0.0/pslibrary.1.0.0/pbe/PSEUDOPOTENTIALS/Ga.pbe-dn-kjpaw_psl.1.0.0.UPF
     MD5 check sum: cd2a01e492f15b435d17032472d8505c
     Pseudo is Projector augmented-wave + core cor, Zval = 13.0
     Generated using 'atomic' code by A. Dal Corso  v.7.1
     Shape of augmentation charge: PSQ
     Using radial grid of 1205 points,  6 beta functions with: 
                l(1) =   0
                l(2) =   0
                l(3) =   1
                l(4) =   1
                l(5) =   2
                l(6) =   2
     Q(r) pseudized with 0 coefficients 


     PseudoPot. # 2 for N  read from file:
     //group///packages/espresso/pseudo/psl_1.0.0/pslibrary.1.0.0/pbe/PSEUDOPOTENTIALS/N.pbe-n-kjpaw_psl.1.0.0.UPF
     MD5 check sum: f77f775694dac7e2c3fe1c82443d1a16
     Pseudo is Projector augmented-wave + core cor, Zval =  5.0
     Generated using 'atomic' code by A. Dal Corso  v.7.1
     Shape of augmentation charge: PSQ
     Using radial grid of 1085 points,  4 beta functions with: 
                l(1) =   0
                l(2) =   0
                l(3) =   1
                l(4) =   1
     Q(r) pseudized with 0 coefficients 


     atomic species   valence    mass     pseudopotential
        Ga            13.00    69.72300     Ga( 1.00)
        N              5.00    14.00700     N ( 1.00)

      6 Sym. Ops. (no inversion) found ( 4 have fractional translation)


                                    s                        frac. trans.

      isym =  1     identity                                     

 cryst.   s( 1) = (     1          0          0      )
                  (     0          1          0      )
                  (     0          0          1      )

 cart.    s( 1) = (  1.0000000  0.0000000  0.0000000 )
                  (  0.0000000  1.0000000  0.0000000 )
                  (  0.0000000  0.0000000  1.0000000 )


      isym =  2     120 deg rotation - cryst. axis [0,0,1]       

 cryst.   s( 2) = (     0          1          0      )    f =( -0.2500000 )
                  (    -1         -1          0      )       (  0.0000002 )
                  (     0          0          1      )       (  0.0000000 )

 cart.    s( 2) = ( -0.5000000 -0.8660254  0.0000000 )    f =( -0.2500001 )
                  (  0.8660254 -0.5000000  0.0000000 )       (  0.0000002 )
                  (  0.0000000  0.0000000  1.0000000 )       (  0.0000000 )


      isym =  3     120 deg rotation - cryst. axis [0,0,-1]      

 cryst.   s( 3) = (    -1         -1          0      )    f =( -0.2500002 )
                  (     1          0          0      )       ( -0.2500000 )
                  (     0          0          1      )       (  0.0000000 )

 cart.    s( 3) = ( -0.5000000  0.8660254  0.0000000 )    f =( -0.1250002 )
                  ( -0.8660254 -0.5000000  0.0000000 )       ( -0.2165064 )
                  (  0.0000000  0.0000000  1.0000000 )       (  0.0000000 )


      isym =  4     inv. 180 deg rotation - cart. axis [1,0,0]   

 cryst.   s( 4) = (    -1          0          0      )    f =( -0.2500002 )
                  (     1          1          0      )       (  0.0000000 )
                  (     0          0          1      )       (  0.0000000 )

 cart.    s( 4) = ( -1.0000000  0.0000000  0.0000000 )    f =( -0.2500002 )
                  (  0.0000000  1.0000000  0.0000000 )       (  0.0000000 )
                  (  0.0000000  0.0000000  1.0000000 )       (  0.0000000 )


      isym =  5     inv. 180 deg rotation - cryst. axis [0,1,0]  

 cryst.   s( 5) = (     1          1          0      )
                  (     0         -1          0      )
                  (     0          0          1      )

 cart.    s( 5) = (  0.5000000  0.8660254  0.0000000 )
                  (  0.8660254 -0.5000000  0.0000000 )
                  (  0.0000000  0.0000000  1.0000000 )


      isym =  6     inv. 180 deg rotation - cryst. axis [1,1,0]  

 cryst.   s( 6) = (     0         -1          0      )    f =( -0.2500000 )
                  (    -1          0          0      )       ( -0.2500000 )
                  (     0          0          1      )       (  0.0000000 )

 cart.    s( 6) = (  0.5000000 -0.8660254  0.0000000 )    f =( -0.1250000 )
                  ( -0.8660254 -0.5000000  0.0000000 )       ( -0.2165064 )
                  (  0.0000000  0.0000000  1.0000000 )       (  0.0000000 )


     point group C_3v (3m)  
     there are  3 classes
     the character table:

       E     2C3   3s_v 
A_1    1.00  1.00  1.00
A_2    1.00  1.00 -1.00
E      2.00 -1.00  0.00

     the symmetry operations in each class and the name of the first element:

     E        1
          identity                                               
     2C3      2    3
          120 deg rotation - cryst. axis [0,0,1]                 
     3s_v     4    5    6
          inv. 180 deg rotation - cart. axis [1,0,0]             

   Cartesian axes

     site n.     atom                  positions (alat units)
         1           Ga  tau(   1) = (   0.1250001   0.0721687   0.6108633  )
         2           Ga  tau(   2) = (   0.1250001   0.0721687   1.0183331  )
         3           Ga  tau(   3) = (   0.0000001   0.2886751   0.2033935  )
         4           Ga  tau(   4) = (   0.0000001   0.2886751   0.6108633  )
         5           Ga  tau(   5) = (   0.0000001   0.2886751   1.0183331  )
         6           Ga  tau(   6) = (  -0.1249999   0.5051814   0.2033935  )
         7           Ga  tau(   7) = (  -0.1249999   0.5051814   0.6108633  )
         8           Ga  tau(   8) = (  -0.1249999   0.5051814   1.0183331  )
         9           Ga  tau(   9) = (  -0.2499999   0.7216878   0.2033935  )
        10           Ga  tau(  10) = (  -0.2499999   0.7216878   0.6108633  )
        11           Ga  tau(  11) = (  -0.2499999   0.7216878   1.0183331  )
        12           Ga  tau(  12) = (   0.3750001   0.0721687   0.2033935  )
        13           Ga  tau(  13) = (   0.3750001   0.0721687   0.6108633  )
        14           Ga  tau(  14) = (   0.3750001   0.0721687   1.0183331  )
        15           Ga  tau(  15) = (   0.2500001   0.2886751   0.2033935  )
        16           Ga  tau(  16) = (   0.2500001   0.2886751   0.6108633  )
        17           Ga  tau(  17) = (   0.2500001   0.2886751   1.0183331  )
        18           Ga  tau(  18) = (   0.1250001   0.5051814   0.2033935  )
        19           Ga  tau(  19) = (   0.1250001   0.5051814   0.6108633  )
        20           Ga  tau(  20) = (   0.1250001   0.5051814   1.0183331  )
        21           Ga  tau(  21) = (   0.0000001   0.7216878   0.2033935  )
        22           Ga  tau(  22) = (   0.0000001   0.7216878   0.6108633  )
        23           Ga  tau(  23) = (   0.0000001   0.7216878   1.0183331  )
        24           Ga  tau(  24) = (   0.6250001   0.0721687   0.2033935  )
        25           Ga  tau(  25) = (   0.6250001   0.0721687   0.6108633  )
        26           Ga  tau(  26) = (   0.6250001   0.0721687   1.0183331  )
        27           Ga  tau(  27) = (   0.5000001   0.2886751   0.2033935  )
        28           Ga  tau(  28) = (   0.5000001   0.2886751   0.6108633  )
        29           Ga  tau(  29) = (   0.5000001   0.2886751   1.0183331  )
        30           Ga  tau(  30) = (   0.3750001   0.5051814   0.2033935  )
        31           Ga  tau(  31) = (   0.3750001   0.5051814   0.6108633  )
        32           Ga  tau(  32) = (   0.3750001   0.5051814   1.0183331  )
        33           Ga  tau(  33) = (   0.2500001   0.7216878   0.2033935  )
        34           Ga  tau(  34) = (   0.2500001   0.7216878   0.6108633  )
        35           Ga  tau(  35) = (   0.2500001   0.7216878   1.0183331  )
        36           Ga  tau(  36) = (   0.8750001   0.0721687   0.2033935  )
        37           Ga  tau(  37) = (   0.8750001   0.0721687   0.6108633  )
        38           Ga  tau(  38) = (   0.8750001   0.0721687   1.0183331  )
        39           Ga  tau(  39) = (   0.7500001   0.2886751   0.2033935  )
        40           Ga  tau(  40) = (   0.7500001   0.2886751   0.6108633  )
        41           Ga  tau(  41) = (   0.7500001   0.2886751   1.0183331  )
        42           Ga  tau(  42) = (   0.6250001   0.5051814   0.2033935  )
        43           Ga  tau(  43) = (   0.6250001   0.5051814   0.6108633  )
        44           Ga  tau(  44) = (   0.6250001   0.5051814   1.0183331  )
        45           Ga  tau(  45) = (   0.5000001   0.7216878   0.2033935  )
        46           Ga  tau(  46) = (   0.5000001   0.7216878   0.6108633  )
        47           Ga  tau(  47) = (   0.5000001   0.7216878   1.0183331  )
        48           Ga  tau(  48) = (  -0.0000002   0.1443377   0.4071284  )
        49           Ga  tau(  49) = (  -0.0000002   0.1443377   0.8145982  )
        50           Ga  tau(  50) = (  -0.0000002   0.1443377   1.2220680  )
        51           Ga  tau(  51) = (  -0.1250002   0.3608440   0.4071284  )
        52           Ga  tau(  52) = (  -0.1250002   0.3608440   0.8145982  )
        53           Ga  tau(  53) = (  -0.1250002   0.3608440   1.2220680  )
        54           Ga  tau(  54) = (  -0.2500002   0.5773504   0.4071284  )
        55           Ga  tau(  55) = (  -0.2500002   0.5773504   0.8145982  )
        56           Ga  tau(  56) = (  -0.2500002   0.5773504   1.2220680  )
        57           Ga  tau(  57) = (  -0.3750001   0.7938567   0.4071284  )
        58           Ga  tau(  58) = (  -0.3750001   0.7938567   0.8145982  )
        59           Ga  tau(  59) = (  -0.3750001   0.7938567   1.2220680  )
        60           Ga  tau(  60) = (   0.2499998   0.1443377   0.4071284  )
        61           Ga  tau(  61) = (   0.2499998   0.1443377   0.8145982  )
        62           Ga  tau(  62) = (   0.2499998   0.1443377   1.2220680  )
        63           Ga  tau(  63) = (   0.1249998   0.3608440   0.4071284  )
        64           Ga  tau(  64) = (   0.1249998   0.3608440   0.8145982  )
        65           Ga  tau(  65) = (   0.1249998   0.3608440   1.2220680  )
        66           Ga  tau(  66) = (  -0.0000002   0.5773504   0.4071284  )
        67           Ga  tau(  67) = (  -0.0000002   0.5773504   0.8145982  )
        68           Ga  tau(  68) = (  -0.0000002   0.5773504   1.2220680  )
        69           Ga  tau(  69) = (  -0.1250002   0.7938567   0.4071284  )
        70           Ga  tau(  70) = (  -0.1250002   0.7938567   0.8145982  )
        71           Ga  tau(  71) = (  -0.1250002   0.7938567   1.2220680  )
        72           Ga  tau(  72) = (   0.4999998   0.1443377   0.4071284  )
        73           Ga  tau(  73) = (   0.4999998   0.1443377   0.8145982  )
        74           Ga  tau(  74) = (   0.4999998   0.1443377   1.2220680  )
        75           Ga  tau(  75) = (   0.3749998   0.3608440   0.4071284  )
        76           Ga  tau(  76) = (   0.3749998   0.3608440   0.8145982  )
        77           Ga  tau(  77) = (   0.3749998   0.3608440   1.2220680  )
        78           Ga  tau(  78) = (   0.2499998   0.5773504   0.4071284  )
        79           Ga  tau(  79) = (   0.2499998   0.5773504   0.8145982  )
        80           Ga  tau(  80) = (   0.2499998   0.5773504   1.2220680  )
        81           Ga  tau(  81) = (   0.1249998   0.7938567   0.4071284  )
        82           Ga  tau(  82) = (   0.1249998   0.7938567   0.8145982  )
        83           Ga  tau(  83) = (   0.1249998   0.7938567   1.2220680  )
        84           Ga  tau(  84) = (   0.7499998   0.1443377   0.4071284  )
        85           Ga  tau(  85) = (   0.7499998   0.1443377   0.8145982  )
        86           Ga  tau(  86) = (   0.7499998   0.1443377   1.2220680  )
        87           Ga  tau(  87) = (   0.6249998   0.3608440   0.4071284  )
        88           Ga  tau(  88) = (   0.6249998   0.3608440   0.8145982  )
        89           Ga  tau(  89) = (   0.6249998   0.3608440   1.2220680  )
        90           Ga  tau(  90) = (   0.4999998   0.5773504   0.4071284  )
        91           Ga  tau(  91) = (   0.4999998   0.5773504   0.8145982  )
        92           Ga  tau(  92) = (   0.4999998   0.5773504   1.2220680  )
        93           Ga  tau(  93) = (   0.3749998   0.7938567   0.4071284  )
        94           Ga  tau(  94) = (   0.3749998   0.7938567   0.8145982  )
        95           Ga  tau(  95) = (   0.3749998   0.7938567   1.2220680  )
        96           N   tau(  96) = (   0.1250001   0.0721687   0.3568774  )
        97           N   tau(  97) = (   0.1250001   0.0721687   0.7643472  )
        98           N   tau(  98) = (   0.1250001   0.0721687   1.1718169  )
        99           N   tau(  99) = (   0.0000001   0.2886751   0.3568774  )
       100           N   tau( 100) = (   0.0000001   0.2886751   0.7643472  )
       101           N   tau( 101) = (   0.0000001   0.2886751   1.1718169  )
       102           N   tau( 102) = (  -0.1249999   0.5051814   0.3568774  )
       103           N   tau( 103) = (  -0.1249999   0.5051814   0.7643472  )
       104           N   tau( 104) = (  -0.1249999   0.5051814   1.1718169  )
       105           N   tau( 105) = (  -0.2499999   0.7216878   0.3568774  )
       106           N   tau( 106) = (  -0.2499999   0.7216878   0.7643472  )
       107           N   tau( 107) = (  -0.2499999   0.7216878   1.1718169  )
       108           N   tau( 108) = (   0.3750001   0.0721687   0.3568774  )
       109           N   tau( 109) = (   0.3750001   0.0721687   0.7643472  )
       110           N   tau( 110) = (   0.3750001   0.0721687   1.1718169  )
       111           N   tau( 111) = (   0.2500001   0.2886751   0.3568774  )
       112           N   tau( 112) = (   0.2500001   0.2886751   0.7643472  )
       113           N   tau( 113) = (   0.2500001   0.2886751   1.1718169  )
       114           N   tau( 114) = (   0.1250001   0.5051814   0.3568774  )
       115           N   tau( 115) = (   0.1250001   0.5051814   0.7643472  )
       116           N   tau( 116) = (   0.1250001   0.5051814   1.1718169  )
       117           N   tau( 117) = (   0.0000001   0.7216878   0.3568774  )
       118           N   tau( 118) = (   0.0000001   0.7216878   0.7643472  )
       119           N   tau( 119) = (   0.0000001   0.7216878   1.1718169  )
       120           N   tau( 120) = (   0.6250001   0.0721687   0.3568774  )
       121           N   tau( 121) = (   0.6250001   0.0721687   0.7643472  )
       122           N   tau( 122) = (   0.6250001   0.0721687   1.1718169  )
       123           N   tau( 123) = (   0.5000001   0.2886751   0.3568774  )
       124           N   tau( 124) = (   0.5000001   0.2886751   0.7643472  )
       125           N   tau( 125) = (   0.5000001   0.2886751   1.1718169  )
       126           N   tau( 126) = (   0.3750001   0.5051814   0.3568774  )
       127           N   tau( 127) = (   0.3750001   0.5051814   0.7643472  )
       128           N   tau( 128) = (   0.3750001   0.5051814   1.1718169  )
       129           N   tau( 129) = (   0.2500001   0.7216878   0.3568774  )
       130           N   tau( 130) = (   0.2500001   0.7216878   0.7643472  )
       131           N   tau( 131) = (   0.2500001   0.7216878   1.1718169  )
       132           N   tau( 132) = (   0.8750001   0.0721687   0.3568774  )
       133           N   tau( 133) = (   0.8750001   0.0721687   0.7643472  )
       134           N   tau( 134) = (   0.8750001   0.0721687   1.1718169  )
       135           N   tau( 135) = (   0.7500001   0.2886751   0.3568774  )
       136           N   tau( 136) = (   0.7500001   0.2886751   0.7643472  )
       137           N   tau( 137) = (   0.7500001   0.2886751   1.1718169  )
       138           N   tau( 138) = (   0.6250001   0.5051814   0.3568774  )
       139           N   tau( 139) = (   0.6250001   0.5051814   0.7643472  )
       140           N   tau( 140) = (   0.6250001   0.5051814   1.1718169  )
       141           N   tau( 141) = (   0.5000001   0.7216878   0.3568774  )
       142           N   tau( 142) = (   0.5000001   0.7216878   0.7643472  )
       143           N   tau( 143) = (   0.5000001   0.7216878   1.1718169  )
       144           N   tau( 144) = (  -0.0000002   0.1443377   0.1531425  )
       145           N   tau( 145) = (  -0.0000002   0.1443377   0.5606123  )
       146           N   tau( 146) = (  -0.0000002   0.1443377   0.9680820  )
       147           N   tau( 147) = (  -0.1250002   0.3608440   0.1531425  )
       148           N   tau( 148) = (  -0.1250002   0.3608440   0.5606123  )
       149           N   tau( 149) = (  -0.1250002   0.3608440   0.9680820  )
       150           N   tau( 150) = (  -0.2500002   0.5773504   0.1531425  )
       151           N   tau( 151) = (  -0.2500002   0.5773504   0.5606123  )
       152           N   tau( 152) = (  -0.2500002   0.5773504   0.9680820  )
       153           N   tau( 153) = (  -0.3750001   0.7938567   0.1531425  )
       154           N   tau( 154) = (  -0.3750001   0.7938567   0.5606123  )
       155           N   tau( 155) = (  -0.3750001   0.7938567   0.9680820  )
       156           N   tau( 156) = (   0.2499998   0.1443377   0.1531425  )
       157           N   tau( 157) = (   0.2499998   0.1443377   0.5606123  )
       158           N   tau( 158) = (   0.2499998   0.1443377   0.9680820  )
       159           N   tau( 159) = (   0.1249998   0.3608440   0.1531425  )
       160           N   tau( 160) = (   0.1249998   0.3608440   0.5606123  )
       161           N   tau( 161) = (   0.1249998   0.3608440   0.9680820  )
       162           N   tau( 162) = (  -0.0000002   0.5773504   0.1531425  )
       163           N   tau( 163) = (  -0.0000002   0.5773504   0.5606123  )
       164           N   tau( 164) = (  -0.0000002   0.5773504   0.9680820  )
       165           N   tau( 165) = (  -0.1250002   0.7938567   0.1531425  )
       166           N   tau( 166) = (  -0.1250002   0.7938567   0.5606123  )
       167           N   tau( 167) = (  -0.1250002   0.7938567   0.9680820  )
       168           N   tau( 168) = (   0.4999998   0.1443377   0.1531425  )
       169           N   tau( 169) = (   0.4999998   0.1443377   0.5606123  )
       170           N   tau( 170) = (   0.4999998   0.1443377   0.9680820  )
       171           N   tau( 171) = (   0.3749998   0.3608440   0.1531425  )
       172           N   tau( 172) = (   0.3749998   0.3608440   0.5606123  )
       173           N   tau( 173) = (   0.3749998   0.3608440   0.9680820  )
       174           N   tau( 174) = (   0.2499998   0.5773504   0.1531425  )
       175           N   tau( 175) = (   0.2499998   0.5773504   0.5606123  )
       176           N   tau( 176) = (   0.2499998   0.5773504   0.9680820  )
       177           N   tau( 177) = (   0.1249998   0.7938567   0.1531425  )
       178           N   tau( 178) = (   0.1249998   0.7938567   0.5606123  )
       179           N   tau( 179) = (   0.1249998   0.7938567   0.9680820  )
       180           N   tau( 180) = (   0.7499998   0.1443377   0.1531425  )
       181           N   tau( 181) = (   0.7499998   0.1443377   0.5606123  )
       182           N   tau( 182) = (   0.7499998   0.1443377   0.9680820  )
       183           N   tau( 183) = (   0.6249998   0.3608440   0.1531425  )
       184           N   tau( 184) = (   0.6249998   0.3608440   0.5606123  )
       185           N   tau( 185) = (   0.6249998   0.3608440   0.9680820  )
       186           N   tau( 186) = (   0.4999998   0.5773504   0.1531425  )
       187           N   tau( 187) = (   0.4999998   0.5773504   0.5606123  )
       188           N   tau( 188) = (   0.4999998   0.5773504   0.9680820  )
       189           N   tau( 189) = (   0.3749998   0.7938567   0.1531425  )
       190           N   tau( 190) = (   0.3749998   0.7938567   0.5606123  )
       191           N   tau( 191) = (   0.3749998   0.7938567   0.9680820  )
       192           N   tau( 192) = (   0.1250001   0.0721687   0.2033935  )

   Crystallographic axes

     site n.     atom                  positions (cryst. coord.)
         1           Ga  tau(   1) = (  0.1666667  0.0833333  0.4997208  )
         2           Ga  tau(   2) = (  0.1666667  0.0833333  0.8330541  )
         3           Ga  tau(   3) = (  0.1666667  0.3333333  0.1663874  )
         4           Ga  tau(   4) = (  0.1666667  0.3333333  0.4997208  )
         5           Ga  tau(   5) = (  0.1666667  0.3333333  0.8330541  )
         6           Ga  tau(   6) = (  0.1666667  0.5833333  0.1663874  )
         7           Ga  tau(   7) = (  0.1666667  0.5833333  0.4997208  )
         8           Ga  tau(   8) = (  0.1666667  0.5833333  0.8330541  )
         9           Ga  tau(   9) = (  0.1666667  0.8333333  0.1663874  )
        10           Ga  tau(  10) = (  0.1666667  0.8333333  0.4997208  )
        11           Ga  tau(  11) = (  0.1666667  0.8333333  0.8330541  )
        12           Ga  tau(  12) = (  0.4166667  0.0833333  0.1663874  )
        13           Ga  tau(  13) = (  0.4166667  0.0833333  0.4997208  )
        14           Ga  tau(  14) = (  0.4166667  0.0833333  0.8330541  )
        15           Ga  tau(  15) = (  0.4166667  0.3333333  0.1663874  )
        16           Ga  tau(  16) = (  0.4166667  0.3333333  0.4997208  )
        17           Ga  tau(  17) = (  0.4166667  0.3333333  0.8330541  )
        18           Ga  tau(  18) = (  0.4166667  0.5833333  0.1663874  )
        19           Ga  tau(  19) = (  0.4166667  0.5833333  0.4997208  )
        20           Ga  tau(  20) = (  0.4166667  0.5833333  0.8330541  )
        21           Ga  tau(  21) = (  0.4166667  0.8333333  0.1663874  )
        22           Ga  tau(  22) = (  0.4166667  0.8333333  0.4997208  )
        23           Ga  tau(  23) = (  0.4166667  0.8333333  0.8330541  )
        24           Ga  tau(  24) = (  0.6666667  0.0833333  0.1663874  )
        25           Ga  tau(  25) = (  0.6666667  0.0833333  0.4997208  )
        26           Ga  tau(  26) = (  0.6666667  0.0833333  0.8330541  )
        27           Ga  tau(  27) = (  0.6666667  0.3333333  0.1663874  )
        28           Ga  tau(  28) = (  0.6666667  0.3333333  0.4997208  )
        29           Ga  tau(  29) = (  0.6666667  0.3333333  0.8330541  )
        30           Ga  tau(  30) = (  0.6666667  0.5833333  0.1663874  )
        31           Ga  tau(  31) = (  0.6666667  0.5833333  0.4997208  )
        32           Ga  tau(  32) = (  0.6666667  0.5833333  0.8330541  )
        33           Ga  tau(  33) = (  0.6666667  0.8333333  0.1663874  )
        34           Ga  tau(  34) = (  0.6666667  0.8333333  0.4997208  )
        35           Ga  tau(  35) = (  0.6666667  0.8333333  0.8330541  )
        36           Ga  tau(  36) = (  0.9166667  0.0833333  0.1663874  )
        37           Ga  tau(  37) = (  0.9166667  0.0833333  0.4997208  )
        38           Ga  tau(  38) = (  0.9166667  0.0833333  0.8330541  )
        39           Ga  tau(  39) = (  0.9166667  0.3333333  0.1663874  )
        40           Ga  tau(  40) = (  0.9166667  0.3333333  0.4997208  )
        41           Ga  tau(  41) = (  0.9166667  0.3333333  0.8330541  )
        42           Ga  tau(  42) = (  0.9166667  0.5833333  0.1663874  )
        43           Ga  tau(  43) = (  0.9166667  0.5833333  0.4997208  )
        44           Ga  tau(  44) = (  0.9166667  0.5833333  0.8330541  )
        45           Ga  tau(  45) = (  0.9166667  0.8333333  0.1663874  )
        46           Ga  tau(  46) = (  0.9166667  0.8333333  0.4997208  )
        47           Ga  tau(  47) = (  0.9166667  0.8333333  0.8330541  )
        48           Ga  tau(  48) = (  0.0833333  0.1666668  0.3330541  )
        49           Ga  tau(  49) = (  0.0833333  0.1666668  0.6663874  )
        50           Ga  tau(  50) = (  0.0833333  0.1666668  0.9997208  )
        51           Ga  tau(  51) = (  0.0833333  0.4166668  0.3330541  )
        52           Ga  tau(  52) = (  0.0833333  0.4166668  0.6663874  )
        53           Ga  tau(  53) = (  0.0833333  0.4166668  0.9997208  )
        54           Ga  tau(  54) = (  0.0833333  0.6666668  0.3330541  )
        55           Ga  tau(  55) = (  0.0833333  0.6666668  0.6663874  )
        56           Ga  tau(  56) = (  0.0833333  0.6666668  0.9997208  )
        57           Ga  tau(  57) = (  0.0833333  0.9166668  0.3330541  )
        58           Ga  tau(  58) = (  0.0833333  0.9166668  0.6663874  )
        59           Ga  tau(  59) = (  0.0833333  0.9166668  0.9997208  )
        60           Ga  tau(  60) = (  0.3333332  0.1666668  0.3330541  )
        61           Ga  tau(  61) = (  0.3333332  0.1666668  0.6663874  )
        62           Ga  tau(  62) = (  0.3333332  0.1666668  0.9997208  )
        63           Ga  tau(  63) = (  0.3333332  0.4166668  0.3330541  )
        64           Ga  tau(  64) = (  0.3333332  0.4166668  0.6663874  )
        65           Ga  tau(  65) = (  0.3333332  0.4166668  0.9997208  )
        66           Ga  tau(  66) = (  0.3333332  0.6666668  0.3330541  )
        67           Ga  tau(  67) = (  0.3333332  0.6666668  0.6663874  )
        68           Ga  tau(  68) = (  0.3333332  0.6666668  0.9997208  )
        69           Ga  tau(  69) = (  0.3333332  0.9166668  0.3330541  )
        70           Ga  tau(  70) = (  0.3333332  0.9166668  0.6663874  )
        71           Ga  tau(  71) = (  0.3333332  0.9166668  0.9997208  )
        72           Ga  tau(  72) = (  0.5833332  0.1666668  0.3330541  )
        73           Ga  tau(  73) = (  0.5833332  0.1666668  0.6663874  )
        74           Ga  tau(  74) = (  0.5833332  0.1666668  0.9997208  )
        75           Ga  tau(  75) = (  0.5833332  0.4166668  0.3330541  )
        76           Ga  tau(  76) = (  0.5833332  0.4166668  0.6663874  )
        77           Ga  tau(  77) = (  0.5833332  0.4166668  0.9997208  )
        78           Ga  tau(  78) = (  0.5833332  0.6666668  0.3330541  )
        79           Ga  tau(  79) = (  0.5833332  0.6666668  0.6663874  )
        80           Ga  tau(  80) = (  0.5833332  0.6666668  0.9997208  )
        81           Ga  tau(  81) = (  0.5833332  0.9166668  0.3330541  )
        82           Ga  tau(  82) = (  0.5833332  0.9166668  0.6663874  )
        83           Ga  tau(  83) = (  0.5833332  0.9166668  0.9997208  )
        84           Ga  tau(  84) = (  0.8333332  0.1666668  0.3330541  )
        85           Ga  tau(  85) = (  0.8333332  0.1666668  0.6663874  )
        86           Ga  tau(  86) = (  0.8333332  0.1666668  0.9997208  )
        87           Ga  tau(  87) = (  0.8333332  0.4166668  0.3330541  )
        88           Ga  tau(  88) = (  0.8333332  0.4166668  0.6663874  )
        89           Ga  tau(  89) = (  0.8333332  0.4166668  0.9997208  )
        90           Ga  tau(  90) = (  0.8333332  0.6666668  0.3330541  )
        91           Ga  tau(  91) = (  0.8333332  0.6666668  0.6663874  )
        92           Ga  tau(  92) = (  0.8333332  0.6666668  0.9997208  )
        93           Ga  tau(  93) = (  0.8333332  0.9166668  0.3330541  )
        94           Ga  tau(  94) = (  0.8333332  0.9166668  0.6663874  )
        95           Ga  tau(  95) = (  0.8333332  0.9166668  0.9997208  )
        96           N   tau(  96) = (  0.1666667  0.0833333  0.2919459  )
        97           N   tau(  97) = (  0.1666667  0.0833333  0.6252792  )
        98           N   tau(  98) = (  0.1666667  0.0833333  0.9586126  )
        99           N   tau(  99) = (  0.1666667  0.3333333  0.2919459  )
       100           N   tau( 100) = (  0.1666667  0.3333333  0.6252792  )
       101           N   tau( 101) = (  0.1666667  0.3333333  0.9586126  )
       102           N   tau( 102) = (  0.1666667  0.5833333  0.2919459  )
       103           N   tau( 103) = (  0.1666667  0.5833333  0.6252792  )
       104           N   tau( 104) = (  0.1666667  0.5833333  0.9586126  )
       105           N   tau( 105) = (  0.1666667  0.8333333  0.2919459  )
       106           N   tau( 106) = (  0.1666667  0.8333333  0.6252792  )
       107           N   tau( 107) = (  0.1666667  0.8333333  0.9586126  )
       108           N   tau( 108) = (  0.4166667  0.0833333  0.2919459  )
       109           N   tau( 109) = (  0.4166667  0.0833333  0.6252792  )
       110           N   tau( 110) = (  0.4166667  0.0833333  0.9586126  )
       111           N   tau( 111) = (  0.4166667  0.3333333  0.2919459  )
       112           N   tau( 112) = (  0.4166667  0.3333333  0.6252792  )
       113           N   tau( 113) = (  0.4166667  0.3333333  0.9586126  )
       114           N   tau( 114) = (  0.4166667  0.5833333  0.2919459  )
       115           N   tau( 115) = (  0.4166667  0.5833333  0.6252792  )
       116           N   tau( 116) = (  0.4166667  0.5833333  0.9586126  )
       117           N   tau( 117) = (  0.4166667  0.8333333  0.2919459  )
       118           N   tau( 118) = (  0.4166667  0.8333333  0.6252792  )
       119           N   tau( 119) = (  0.4166667  0.8333333  0.9586126  )
       120           N   tau( 120) = (  0.6666667  0.0833333  0.2919459  )
       121           N   tau( 121) = (  0.6666667  0.0833333  0.6252792  )
       122           N   tau( 122) = (  0.6666667  0.0833333  0.9586126  )
       123           N   tau( 123) = (  0.6666667  0.3333333  0.2919459  )
       124           N   tau( 124) = (  0.6666667  0.3333333  0.6252792  )
       125           N   tau( 125) = (  0.6666667  0.3333333  0.9586126  )
       126           N   tau( 126) = (  0.6666667  0.5833333  0.2919459  )
       127           N   tau( 127) = (  0.6666667  0.5833333  0.6252792  )
       128           N   tau( 128) = (  0.6666667  0.5833333  0.9586126  )
       129           N   tau( 129) = (  0.6666667  0.8333333  0.2919459  )
       130           N   tau( 130) = (  0.6666667  0.8333333  0.6252792  )
       131           N   tau( 131) = (  0.6666667  0.8333333  0.9586126  )
       132           N   tau( 132) = (  0.9166667  0.0833333  0.2919459  )
       133           N   tau( 133) = (  0.9166667  0.0833333  0.6252792  )
       134           N   tau( 134) = (  0.9166667  0.0833333  0.9586126  )
       135           N   tau( 135) = (  0.9166667  0.3333333  0.2919459  )
       136           N   tau( 136) = (  0.9166667  0.3333333  0.6252792  )
       137           N   tau( 137) = (  0.9166667  0.3333333  0.9586126  )
       138           N   tau( 138) = (  0.9166667  0.5833333  0.2919459  )
       139           N   tau( 139) = (  0.9166667  0.5833333  0.6252792  )
       140           N   tau( 140) = (  0.9166667  0.5833333  0.9586126  )
       141           N   tau( 141) = (  0.9166667  0.8333333  0.2919459  )
       142           N   tau( 142) = (  0.9166667  0.8333333  0.6252792  )
       143           N   tau( 143) = (  0.9166667  0.8333333  0.9586126  )
       144           N   tau( 144) = (  0.0833333  0.1666668  0.1252792  )
       145           N   tau( 145) = (  0.0833333  0.1666668  0.4586126  )
       146           N   tau( 146) = (  0.0833333  0.1666668  0.7919459  )
       147           N   tau( 147) = (  0.0833333  0.4166668  0.1252792  )
       148           N   tau( 148) = (  0.0833333  0.4166668  0.4586126  )
       149           N   tau( 149) = (  0.0833333  0.4166668  0.7919459  )
       150           N   tau( 150) = (  0.0833333  0.6666668  0.1252792  )
       151           N   tau( 151) = (  0.0833333  0.6666668  0.4586126  )
       152           N   tau( 152) = (  0.0833333  0.6666668  0.7919459  )
       153           N   tau( 153) = (  0.0833333  0.9166668  0.1252792  )
       154           N   tau( 154) = (  0.0833333  0.9166668  0.4586126  )
       155           N   tau( 155) = (  0.0833333  0.9166668  0.7919459  )
       156           N   tau( 156) = (  0.3333332  0.1666668  0.1252792  )
       157           N   tau( 157) = (  0.3333332  0.1666668  0.4586126  )
       158           N   tau( 158) = (  0.3333332  0.1666668  0.7919459  )
       159           N   tau( 159) = (  0.3333332  0.4166668  0.1252792  )
       160           N   tau( 160) = (  0.3333332  0.4166668  0.4586126  )
       161           N   tau( 161) = (  0.3333332  0.4166668  0.7919459  )
       162           N   tau( 162) = (  0.3333332  0.6666668  0.1252792  )
       163           N   tau( 163) = (  0.3333332  0.6666668  0.4586126  )
       164           N   tau( 164) = (  0.3333332  0.6666668  0.7919459  )
       165           N   tau( 165) = (  0.3333332  0.9166668  0.1252792  )
       166           N   tau( 166) = (  0.3333332  0.9166668  0.4586126  )
       167           N   tau( 167) = (  0.3333332  0.9166668  0.7919459  )
       168           N   tau( 168) = (  0.5833332  0.1666668  0.1252792  )
       169           N   tau( 169) = (  0.5833332  0.1666668  0.4586126  )
       170           N   tau( 170) = (  0.5833332  0.1666668  0.7919459  )
       171           N   tau( 171) = (  0.5833332  0.4166668  0.1252792  )
       172           N   tau( 172) = (  0.5833332  0.4166668  0.4586126  )
       173           N   tau( 173) = (  0.5833332  0.4166668  0.7919459  )
       174           N   tau( 174) = (  0.5833332  0.6666668  0.1252792  )
       175           N   tau( 175) = (  0.5833332  0.6666668  0.4586126  )
       176           N   tau( 176) = (  0.5833332  0.6666668  0.7919459  )
       177           N   tau( 177) = (  0.5833332  0.9166668  0.1252792  )
       178           N   tau( 178) = (  0.5833332  0.9166668  0.4586126  )
       179           N   tau( 179) = (  0.5833332  0.9166668  0.7919459  )
       180           N   tau( 180) = (  0.8333332  0.1666668  0.1252792  )
       181           N   tau( 181) = (  0.8333332  0.1666668  0.4586126  )
       182           N   tau( 182) = (  0.8333332  0.1666668  0.7919459  )
       183           N   tau( 183) = (  0.8333332  0.4166668  0.1252792  )
       184           N   tau( 184) = (  0.8333332  0.4166668  0.4586126  )
       185           N   tau( 185) = (  0.8333332  0.4166668  0.7919459  )
       186           N   tau( 186) = (  0.8333332  0.6666668  0.1252792  )
       187           N   tau( 187) = (  0.8333332  0.6666668  0.4586126  )
       188           N   tau( 188) = (  0.8333332  0.6666668  0.7919459  )
       189           N   tau( 189) = (  0.8333332  0.9166668  0.1252792  )
       190           N   tau( 190) = (  0.8333332  0.9166668  0.4586126  )
       191           N   tau( 191) = (  0.8333332  0.9166668  0.7919459  )
       192           N   tau( 192) = (  0.1666667  0.0833333  0.1663874  )

     number of k points=     4  Gaussian smearing, width (Ry)=  0.0100
                       cart. coord. in units 2pi/alat
        k(    1) = (   0.0000000   0.0000000   0.0000000), wk =   0.2500000
        k(    2) = (   0.0000000   0.0000000  -0.4090283), wk =   0.2500000
        k(    3) = (   0.0000000  -0.5773503   0.0000000), wk =   0.7500000
        k(    4) = (   0.0000000  -0.5773503  -0.4090283), wk =   0.7500000

                       cryst. coord.
        k(    1) = (   0.0000000   0.0000000   0.0000000), wk =   0.2500000
        k(    2) = (   0.0000000   0.0000000  -0.5000000), wk =   0.2500000
        k(    3) = (   0.0000000  -0.5000000   0.0000000), wk =   0.7500000
        k(    4) = (   0.0000000  -0.5000000  -0.5000000), wk =   0.7500000

     Dense  grid:  1726709 G-vectors     FFT dimensions: ( 160, 160, 180)

     Smooth grid:  1235535 G-vectors     FFT dimensions: ( 144, 144, 160)

     Dynamical RAM for                 wfc:      38.00 MB

     Dynamical RAM for     wfc (w. buffer):      38.00 MB

     Dynamical RAM for           str. fact:       0.82 MB

     Dynamical RAM for           local pot:       0.00 MB

     Dynamical RAM for          nlocal pot:      91.53 MB

     Dynamical RAM for                qrad:       3.00 MB

     Dynamical RAM for          rho,v,vnew:       2.99 MB

     Dynamical RAM for               rhoin:       1.00 MB

     Dynamical RAM for            rho*nmix:       6.59 MB

     Dynamical RAM for           G-vectors:       1.69 MB

     Dynamical RAM for          h,s,v(r/c):     780.05 MB

     Dynamical RAM for          <psi|beta>:      39.15 MB

     Dynamical RAM for                 psi:     151.99 MB

     Dynamical RAM for                hpsi:     151.99 MB

     Dynamical RAM for                spsi:     151.99 MB

     Dynamical RAM for      wfcinit/wfcrot:     100.38 MB

     Dynamical RAM for           addusdens:      29.44 MB

     Dynamical RAM for          addusforce:      49.47 MB

     Dynamical RAM for         addusstress:      20.84 MB

     Estimated static dynamical RAM per process >     143.20 MB

     Estimated max dynamical RAM per process >       1.39 GB

     Estimated total dynamical RAM >     355.00 GB

     Atomic positions and unit cell read from directory:
     ./GaN.save/
     Atomic positions from file used, from input discarded
 

     Check: negative core charge=   -0.000003

     The initial density is read from file :
     ./GaN.save/charge-density



     %%%%%%%%%%%%%%%%%%%%%%%%%%%%%%%%%%%%%%%%%%%%%%%%%%%%%%%%%%%%%%%%%%%%%%%%
     %                                                                      %
     % You are using vdW-DF, which was implemented by the Thonhauser group. %
     % Please cite the following two papers that made this development      %
     % possible and the two reviews that describe the various versions:     %
     %                                                                      %
     %   T. Thonhauser et al., PRL 115, 136402 (2015).                      %
     %   T. Thonhauser et al., PRB 76, 125112 (2007).                       %
     %   K. Berland et al., Rep. Prog. Phys. 78, 066501 (2015).             %
     %   D.C. Langreth et al., J. Phys.: Condens. Matter 21, 084203 (2009). %
     %                                                                      %
     % If you are calculating stress with vdW-DF, please also cite:         %
     %                                                                      %
     %   R. Sabatini et al., J. Phys.: Condens. Matter 24, 424209 (2012).   %
     %                                                                      %
     %%%%%%%%%%%%%%%%%%%%%%%%%%%%%%%%%%%%%%%%%%%%%%%%%%%%%%%%%%%%%%%%%%%%%%%%

     %%%%%%%%%%%%%%%%%%%%%%%%%%%%%%%%%%%%%%%%%%%%%%%%%%%%%%%%%%%%%%%%%%%%%%%%
     %                                                                      %
     %  vdW-DF NEWS:                                                        %
     %                                                                      %
     %  * vdW-DF3 is now available. DOI: 10.1021/acs.jctc.0c00471           %
     %    use with input_dft = 'vdW-DF3-opt1' or 'vdW-DF3-opt2'             %
     %                                                                      %
     %  * Unscreened and range-separated vdW-DF hybrid functionals          %
     %    DOI: 10.1063/1.4986522 and 10.1088/1361-648X/ac2ad2               %
     %    use with input_dft = 'vdW-DF-cx0' (etc) and 'vdW-DF-ahcx'         %
     %                                                                      %
     %%%%%%%%%%%%%%%%%%%%%%%%%%%%%%%%%%%%%%%%%%%%%%%%%%%%%%%%%%%%%%%%%%%%%%%%


     Carrying out vdW-DF run using the following parameters:
     Nqs    =  20  Npoints =  1024  r_max =  100.000
     q_mesh =  0.00001000  0.04494208  0.09755937  0.15916263
               0.23128650  0.31572767  0.41458969  0.53033537
               0.66584808  0.82450364  1.01025438  1.22772762
               1.48234092  1.78043706  2.12944203  2.53805004
               3.01644009  3.57652955  4.23227104  5.00000000


     -----------------------------------------------
     Non-local corr. energy    =      51.90581469 Ry
     -----------------------------------------------

     Starting wfcs from file
     Checking if some PAW data can be deallocated... 
       PAW data deallocated on   97 nodes for type:  1
       PAW data deallocated on  159 nodes for type:  2

     total cpu time spent up to now is       13.8 secs

     Self-consistent Calculation

     iteration #  1     ecut=    70.00 Ry     beta= 0.70
     Davidson diagonalization with overlap

---- Real-time Memory Report at c_bands before calling an iterative solver
           407 MiB given to the printing process from OS
             0 MiB allocation reported by mallinfo(arena+hblkhd)
       1895695 MiB available memory on the node where the printing process lives
------------------
     ethr =  1.00E-05,  avg # of iterations =  1.0

     Threshold (ethr) on eigenvalues was too large:
     Diagonalizing with lowered threshold

     Davidson diagonalization with overlap

---- Real-time Memory Report at c_bands before calling an iterative solver
          1147 MiB given to the printing process from OS
             0 MiB allocation reported by mallinfo(arena+hblkhd)
       1890557 MiB available memory on the node where the printing process lives
------------------
     ethr =  4.37E-13,  avg # of iterations = 17.3


     -----------------------------------------------
     Non-local corr. energy    =      51.90581392 Ry
     -----------------------------------------------


     total cpu time spent up to now is      405.8 secs

     End of self-consistent calculation

          k = 0.0000 0.0000 0.0000 (154543 PWs)   bands (ev):

    -9.5726  -6.9023  -6.7244  -6.7113  -6.6710  -6.6710  -6.6502  -6.6208
    -6.5917  -6.5917  -6.5847  -6.5631  -6.5631  -6.5282  -6.5022  -6.4975
    -6.4975  -6.4963  -6.4961  -6.4960  -6.4893  -6.4892  -6.4865  -6.4835
    -6.4721  -6.4721  -6.4672  -6.4672  -6.4626  -6.4539  -6.4539  -6.4501
    -6.4467  -6.4441  -6.4409  -6.4409  -6.4347  -6.4334  -6.4334  -6.4272
    -6.4207  -6.4207  -6.4143  -6.4143  -6.4110  -6.4095  -6.4075  -6.4075
    -6.4069  -6.4069  -6.4055  -6.4033  -6.4033  -6.4010  -6.4009  -6.4009
    -6.3963  -6.3962  -6.3962  -6.3952  -6.3952  -6.3939  -6.3926  -6.3926
    -6.3893  -6.3877  -6.3861  -6.3834  -6.3834  -6.3760  -6.3710  -6.3710
    -6.3628  -6.3628  -6.3591  -6.3544  -6.3544  -6.3500  -6.3500  -6.3472
    -6.3472  -6.3452  -6.3451  -6.3363  -6.3363  -6.3316  -6.3268  -6.3268
    -6.3237  -6.3211  -6.3210  -6.2682  -6.2047  -6.1938  -6.1938  -5.8170
    -5.5899  -5.5268  -5.5268  -5.5147  -5.5044  -5.5044  -5.5029  -5.4803
    -5.4803  -5.4651  -5.4650  -5.4650  -5.4579  -5.4579  -5.4549  -5.4435
    -5.4282  -5.4282  -5.4157  -5.4124  -5.4124  -5.4004  -5.4000  -5.4000
    -5.3948  -5.3888  -5.3888  -5.3875  -5.3779  -5.3779  -5.3610  -5.3610
    -5.3588  -5.3588  -5.3577  -5.3538  -5.3395  -5.3395  -5.3349  -5.3333
    -5.3333  -5.3321  -5.3241  -5.3241  -5.3209  -5.3205  -5.3205  -5.3195
    -5.3154  -5.3154  -5.3112  -5.3079  -5.3079  -5.3031  -5.3031  -5.3025
    -5.3025  -5.2985  -5.2980  -5.2946  -5.2946  -5.2928  -5.2903  -5.2903
    -5.2878  -5.2878  -5.2877  -5.2847  -5.2839  -5.2813  -5.2810  -5.2810
    -5.2802  -5.2802  -5.2770  -5.2756  -5.2756  -5.2756  -5.2725  -5.2725
    -5.2693  -5.2693  -5.2648  -5.2632  -5.2612  -5.2612  -5.2609  -5.2600
    -5.2600  -5.2555  -5.2555  -5.2521  -5.2519  -5.2501  -5.2501  -5.2479
    -5.2479  -5.2476  -5.2476  -5.2466  -5.2466  -5.2444  -5.2444  -5.2441
    -5.2416  -5.2416  -5.2401  -5.2400  -5.2400  -5.2386  -5.2378  -5.2358
    -5.2358  -5.2346  -5.2346  -5.2325  -5.2325  -5.2320  -5.2310  -5.2310
    -5.2302  -5.2284  -5.2284  -5.2257  -5.2257  -5.2247  -5.2227  -5.2227
    -5.2226  -5.2223  -5.2223  -5.2216  -5.2207  -5.2199  -5.2199  -5.2144
    -5.2144  -5.2131  -5.2116  -5.2116  -5.2095  -5.2079  -5.2079  -5.2054
    -5.2002  -5.2002  -5.1989  -5.1985  -5.1976  -5.1966  -5.1966  -5.1957
    -5.1957  -5.1941  -5.1941  -5.1940  -5.1914  -5.1914  -5.1911  -5.1906
    -5.1877  -5.1877  -5.1861  -5.1861  -5.1847  -5.1847  -5.1825  -5.1821
    -5.1809  -5.1800  -5.1800  -5.1798  -5.1793  -5.1789  -5.1789  -5.1773
    -5.1772  -5.1761  -5.1761  -5.1735  -5.1734  -5.1726  -5.1726  -5.1700
    -5.1683  -5.1682  -5.1682  -5.1665  -5.1665  -5.1639  -5.1619  -5.1619
    -5.1619  -5.1606  -5.1593  -5.1593  -5.1579  -5.1579  -5.1570  -5.1566
    -5.1561  -5.1561  -5.1556  -5.1546  -5.1546  -5.1523  -5.1523  -5.1507
    -5.1494  -5.1494  -5.1479  -5.1461  -5.1461  -5.1456  -5.1447  -5.1427
    -5.1427  -5.1423  -5.1406  -5.1406  -5.1395  -5.1394  -5.1385  -5.1385
    -5.1378  -5.1373  -5.1373  -5.1338  -5.1332  -5.1332  -5.1327  -5.1327
    -5.1317  -5.1313  -5.1313  -5.1297  -5.1286  -5.1286  -5.1282  -5.1269
    -5.1269  -5.1261  -5.1253  -5.1248  -5.1248  -5.1229  -5.1229  -5.1221
    -5.1221  -5.1204  -5.1185  -5.1180  -5.1180  -5.1150  -5.1150  -5.1115
    -5.1115  -5.1105  -5.1105  -5.1087  -5.1068  -5.1064  -5.1064  -5.1059
    -5.1022  -5.1022  -5.1021  -5.1010  -5.0994  -5.0993  -5.0986  -5.0986
    -5.0976  -5.0955  -5.0945  -5.0945  -5.0934  -5.0932  -5.0932  -5.0926
    -5.0908  -5.0908  -5.0903  -5.0887  -5.0887  -5.0878  -5.0862  -5.0862
    -5.0848  -5.0844  -5.0844  -5.0836  -5.0836  -5.0828  -5.0799  -5.0799
    -5.0775  -5.0757  -5.0757  -5.0751  -5.0751  -5.0745  -5.0740  -5.0721
    -5.0719  -5.0719  -5.0663  -5.0663  -5.0660  -5.0635  -5.0635  -5.0602
    -5.0602  -5.0584  -5.0565  -5.0543  -5.0532  -5.0532  -5.0510  -5.0510
    -5.0459  -5.0454  -5.0454  -5.0444  -5.0433  -5.0433  -5.0414  -5.0388
    -5.0377  -5.0377  -5.0345  -5.0345  -5.0331  -5.0329  -5.0318  -5.0318
    -5.0233  -5.0233  -5.0233  -5.0229  -5.0229  -5.0163  -5.0163  -5.0147
    -5.0147  -5.0090  -5.0089  -5.0069  -5.0069  -4.9975  -4.9968  -4.9956
    -4.9956  -4.9911  -4.9911  -4.9831  -4.9831  -4.9776  -4.9763  -4.9763
    -4.9705  -4.9705  -4.9577  -4.9577  -4.9395  -4.9392  -4.9342  -4.9342
    -4.9310  -4.9310  -4.9272  -4.9075  -4.8859  -4.8700  -4.8699  -4.8638
    -4.8548  -4.8548  -4.8307  -4.8307  -4.8069  -4.7964  -4.7964  -4.7143
    -4.7091  -4.7091  -4.6938  -4.6938  -4.6671  -4.6529  -4.6490  -4.6490
    -4.6360  -4.6327  -4.6327  -4.6078  -4.6078  -4.5934  -4.5934  -4.5661
    -4.4016  -4.3160  -4.3160  -4.3137  -4.2377  -3.8611  -3.8611  -3.8437
    -3.8437  -3.8426  -3.8356  -3.8265  -3.8263  -3.8263  -3.8237  -3.8237
    -3.8130  -3.8063  -3.8063  -3.7629  -3.7629  -3.7407  -3.7141  -3.6611
    -3.6611  -3.6502  -3.6502  -3.6435  -3.6396  -3.6281  -3.6281  -3.6107
    -3.6107  -3.6025  -3.5887  -3.5689  -3.5689  -3.5646  -3.5440  -3.5068
    -3.5067  -3.4726  -3.3654  -3.3654  -3.2614  -3.2499  -3.2301  -3.2301
    -3.2289  -3.2289  -3.2007  -3.1950  -3.1950  -3.1863  -3.1817  -3.1817
    -3.1775  -3.1701  -3.1701  -3.1598  -3.1598  -3.1423  -3.1415  -3.1323
    -3.1323  -3.0637  -3.0375  -3.0375  -2.9329  -2.8799  -2.8799  -2.8653
    -2.8589  -2.8589  -2.4013  -1.3610   2.0219   2.1287   2.1287   2.2506
     2.2507   2.2540   2.3140   2.4029   2.4030   2.5252   2.5253   2.5397
     2.6311   2.7247   2.7247   2.7375   2.7558   2.7558   2.7861   2.7862
     2.8046   2.8136   2.8276   2.8277   2.8387   2.8387   2.8471   2.8533
     2.8533   2.8593   2.8797   2.8797   2.8980   3.0319   3.0319   3.0616
     3.1478   3.1478   3.1524   3.1634   3.1634   3.2142   3.2872   3.2878
     3.2878   3.3012   3.3012   3.3289   3.3357   3.3357   3.3538   3.3966
     3.4021   3.4021   3.5226   3.5416   3.5509   3.5552   3.5552   3.5566
     3.5567   3.5721   3.5793   3.5836   3.5837   3.6117   3.6118   3.6942
     3.7141   3.7142   3.8013   3.8033   3.8033   3.8618   4.0495   4.0495
     4.5556   4.6000   4.7712   4.7713   4.8066   4.8522   4.8523   4.8576
     4.8576   4.8582   4.8642   4.8701   4.8701   4.8801   4.8801   4.8870
     4.9141   4.9325   4.9325   4.9448   4.9448   4.9464   4.9466   4.9466
     4.9474   4.9607   4.9608   4.9741   4.9741   4.9845   5.0737   5.0746
     5.0746   5.1087   5.1359   5.1360   5.1369   5.1489   5.1489   5.1532
     5.1685   5.1685   5.1857   5.4669   5.4669   5.6014   5.7540   5.8420
     5.8464   5.8464   5.8733   5.8734   5.8932   5.8944   5.9069   5.9069
     5.9209   5.9250   5.9250   5.9419   5.9419   5.9615   5.9616   6.0053
     6.0478   6.0485   6.0485   6.0529   6.0640   6.0644   6.0644   6.0755
     6.0755   6.0834   6.0871   6.0871   6.0932   6.0932   6.1233   6.1421
     6.1421   6.1625   6.2585   6.2744   6.2744   6.3474   6.3474   6.3651
     6.3681   6.3815   6.3815   6.3885   6.4009   6.4009   6.4150   6.4290
     6.4291   6.5020   6.5132   6.5168   6.5168   6.5539   6.6414   6.6414
     6.6962   6.6962   6.7237   6.7518   6.7605   6.7605   6.7735   6.8153
     6.8153   6.8331   6.8403   6.8403   6.8768   6.8867   6.8867   6.9214
     6.9214   6.9479   7.0334   7.0335   7.0436   7.1441   7.1493   7.1494
     7.1695   7.1739   7.1739   7.1758   7.1758   7.1813   7.2066   7.2100
     7.2193   7.2193   7.2483   7.2595   7.2595   7.2854   7.2855   7.3061
     7.3223   7.3223   7.3445   7.3507   7.4151   7.4151   7.4258   7.4258
     7.4352   7.4352   7.4441   7.4687   7.4734   7.5092   7.5093   7.5432
     7.5641   7.5641   7.5704   7.5704   7.5758   7.5806   7.5850   7.5850
     7.6063   7.6063   7.6742   7.6742   7.7482   7.7482   7.7807   7.8135
     7.8135   7.8349   7.8349   7.8392   7.8583   7.8583   7.8596   7.8635
     7.9103   7.9124   7.9125   7.9498   7.9629   7.9630   8.0047   8.0047
     8.0423   8.0423   8.0439   8.0870   8.0870   8.2373   8.2374   8.2397
     8.2665   8.2710   8.2711   8.4269   8.4270   8.4538   8.5047   8.5047
     8.7422   8.7423   8.9088   9.8163  10.2229  11.2978  11.9667  12.1462
    12.1532  12.1532  12.5985  12.5986  12.6312  12.6682  12.7117  12.7660
    12.7660  12.7801  12.8063  12.8134  12.8134  12.8617  12.9319  12.9319
    12.9365  12.9940  12.9941  13.0383  13.0383  13.0524  13.0571  13.0676
    13.0676  13.2267  13.3094  13.4928  13.4929  13.6313  13.6313  13.6845
    13.7454  13.7455  13.7799  13.8356  13.8358  13.8875  13.9514  14.0067
    14.0067  14.1089  14.1090  14.1568  14.1621  14.1621  14.2439  14.2650
    14.2650  14.2905  14.2905  14.3058  14.3092  14.3093  14.3121  14.3309
    14.3310  14.3444  14.3562  14.3563  14.3601  14.3879  14.3879  14.3909
    14.4054  14.4055  14.4213  14.5484  14.5484  14.5750  14.6266  14.6929
    14.6930  14.7125  14.7157  14.7250  14.7417  14.7417  14.7742  14.7742
    14.7948  14.7948  14.8033  14.8346  14.8347  14.8347  14.8557  14.8557
    14.8680  14.9019  14.9083  14.9084  14.9712  15.0825  15.0825  15.4074
    15.4074  15.4166  15.5852  15.6607  15.6607  15.7663  15.7935  15.7935
    15.8392  15.8393  15.8427  15.8622  15.8792  15.8792  15.9357  15.9454
    15.9454  15.9575  15.9650  15.9650  15.9961  16.0106  16.0106  16.0501
    16.0590  16.0590  16.0863  16.0863  16.1513  16.1513  16.1550  16.2233
    16.2236  16.2647  16.2647  16.2863  16.2918  16.2918  16.3088  16.3088
    16.3194  16.3669  16.3669  16.3976  16.3976  16.4006  16.4103  16.4198
    16.4198  16.4206  16.4449  16.4449  16.4595  16.4700  16.4701  16.4778
    16.4784  16.4840  16.4859  16.4859  16.4942  16.4980  16.4980  16.5154
    16.5154  16.5237  16.5338  16.5338  16.5650  16.5651  16.5688  16.5989

     occupation numbers 
     1.0000   1.0000   1.0000   1.0000   1.0000   1.0000   1.0000   1.0000
     1.0000   1.0000   1.0000   1.0000   1.0000   1.0000   1.0000   1.0000
     1.0000   1.0000   1.0000   1.0000   1.0000   1.0000   1.0000   1.0000
     1.0000   1.0000   1.0000   1.0000   1.0000   1.0000   1.0000   1.0000
     1.0000   1.0000   1.0000   1.0000   1.0000   1.0000   1.0000   1.0000
     1.0000   1.0000   1.0000   1.0000   1.0000   1.0000   1.0000   1.0000
     1.0000   1.0000   1.0000   1.0000   1.0000   1.0000   1.0000   1.0000
     1.0000   1.0000   1.0000   1.0000   1.0000   1.0000   1.0000   1.0000
     1.0000   1.0000   1.0000   1.0000   1.0000   1.0000   1.0000   1.0000
     1.0000   1.0000   1.0000   1.0000   1.0000   1.0000   1.0000   1.0000
     1.0000   1.0000   1.0000   1.0000   1.0000   1.0000   1.0000   1.0000
     1.0000   1.0000   1.0000   1.0000   1.0000   1.0000   1.0000   1.0000
     1.0000   1.0000   1.0000   1.0000   1.0000   1.0000   1.0000   1.0000
     1.0000   1.0000   1.0000   1.0000   1.0000   1.0000   1.0000   1.0000
     1.0000   1.0000   1.0000   1.0000   1.0000   1.0000   1.0000   1.0000
     1.0000   1.0000   1.0000   1.0000   1.0000   1.0000   1.0000   1.0000
     1.0000   1.0000   1.0000   1.0000   1.0000   1.0000   1.0000   1.0000
     1.0000   1.0000   1.0000   1.0000   1.0000   1.0000   1.0000   1.0000
     1.0000   1.0000   1.0000   1.0000   1.0000   1.0000   1.0000   1.0000
     1.0000   1.0000   1.0000   1.0000   1.0000   1.0000   1.0000   1.0000
     1.0000   1.0000   1.0000   1.0000   1.0000   1.0000   1.0000   1.0000
     1.0000   1.0000   1.0000   1.0000   1.0000   1.0000   1.0000   1.0000
     1.0000   1.0000   1.0000   1.0000   1.0000   1.0000   1.0000   1.0000
     1.0000   1.0000   1.0000   1.0000   1.0000   1.0000   1.0000   1.0000
     1.0000   1.0000   1.0000   1.0000   1.0000   1.0000   1.0000   1.0000
     1.0000   1.0000   1.0000   1.0000   1.0000   1.0000   1.0000   1.0000
     1.0000   1.0000   1.0000   1.0000   1.0000   1.0000   1.0000   1.0000
     1.0000   1.0000   1.0000   1.0000   1.0000   1.0000   1.0000   1.0000
     1.0000   1.0000   1.0000   1.0000   1.0000   1.0000   1.0000   1.0000
     1.0000   1.0000   1.0000   1.0000   1.0000   1.0000   1.0000   1.0000
     1.0000   1.0000   1.0000   1.0000   1.0000   1.0000   1.0000   1.0000
     1.0000   1.0000   1.0000   1.0000   1.0000   1.0000   1.0000   1.0000
     1.0000   1.0000   1.0000   1.0000   1.0000   1.0000   1.0000   1.0000
     1.0000   1.0000   1.0000   1.0000   1.0000   1.0000   1.0000   1.0000
     1.0000   1.0000   1.0000   1.0000   1.0000   1.0000   1.0000   1.0000
     1.0000   1.0000   1.0000   1.0000   1.0000   1.0000   1.0000   1.0000
     1.0000   1.0000   1.0000   1.0000   1.0000   1.0000   1.0000   1.0000
     1.0000   1.0000   1.0000   1.0000   1.0000   1.0000   1.0000   1.0000
     1.0000   1.0000   1.0000   1.0000   1.0000   1.0000   1.0000   1.0000
     1.0000   1.0000   1.0000   1.0000   1.0000   1.0000   1.0000   1.0000
     1.0000   1.0000   1.0000   1.0000   1.0000   1.0000   1.0000   1.0000
     1.0000   1.0000   1.0000   1.0000   1.0000   1.0000   1.0000   1.0000
     1.0000   1.0000   1.0000   1.0000   1.0000   1.0000   1.0000   1.0000
     1.0000   1.0000   1.0000   1.0000   1.0000   1.0000   1.0000   1.0000
     1.0000   1.0000   1.0000   1.0000   1.0000   1.0000   1.0000   1.0000
     1.0000   1.0000   1.0000   1.0000   1.0000   1.0000   1.0000   1.0000
     1.0000   1.0000   1.0000   1.0000   1.0000   1.0000   1.0000   1.0000
     1.0000   1.0000   1.0000   1.0000   1.0000   1.0000   1.0000   1.0000
     1.0000   1.0000   1.0000   1.0000   1.0000   1.0000   1.0000   1.0000
     1.0000   1.0000   1.0000   1.0000   1.0000   1.0000   1.0000   1.0000
     1.0000   1.0000   1.0000   1.0000   1.0000   1.0000   1.0000   1.0000
     1.0000   1.0000   1.0000   1.0000   1.0000   1.0000   1.0000   1.0000
     1.0000   1.0000   1.0000   1.0000   1.0000   1.0000   1.0000   1.0000
     1.0000   1.0000   1.0000   1.0000   1.0000   1.0000   1.0000   1.0000
     1.0000   1.0000   1.0000   1.0000   1.0000   1.0000   1.0000   1.0000
     1.0000   1.0000   1.0000   1.0000   1.0000   1.0000   1.0000   1.0000
     1.0000   1.0000   1.0000   1.0000   1.0000   1.0000   1.0000   1.0000
     1.0000   1.0000   1.0000   1.0000   1.0000   1.0000   1.0000   1.0000
     1.0000   1.0000   1.0000   1.0000   1.0000   1.0000   1.0000   1.0000
     1.0000   1.0000   1.0000   1.0000   1.0000   1.0000   1.0000   1.0000
     1.0000   1.0000   1.0000   1.0000   1.0000   1.0000   1.0000   1.0000
     1.0000   1.0000   1.0000   1.0000   1.0000   1.0000   1.0000   1.0000
     1.0000   1.0000   1.0000   1.0000   1.0000   1.0000   1.0000   1.0000
     1.0000   1.0000   1.0000   1.0000   1.0000   1.0000   1.0000   1.0000
     1.0000   1.0000   1.0000   1.0000   1.0000   1.0000   1.0000   1.0000
     1.0000   1.0000   1.0000   1.0000   1.0000   1.0000   1.0000   1.0000
     1.0000   1.0000   1.0000   1.0000   1.0000   1.0000   1.0000   1.0000
     1.0000   1.0000   1.0000   1.0000   1.0000   1.0000   1.0000   1.0000
     1.0000   1.0000   1.0000   1.0000   1.0000   1.0000   1.0000   1.0000
     1.0000   1.0000   1.0000   1.0000   1.0000   1.0000   1.0000   1.0000
     1.0000   1.0000   1.0000   1.0000   1.0000   1.0000   1.0000   1.0000
     1.0000   1.0000   1.0000   1.0000   1.0000   1.0000   1.0000   1.0000
     1.0000   1.0000   1.0000   1.0000   1.0000   1.0000   1.0000   1.0000
     1.0000   1.0000   1.0000   1.0000   1.0000   1.0000   1.0000   1.0000
     1.0000   1.0000   1.0000   1.0000   1.0000   1.0000   1.0000   1.0000
     1.0000   1.0000   1.0000   1.0000   1.0000   1.0000   1.0000   1.0000
     1.0000   1.0000   1.0000   1.0000   1.0000   1.0000   1.0000   1.0000
     1.0000   1.0000   1.0000   1.0000   1.0000   1.0000   1.0000   1.0000
     1.0000   1.0000   1.0000   1.0000   1.0000   1.0000   1.0000   1.0000
     1.0000   1.0000   1.0000   1.0000   1.0000   1.0000   1.0000   1.0000
     1.0000   1.0000   1.0000   1.0000   1.0000   1.0000   1.0000   1.0000
     1.0000   1.0000   1.0000   1.0000   1.0000   1.0000   1.0000   1.0000
     1.0000   1.0000   1.0000   1.0000   1.0000   1.0000   1.0000   1.0000
     1.0000   1.0000   1.0000   1.0000   1.0000   1.0000   1.0000   1.0000
     1.0000   1.0000   1.0000   1.0000   1.0000   1.0000   1.0000   1.0000
     1.0000   1.0000   1.0000   1.0000   1.0000   1.0000   1.0000   1.0000
     1.0000   1.0000   1.0000   1.0000   1.0000   1.0000   1.0000   1.0000
     1.0000   1.0000   1.0000   1.0000   1.0000   1.0000   1.0000   1.0000
     1.0000   1.0000   1.0000   1.0000   1.0000   1.0000   1.0000   1.0000
     1.0000   1.0000   1.0000   1.0000   1.0000   1.0000   1.0000   1.0000
     1.0000   1.0000   1.0000   1.0000   1.0000   1.0000   1.0000   1.0000
     1.0000   1.0000   1.0000   1.0000   1.0000   1.0000   1.0000   1.0000
     1.0000   1.0000   1.0000   1.0000   1.0000   1.0000   1.0000   1.0000
     1.0000   1.0000   1.0000   1.0000   1.0000   1.0000   1.0000   1.0000
     1.0000   1.0000   1.0000   1.0000   1.0000   1.0000   1.0000   1.0000
     1.0000   1.0000   1.0000   1.0000   1.0000   1.0000   1.0000   1.0000
     1.0000   1.0000   1.0000   1.0000   1.0000   1.0000   1.0000   1.0000
     1.0000   1.0000   1.0000   1.0000   1.0000   1.0000   1.0000   1.0000
     1.0000   1.0000   1.0000   1.0000   1.0000   1.0000   1.0000   1.0000
     1.0000   1.0000   1.0000   1.0000   1.0000   1.0000   1.0000   1.0000
     1.0000   1.0000   1.0000   1.0000   1.0000   1.0000   1.0000   1.0000
     1.0000   1.0000   1.0000   1.0000   1.0000   1.0000   1.0000   1.0000
     1.0000   1.0000   1.0000   1.0000   1.0000   1.0000   1.0000   1.0000
     1.0000   1.0000   1.0000   1.0000   1.0000   1.0000   1.0000   1.0000
     1.0000   1.0000   1.0000   1.0000   1.0000   1.0000   1.0000   1.0000
     1.0000   1.0000   1.0000   1.0000   1.0000   1.0000   1.0000   1.0000
     1.0000   1.0000   1.0000   1.0000   1.0000   1.0000   1.0000   1.0000
     1.0000   1.0000   1.0000   0.9990   0.1302   0.0000   0.0000   0.0000
     0.0000   0.0000   0.0000   0.0000   0.0000   0.0000   0.0000   0.0000
     0.0000   0.0000   0.0000   0.0000   0.0000   0.0000   0.0000   0.0000
     0.0000   0.0000   0.0000   0.0000   0.0000   0.0000   0.0000   0.0000
     0.0000   0.0000   0.0000   0.0000   0.0000   0.0000   0.0000   0.0000
     0.0000   0.0000   0.0000   0.0000   0.0000   0.0000   0.0000   0.0000
     0.0000   0.0000   0.0000   0.0000   0.0000   0.0000   0.0000   0.0000
     0.0000   0.0000   0.0000   0.0000   0.0000   0.0000   0.0000   0.0000
     0.0000   0.0000   0.0000   0.0000   0.0000   0.0000   0.0000   0.0000
     0.0000   0.0000   0.0000   0.0000   0.0000   0.0000   0.0000   0.0000
     0.0000   0.0000   0.0000   0.0000   0.0000   0.0000   0.0000   0.0000
     0.0000   0.0000   0.0000   0.0000   0.0000   0.0000   0.0000   0.0000
     0.0000   0.0000   0.0000   0.0000   0.0000   0.0000   0.0000   0.0000
     0.0000   0.0000   0.0000   0.0000   0.0000   0.0000   0.0000   0.0000
     0.0000   0.0000   0.0000   0.0000   0.0000   0.0000   0.0000   0.0000
     0.0000   0.0000   0.0000   0.0000   0.0000   0.0000   0.0000   0.0000
     0.0000   0.0000   0.0000   0.0000   0.0000   0.0000   0.0000   0.0000
     0.0000   0.0000   0.0000   0.0000   0.0000   0.0000   0.0000   0.0000
     0.0000   0.0000   0.0000   0.0000   0.0000   0.0000   0.0000   0.0000
     0.0000   0.0000   0.0000   0.0000   0.0000   0.0000   0.0000   0.0000
     0.0000   0.0000   0.0000   0.0000   0.0000   0.0000   0.0000   0.0000
     0.0000   0.0000   0.0000   0.0000   0.0000   0.0000   0.0000   0.0000

          k = 0.0000 0.0000-0.4090 (154532 PWs)   bands (ev):

    -9.5726  -6.8661  -6.8208  -6.6756  -6.6677  -6.6677  -6.6407  -6.5752
    -6.5730  -6.5730  -6.5656  -6.5604  -6.5604  -6.5498  -6.5437  -6.5437
    -6.5415  -6.5215  -6.5215  -6.5122  -6.4941  -6.4773  -6.4773  -6.4641
    -6.4545  -6.4544  -6.4489  -6.4489  -6.4487  -6.4479  -6.4448  -6.4448
    -6.4423  -6.4415  -6.4415  -6.4388  -6.4340  -6.4302  -6.4302  -6.4264
    -6.4219  -6.4219  -6.4196  -6.4164  -6.4163  -6.4131  -6.4131  -6.4098
    -6.4089  -6.4086  -6.4086  -6.4059  -6.4059  -6.4039  -6.4039  -6.4017
    -6.4016  -6.4002  -6.3979  -6.3946  -6.3934  -6.3934  -6.3896  -6.3882
    -6.3882  -6.3875  -6.3857  -6.3813  -6.3813  -6.3765  -6.3718  -6.3718
    -6.3619  -6.3619  -6.3579  -6.3545  -6.3545  -6.3497  -6.3497  -6.3467
    -6.3466  -6.3454  -6.3432  -6.3366  -6.3366  -6.3318  -6.3270  -6.3270
    -6.3237  -6.3211  -6.3210  -6.2683  -6.2047  -6.1937  -6.1937  -5.8169
    -5.5899  -5.5268  -5.5268  -5.5147  -5.5044  -5.5044  -5.5029  -5.4803
    -5.4803  -5.4651  -5.4650  -5.4650  -5.4579  -5.4579  -5.4549  -5.4435
    -5.4282  -5.4281  -5.4151  -5.4124  -5.4124  -5.4004  -5.4001  -5.4001
    -5.3947  -5.3888  -5.3888  -5.3875  -5.3779  -5.3779  -5.3609  -5.3609
    -5.3588  -5.3588  -5.3563  -5.3517  -5.3394  -5.3394  -5.3341  -5.3331
    -5.3331  -5.3297  -5.3235  -5.3235  -5.3208  -5.3205  -5.3204  -5.3191
    -5.3155  -5.3155  -5.3110  -5.3081  -5.3081  -5.3029  -5.3029  -5.3024
    -5.3024  -5.2989  -5.2980  -5.2950  -5.2950  -5.2924  -5.2898  -5.2898
    -5.2880  -5.2880  -5.2874  -5.2850  -5.2840  -5.2839  -5.2839  -5.2827
    -5.2826  -5.2801  -5.2801  -5.2790  -5.2758  -5.2758  -5.2741  -5.2741
    -5.2693  -5.2693  -5.2658  -5.2639  -5.2636  -5.2636  -5.2631  -5.2601
    -5.2601  -5.2600  -5.2570  -5.2570  -5.2554  -5.2554  -5.2553  -5.2539
    -5.2489  -5.2489  -5.2469  -5.2462  -5.2462  -5.2417  -5.2417  -5.2415
    -5.2404  -5.2395  -5.2395  -5.2375  -5.2375  -5.2365  -5.2360  -5.2360
    -5.2360  -5.2333  -5.2333  -5.2322  -5.2322  -5.2315  -5.2304  -5.2292
    -5.2292  -5.2269  -5.2262  -5.2262  -5.2236  -5.2230  -5.2230  -5.2206
    -5.2192  -5.2192  -5.2192  -5.2185  -5.2180  -5.2180  -5.2155  -5.2155
    -5.2135  -5.2135  -5.2107  -5.2107  -5.2100  -5.2097  -5.2097  -5.2019
    -5.2017  -5.2017  -5.2011  -5.1999  -5.1983  -5.1983  -5.1977  -5.1961
    -5.1961  -5.1944  -5.1938  -5.1927  -5.1927  -5.1907  -5.1906  -5.1906
    -5.1899  -5.1883  -5.1883  -5.1883  -5.1868  -5.1868  -5.1861  -5.1860
    -5.1860  -5.1815  -5.1815  -5.1814  -5.1814  -5.1801  -5.1791  -5.1791
    -5.1773  -5.1771  -5.1771  -5.1762  -5.1759  -5.1759  -5.1717  -5.1716
    -5.1706  -5.1706  -5.1697  -5.1691  -5.1672  -5.1672  -5.1666  -5.1664
    -5.1664  -5.1651  -5.1651  -5.1635  -5.1613  -5.1607  -5.1607  -5.1605
    -5.1568  -5.1561  -5.1561  -5.1542  -5.1542  -5.1538  -5.1511  -5.1511
    -5.1508  -5.1493  -5.1493  -5.1473  -5.1473  -5.1464  -5.1438  -5.1438
    -5.1438  -5.1422  -5.1422  -5.1417  -5.1414  -5.1383  -5.1382  -5.1382
    -5.1347  -5.1347  -5.1346  -5.1337  -5.1337  -5.1321  -5.1318  -5.1318
    -5.1308  -5.1308  -5.1290  -5.1290  -5.1289  -5.1285  -5.1272  -5.1258
    -5.1258  -5.1242  -5.1242  -5.1227  -5.1215  -5.1215  -5.1200  -5.1200
    -5.1191  -5.1176  -5.1176  -5.1176  -5.1152  -5.1152  -5.1115  -5.1115
    -5.1115  -5.1102  -5.1102  -5.1065  -5.1052  -5.1042  -5.1042  -5.1021
    -5.1021  -5.1013  -5.1006  -5.0985  -5.0985  -5.0974  -5.0973  -5.0964
    -5.0964  -5.0955  -5.0955  -5.0937  -5.0934  -5.0934  -5.0924  -5.0904
    -5.0904  -5.0898  -5.0881  -5.0881  -5.0871  -5.0864  -5.0864  -5.0848
    -5.0848  -5.0848  -5.0832  -5.0832  -5.0828  -5.0791  -5.0791  -5.0779
    -5.0763  -5.0763  -5.0750  -5.0750  -5.0745  -5.0741  -5.0724  -5.0719
    -5.0719  -5.0663  -5.0663  -5.0661  -5.0631  -5.0631  -5.0604  -5.0604
    -5.0598  -5.0568  -5.0539  -5.0533  -5.0533  -5.0507  -5.0507  -5.0460
    -5.0454  -5.0454  -5.0442  -5.0433  -5.0433  -5.0415  -5.0393  -5.0382
    -5.0382  -5.0346  -5.0346  -5.0340  -5.0331  -5.0319  -5.0319  -5.0236
    -5.0236  -5.0233  -5.0232  -5.0232  -5.0158  -5.0158  -5.0145  -5.0145
    -5.0115  -5.0089  -5.0073  -5.0073  -4.9999  -4.9975  -4.9955  -4.9955
    -4.9877  -4.9877  -4.9831  -4.9831  -4.9776  -4.9761  -4.9761  -4.9694
    -4.9694  -4.9564  -4.9564  -4.9414  -4.9392  -4.9342  -4.9342  -4.9291
    -4.9272  -4.9240  -4.9240  -4.8758  -4.8638  -4.8618  -4.8618  -4.8566
    -4.8566  -4.8417  -4.8315  -4.8315  -4.8164  -4.8071  -4.8045  -4.8045
    -4.7724  -4.7724  -4.7618  -4.7605  -4.7605  -4.7152  -4.6903  -4.6903
    -4.6671  -4.6377  -4.6377  -4.5711  -4.4631  -4.4631  -4.3053  -4.3035
    -4.3034  -4.2958  -4.2847  -4.2847  -4.2667  -4.2667  -4.2164  -4.1760
    -4.1760  -4.0290  -3.8281  -3.8281  -3.8267  -3.8207  -3.7638  -3.7532
    -3.7532  -3.7466  -3.7466  -3.7413  -3.7270  -3.7257  -3.7256  -3.7106
    -3.6158  -3.6061  -3.6061  -3.5347  -3.5347  -3.5067  -3.4429  -3.4429
    -3.4314  -3.4240  -3.4240  -3.4237  -3.4200  -3.4200  -3.4179  -3.4179
    -3.4096  -3.4065  -3.4065  -3.4011  -3.4006  -3.4006  -3.3991  -3.3868
    -3.3854  -3.3853  -3.3616  -3.3571  -3.3571  -3.3217  -3.3217  -3.3085
    -3.2090  -3.1664  -3.1664  -3.1057  -3.0658  -3.0658  -3.0583  -3.0446
    -3.0446  -2.9986  -2.9986  -2.9845  -2.9438  -2.9303  -2.9303  -2.9155
    -2.8752  -2.8752  -2.4053  -1.3614   2.1446   2.1446   2.3347   2.3347
     2.3350   2.3510   2.4082   2.4083   2.4094   2.4399   2.4400   2.4428
     2.5005   2.5190   2.5678   2.5678   2.7586   2.8841   2.8841   2.9220
     2.9221   2.9235   2.9449   2.9550   2.9550   2.9727   2.9727   2.9733
     2.9798   2.9848   2.9848   2.9892   2.9892   2.9956   2.9988   3.0006
     3.0006   3.0060   3.0060   3.0154   3.0154   3.0187   3.0195   3.0195
     3.0456   3.0489   3.0579   3.0579   3.1441   3.1811   3.1811   3.2811
     3.3435   3.3435   3.3441   3.4435   3.4435   3.5643   3.6259   3.6259
     3.6494   3.6589   3.6589   3.6841   3.7114   3.7115   3.7153   3.8920
     3.8920   4.0825   4.1999   4.2163   4.2163   4.2242   4.2321   4.2321
     4.2364   4.2364   4.2439   4.3670   4.3670   4.6748   4.7884   4.9156
     4.9157   4.9323   4.9344   4.9396   4.9396   4.9599   4.9613   4.9613
     4.9903   4.9905   5.0095   5.0096   5.0473   5.0668   5.0668   5.0820
     5.0963   5.0963   5.0994   5.1202   5.1203   5.1399   5.1399   5.1408
     5.2107   5.2108   5.2368   5.2419   5.2419   5.3062   5.3679   5.3679
     5.3909   5.4192   5.4192   5.4350   5.4418   5.4418   5.4627   5.4900
     5.4900   5.5057   5.5477   5.5601   5.5601   5.5663   5.5665   5.5754
     5.5755   5.5883   5.5883   5.6019   5.6147   5.6148   5.6236   5.6489
     5.6489   5.6612   5.6909   5.6910   5.7360   5.7360   5.7645   5.9327
     5.9327   6.2283   6.2441   6.2441   6.2914   6.3512   6.3512   6.4343
     6.5276   6.5424   6.5424   6.5735   6.5960   6.5960   6.5987   6.6013
     6.6087   6.6087   6.6700   6.6701   6.7510   6.7510   6.7511   6.7612
     6.7623   6.7623   6.7682   6.7682   6.7849   6.7988   6.7988   6.8371
     6.8371   6.8714   6.8721   6.8849   6.8849   6.8876   6.8918   6.8919
     6.8973   6.8973   6.9049   6.9049   6.9248   6.9358   6.9366   6.9526
     6.9527   6.9613   6.9613   6.9692   6.9726   6.9726   6.9740   6.9838
     6.9926   7.0147   7.0147   7.0633   7.0633   7.0708   7.1107   7.1107
     7.1292   7.1292   7.1518   7.1518   7.1543   7.1558   7.1573   7.1666
     7.1666   7.1810   7.1954   7.1954   7.2105   7.2105   7.2243   7.2880
     7.3414   7.3414   7.3663   7.3703   7.3704   7.4863   7.4877   7.4877
     7.4919   7.4975   7.4976   7.5085   7.5517   7.5537   7.5538   7.6144
     7.6144   7.6466   7.6854   7.6880   7.6880   7.7389   7.7390   7.8209
     7.8339   7.8340   7.8420   7.9276   7.9276   7.9614   7.9614   7.9763
     7.9963   8.0036   8.0036   8.0388   8.0388   8.0709   8.0795   8.0795
     8.0898   8.0898   8.0936   8.1422   8.1645   8.1645   8.1649   8.1793
     8.1823   8.1823   8.2151   8.2152   8.2917   8.2918   8.6059   8.6060
     8.7142   8.7143   8.7202   9.8939  10.7084  11.0024  11.5981  12.1570
    12.1570  12.5927  12.6158  12.6158  12.6451  12.6648  12.7254  12.7352
    12.7352  12.7379  12.7498  12.7498  12.7777  12.8186  12.8631  12.9788
    12.9788  13.0420  13.0420  13.1371  13.1816  13.1816  13.2409  13.3002
    13.3340  13.3341  13.4205  13.5233  13.5233  13.6214  13.6215  13.6689
    13.6689  13.6906  13.7162  13.7232  13.7233  13.7708  13.7831  13.7832
    13.8350  13.8676  13.8677  13.8895  14.0363  14.0363  14.0385  14.2113
    14.2114  14.2364  14.2578  14.2578  14.3613  14.3639  14.3639  14.3768
    14.3768  14.3982  14.4035  14.4256  14.4257  14.4406  14.4515  14.4524
    14.4524  14.4675  14.4675  14.5014  14.5495  14.5496  14.6225  14.6225
    14.6372  14.6784  14.6784  14.6825  14.6902  14.6902  14.7103  14.7304
    14.7304  14.7961  14.8010  14.8184  14.8354  14.8354  14.8357  14.8575
    14.8677  14.8677  15.0100  15.0100  15.3528  15.3528  15.3742  15.5296
    15.5450  15.5450  15.5512  15.6114  15.6562  15.6563  15.7287  15.7287
    15.8656  15.9118  15.9118  15.9708  15.9709  15.9764  16.0011  16.0012
    16.0069  16.0249  16.0438  16.0546  16.0546  16.0593  16.0593  16.0804
    16.0804  16.0858  16.0955  16.0956  16.1162  16.1304  16.1304  16.1619
    16.1625  16.1625  16.1667  16.1842  16.1843  16.2038  16.2085  16.2107
    16.2107  16.2420  16.2420  16.3190  16.3199  16.3199  16.3522  16.3894
    16.3894  16.3937  16.4121  16.4122  16.4342  16.4546  16.4547  16.4547
    16.4722  16.4822  16.4920  16.4920  16.4981  16.5005  16.5005  16.5293
    16.5293  16.5328  16.5537  16.5537  16.5587  16.5587  16.5978  16.6296

     occupation numbers 
     1.0000   1.0000   1.0000   1.0000   1.0000   1.0000   1.0000   1.0000
     1.0000   1.0000   1.0000   1.0000   1.0000   1.0000   1.0000   1.0000
     1.0000   1.0000   1.0000   1.0000   1.0000   1.0000   1.0000   1.0000
     1.0000   1.0000   1.0000   1.0000   1.0000   1.0000   1.0000   1.0000
     1.0000   1.0000   1.0000   1.0000   1.0000   1.0000   1.0000   1.0000
     1.0000   1.0000   1.0000   1.0000   1.0000   1.0000   1.0000   1.0000
     1.0000   1.0000   1.0000   1.0000   1.0000   1.0000   1.0000   1.0000
     1.0000   1.0000   1.0000   1.0000   1.0000   1.0000   1.0000   1.0000
     1.0000   1.0000   1.0000   1.0000   1.0000   1.0000   1.0000   1.0000
     1.0000   1.0000   1.0000   1.0000   1.0000   1.0000   1.0000   1.0000
     1.0000   1.0000   1.0000   1.0000   1.0000   1.0000   1.0000   1.0000
     1.0000   1.0000   1.0000   1.0000   1.0000   1.0000   1.0000   1.0000
     1.0000   1.0000   1.0000   1.0000   1.0000   1.0000   1.0000   1.0000
     1.0000   1.0000   1.0000   1.0000   1.0000   1.0000   1.0000   1.0000
     1.0000   1.0000   1.0000   1.0000   1.0000   1.0000   1.0000   1.0000
     1.0000   1.0000   1.0000   1.0000   1.0000   1.0000   1.0000   1.0000
     1.0000   1.0000   1.0000   1.0000   1.0000   1.0000   1.0000   1.0000
     1.0000   1.0000   1.0000   1.0000   1.0000   1.0000   1.0000   1.0000
     1.0000   1.0000   1.0000   1.0000   1.0000   1.0000   1.0000   1.0000
     1.0000   1.0000   1.0000   1.0000   1.0000   1.0000   1.0000   1.0000
     1.0000   1.0000   1.0000   1.0000   1.0000   1.0000   1.0000   1.0000
     1.0000   1.0000   1.0000   1.0000   1.0000   1.0000   1.0000   1.0000
     1.0000   1.0000   1.0000   1.0000   1.0000   1.0000   1.0000   1.0000
     1.0000   1.0000   1.0000   1.0000   1.0000   1.0000   1.0000   1.0000
     1.0000   1.0000   1.0000   1.0000   1.0000   1.0000   1.0000   1.0000
     1.0000   1.0000   1.0000   1.0000   1.0000   1.0000   1.0000   1.0000
     1.0000   1.0000   1.0000   1.0000   1.0000   1.0000   1.0000   1.0000
     1.0000   1.0000   1.0000   1.0000   1.0000   1.0000   1.0000   1.0000
     1.0000   1.0000   1.0000   1.0000   1.0000   1.0000   1.0000   1.0000
     1.0000   1.0000   1.0000   1.0000   1.0000   1.0000   1.0000   1.0000
     1.0000   1.0000   1.0000   1.0000   1.0000   1.0000   1.0000   1.0000
     1.0000   1.0000   1.0000   1.0000   1.0000   1.0000   1.0000   1.0000
     1.0000   1.0000   1.0000   1.0000   1.0000   1.0000   1.0000   1.0000
     1.0000   1.0000   1.0000   1.0000   1.0000   1.0000   1.0000   1.0000
     1.0000   1.0000   1.0000   1.0000   1.0000   1.0000   1.0000   1.0000
     1.0000   1.0000   1.0000   1.0000   1.0000   1.0000   1.0000   1.0000
     1.0000   1.0000   1.0000   1.0000   1.0000   1.0000   1.0000   1.0000
     1.0000   1.0000   1.0000   1.0000   1.0000   1.0000   1.0000   1.0000
     1.0000   1.0000   1.0000   1.0000   1.0000   1.0000   1.0000   1.0000
     1.0000   1.0000   1.0000   1.0000   1.0000   1.0000   1.0000   1.0000
     1.0000   1.0000   1.0000   1.0000   1.0000   1.0000   1.0000   1.0000
     1.0000   1.0000   1.0000   1.0000   1.0000   1.0000   1.0000   1.0000
     1.0000   1.0000   1.0000   1.0000   1.0000   1.0000   1.0000   1.0000
     1.0000   1.0000   1.0000   1.0000   1.0000   1.0000   1.0000   1.0000
     1.0000   1.0000   1.0000   1.0000   1.0000   1.0000   1.0000   1.0000
     1.0000   1.0000   1.0000   1.0000   1.0000   1.0000   1.0000   1.0000
     1.0000   1.0000   1.0000   1.0000   1.0000   1.0000   1.0000   1.0000
     1.0000   1.0000   1.0000   1.0000   1.0000   1.0000   1.0000   1.0000
     1.0000   1.0000   1.0000   1.0000   1.0000   1.0000   1.0000   1.0000
     1.0000   1.0000   1.0000   1.0000   1.0000   1.0000   1.0000   1.0000
     1.0000   1.0000   1.0000   1.0000   1.0000   1.0000   1.0000   1.0000
     1.0000   1.0000   1.0000   1.0000   1.0000   1.0000   1.0000   1.0000
     1.0000   1.0000   1.0000   1.0000   1.0000   1.0000   1.0000   1.0000
     1.0000   1.0000   1.0000   1.0000   1.0000   1.0000   1.0000   1.0000
     1.0000   1.0000   1.0000   1.0000   1.0000   1.0000   1.0000   1.0000
     1.0000   1.0000   1.0000   1.0000   1.0000   1.0000   1.0000   1.0000
     1.0000   1.0000   1.0000   1.0000   1.0000   1.0000   1.0000   1.0000
     1.0000   1.0000   1.0000   1.0000   1.0000   1.0000   1.0000   1.0000
     1.0000   1.0000   1.0000   1.0000   1.0000   1.0000   1.0000   1.0000
     1.0000   1.0000   1.0000   1.0000   1.0000   1.0000   1.0000   1.0000
     1.0000   1.0000   1.0000   1.0000   1.0000   1.0000   1.0000   1.0000
     1.0000   1.0000   1.0000   1.0000   1.0000   1.0000   1.0000   1.0000
     1.0000   1.0000   1.0000   1.0000   1.0000   1.0000   1.0000   1.0000
     1.0000   1.0000   1.0000   1.0000   1.0000   1.0000   1.0000   1.0000
     1.0000   1.0000   1.0000   1.0000   1.0000   1.0000   1.0000   1.0000
     1.0000   1.0000   1.0000   1.0000   1.0000   1.0000   1.0000   1.0000
     1.0000   1.0000   1.0000   1.0000   1.0000   1.0000   1.0000   1.0000
     1.0000   1.0000   1.0000   1.0000   1.0000   1.0000   1.0000   1.0000
     1.0000   1.0000   1.0000   1.0000   1.0000   1.0000   1.0000   1.0000
     1.0000   1.0000   1.0000   1.0000   1.0000   1.0000   1.0000   1.0000
     1.0000   1.0000   1.0000   1.0000   1.0000   1.0000   1.0000   1.0000
     1.0000   1.0000   1.0000   1.0000   1.0000   1.0000   1.0000   1.0000
     1.0000   1.0000   1.0000   1.0000   1.0000   1.0000   1.0000   1.0000
     1.0000   1.0000   1.0000   1.0000   1.0000   1.0000   1.0000   1.0000
     1.0000   1.0000   1.0000   1.0000   1.0000   1.0000   1.0000   1.0000
     1.0000   1.0000   1.0000   1.0000   1.0000   1.0000   1.0000   1.0000
[...]
              0.163411489216891E+03
              0.493379220339804E+01
              0.509329096146635E+03
              0.707042241701811E+02
             -0.742461302881011E+02
              0.290729570687840E+02
             -0.683038329137680E+02
              0.399986771766060E+03
             -0.237441863082427E+01
              0.764633990942586E+02
              0.277717257156013E+03
              0.745580109950315E+02
             -0.210919732017616E+03
             -0.342069169381662E+03
              0.192521020468475E+02
             -0.389198194933586E+03
              0.130493398997181E+03
             -0.674876576626765E+02
             -0.149817481818326E+03
              0.151813667676999E+03
              0.525615667343859E+02
              0.146109964158045E+03
              0.631623739378199E+01
              0.216902289280478E+03
             -0.368360777018072E+03
             -0.261904506506446E+02
             -0.323392837649987E+03
              0.721981530545563E+02
              0.177331901334870E+03
             -0.179631261497266E+02
             -0.118108482994261E+03
              0.265277730090431E+03
             -0.122759712545942E+03
              0.907543976625261E+02
             -0.779694815095702E+02
              0.209995696134730E+03
              0.220889774258927E+03
             -0.956096894291923E+02
              0.189470027636246E+03
              0.711365419485146E+02
             -0.191213616485450E+03
             -0.124878260417740E+03
              0.307162693695002E+03
              0.150683955593849E+03
             -0.129880469938486E+02
             -0.325573967395626E+02
              0.473101970531692E+03
              0.278947122627591E+03
              0.991942681171925E+02
             -0.298025455101723E+03
              0.477394833519456E+03
             -0.222936772477244E+03
             -0.275335704244750E+03
             -0.414827475829984E+03
              0.184980373996727E+03
             -0.372841965039054E+03
              0.168585947955937E+03
              0.272551174063770E+03
              0.194033894614075E+03
              0.494589879719569E+02
              0.128530136915876E+03
             -0.307326111342915E+03
             -0.110078786229222E+03
             -0.835846991537810E+02
              0.157705769106912E+03
              0.312435160517451E+03
              0.322979645207781E+03
              0.249057286641671E+03
             -0.571293341670516E+02
              0.793666853547243E+02
              0.436516489621022E+01
             -0.102449436609650E+03
              0.131609398084409E+03
              0.143332721403447E+03
             -0.181540835269291E+03
             -0.215939345232533E+03
             -0.851945337371774E+02
              0.224365452775337E+03
              0.107501603681278E+03
             -0.153945359630984E+03
             -0.235690175082105E+03
             -0.343161278618364E+03
              0.705223643147201E+01
              0.920741493243131E+02
             -0.129639554542981E+03
              0.480036579823599E+03
              0.233471326336116E+02
             -0.544026126715741E+03
              0.120402911239513E+03
              0.238552319879981E+03
             -0.109347925726222E+03
              0.132090464153814E+02
             -0.151496515838927E+03
              0.222505864901816E+03
              0.102890199129506E+03
             -0.284703934971364E+03
              0.339096251567275E+03
              0.949683502207449E+01
             -0.145544415433663E+03
             -0.172709563211006E+03
              0.675080333550252E+03
              0.300783282000420E+03
             -0.838252862483355E+02
              0.165663645851680E+03
             -0.295069038129686E+03
             -0.527513588713859E+02
             -0.299416947287138E+03
              0.119959408255741E+03
              0.203785572616187E+03
              0.242058610090878E+03
             -0.964286719338234E+02
              0.285015529734264E+02
              0.276358249427677E+03
              0.102368062922058E+03
              0.173260708091499E+03
              0.737763718559393E+02
             -0.497818889066170E+02
              0.741903125280726E+01
             -0.455990645607368E+02
              0.703959333950236E+02
              0.155556345501489E+02
             -0.251729087009849E+03
              0.383362157039457E+03
              0.153331521525556E+03
             -0.275384688430659E+03
             -0.204336207881184E+03
             -0.296156362477419E+03
             -0.140273616029790E+03
             -0.103140139375867E+03
             -0.229066700928449E+03
             -0.224228104938973E+03
              0.282784015454788E+03
              0.222962741540853E+03
             -0.278380691044272E+02
              0.325056408965043E+03
              0.616387946001860E+02
             -0.524744730847743E+03
              0.295976986063007E+03
              0.684050677580465E+02
              0.228289839802146E+03
              0.510011014432570E+02
              0.382041041102458E+02
              0.452557114476529E+02
              0.118885987618024E+03
             -0.217554817008742E+03
             -0.108638135612485E+03
             -0.199744176965163E+03
             -0.165831574492629E+03
              0.756227262675616E+02
             -0.189975951060786E+03
              0.887855061777669E+02
              0.117503220177362E+03
             -0.125100049082534E+03
             -0.659420341872027E+02
             -0.581438685288879E+01
              0.324827604287039E+03
              0.515996157233774E+02
              0.322128878131433E+03
              0.114553833429703E+03
             -0.416013601630086E+03
             -0.141667002641048E+03
              0.142183975650543E+03
              0.319932015590644E+03
              0.616389288442174E+02
              0.125009851612674E+03
              0.301747491125940E+03
             -0.175601862528256E+03
             -0.285052124157594E+03
              0.370233214993679E+03
              0.604708337949478E+01
             -0.392646986803986E+03
              0.131613798531164E+03
              0.259870780436789E+03
             -0.599918976586691E+02
             -0.245691667450081E+03
              0.436205930303872E+02
              0.161020841924928E+02
             -0.134482570977801E+03
              0.488452987688506E+02
             -0.419507074819816E+02
              0.578526887046920E+03
              0.159472828191496E+03
             -0.265543370893665E+03
              0.803630501535533E+02
              0.371524568478789E+03
             -0.238023615965596E+03
             -0.635514457143593E+02
             -0.210631103744834E+03
              0.168122793964914E+03
              0.715477290239927E+02
              0.111629073407344E+03
              0.855602099571479E+01
              0.417138428439044E+03
             -0.233343423526428E+03
             -0.177135082845740E+03
             -0.195449443876353E+03
              0.168085189552687E+03
              0.401276299319778E+03
             -0.506887413704068E+02
              0.165793694509217E+03
             -0.224344553871665E+03
              0.224202735739259E+02
             -0.664407304914417E+02
             -0.224451030257287E+02
             -0.955581965495144E+02
             -0.879657936583225E+02
             -0.648678091646320E+02
              0.694228098643325E+02
              0.116926078102232E+03
             -0.269280849204511E+03
              0.195701991293669E+03
             -0.316278602261634E+03
              0.236209175865675E+03
             -0.274306358694740E+03
              0.415032539488602E+03
              0.221241836224628E+03
              0.246800727093616E+03
              0.564916149707706E+02
              0.633793164206108E+02
             -0.556813684698826E+03
              0.955666642460828E+02
              0.253390656487968E+02
              0.437056336969017E+02
             -0.830323614308016E+02
              0.433247999976760E+03
             -0.131828052288741E+03
             -0.171073293944451E+03
             -0.429662410004070E+03
             -0.142997678960561E+03
             -0.195084101346933E+03
             -0.173026110319105E+03
             -0.474345285042780E+02
             -0.905345387074262E+02
             -0.120018106007777E+03
             -0.180441068603661E+03
              0.134484716092499E+03
              0.444518954022144E+03
              0.379074217489440E+03
             -0.754967360672058E+02
             -0.465182595306002E+03
             -0.195589826145488E+03
              0.897168162298913E+02
              0.992967131032810E+02
              0.143769331530640E+03
              0.111947429549777E+03
              0.364719794611399E+02
              0.430395774359374E+03
             -0.106785059724843E+03
              0.218428975871629E+03
              0.100205816357280E+03
             -0.140939205178443E+03
             -0.886833991050873E+02
              0.199006281858547E+03
             -0.115243427786833E+03
             -0.818426572724142E+02
             -0.530686685582298E+02
              0.248665071046623E+03
             -0.333213361206903E+03
             -0.367277015682453E+02
             -0.272882830739852E+03
             -0.590043876779981E+03
              0.224255658118682E+01
             -0.730284646709309E+02
              0.202627165056502E+03
              0.240884151666433E+03
              0.330439498582243E+03
             -0.217334572765281E+03
              0.353566967918970E+03
              0.924484142636607E+02
             -0.105379060944932E+03
              0.638726183273847E+02
             -0.112325349758555E+03
             -0.785952811952138E+02
              0.180001356132700E+03
             -0.175547045040744E+03
              0.427025400323850E+03
             -0.109174399166385E+03
             -0.228386749467252E+03
              0.434609218294447E+03
             -0.244229431149840E+03
             -0.362225986237163E+02
              0.444198228472233E+02
              0.134788654797432E+03
             -0.199094077615793E+03
             -0.149138266201489E+03
              0.226607894569322E+03
             -0.367647215257473E+03
              0.269926533728296E+03
              0.353186884663260E+02
              0.210863566126434E+03
              0.292335840572072E+03
              0.735698468136599E+02
             -0.384672019718847E+03
             -0.169910115570734E+03
             -0.284393525261640E+03
             -0.178307853389675E+03
             -0.587635518144334E+02
              0.698736637989695E+02
             -0.133366123538867E+03
              0.940963980575771E+01
             -0.432698101213946E+03
              0.106834629977917E+02
             -0.273463135821890E+03
              0.268597957653998E+03
             -0.144340485691353E+03
             -0.283839770628390E+02
              0.193299064581059E+03
              0.207187228274992E+02
              0.192458031489106E+03
             -0.344851066808322E+03
              0.756647602630082E+02
              0.238356684320372E+02
              0.138593447866392E+03
              0.248945205737048E+03
             -0.434823693553681E+02
             -0.273096669925830E+03
             -0.156258286217272E+03
             -0.107937659114521E+03
             -0.525627855461553E+02
              0.257519802628738E+03
              0.158560948433289E+03
             -0.165601684023429E+03
             -0.151052411812845E+03
              0.124837241678379E+03
              0.122157279586601E+03
             -0.338543808094854E+03
              0.948559256225182E+02
              0.248438750821275E+03
             -0.122086931520496E+02
              0.291028417681909E+03
              0.147656068403329E+03
              0.232599779834375E+03
              0.353171203654147E+03
              0.579035969312482E+02
             -0.494020556495064E+03
              0.507025545431326E+02
              0.547931234549835E+03
              0.394199956853305E+03
             -0.264321322770032E+03
              0.263530526890428E+02
              0.342957330603160E+03
              0.311803634478731E+03
              0.148292461631595E+03
             -0.786076888185655E+02
              0.142088819135312E+03
              0.298682075617514E+03
             -0.133421232930378E+03
             -0.955768414373152E+02
              0.186371083971926E+03
             -0.133973025972150E+02
              0.174872457397855E+03
             -0.436721089412267E+02
              0.360669432301426E+03
             -0.137488493016749E+03
              0.822457222041935E+02
             -0.168143835250185E+03
              0.170373013204872E+03
             -0.225103593341371E+02
              0.269212114061970E+03
              0.187994707110649E+02
              0.106255505039388E+03
             -0.178663931390773E+03
             -0.109891678114515E+03
             -0.518606036038018E+02
             -0.446420758501401E+02
              0.282657145819177E+03
              0.117042538679122E+03
              0.362908619600312E+03
              0.301746934504190E+03
              0.674521256385578E+02
              0.258900639686055E+01
              0.354539518342883E+03
              0.186608927370839E+03
              0.506832647246893E+01
              0.314977558612582E+03
             -0.282638087103605E+03
              0.927910922298888E+02
             -0.177703506392505E+03
             -0.712828979998496E+02
              0.453502744633460E+03
             -0.694770038372403E+02
             -0.332759671721033E+01
             -0.597658019601986E+02
              0.376943474223920E+03
             -0.879730154264730E+02
             -0.104546569872341E+02
              0.761006449289316E+03
             -0.245954615296060E+03
             -0.262495870219275E+03
             -0.275574218951702E+03
             -0.161494353512529E+03
              0.160794905601877E+03
             -0.687408454456277E+02
              0.445682272153085E+02
             -0.139101416811832E+02
              0.962918998592331E+02
              0.156999328094894E+03
              0.180862626123572E+03
              0.266253587960977E+03
              0.146943420684113E+03
              0.186875725638727E+03
             -0.301885207695801E+03
             -0.288818102784314E+03
             -0.731769547021045E+02
             -0.283206766792932E+03
              0.453564333617536E+03
              0.388745147691686E+03
              0.185745348494511E+03
              0.502913456124056E+03
             -0.261777022927979E+03
             -0.106725372986660E+03
             -0.148351329247692E+03
              0.415929997170889E+03
 
 BEEF-vdW xc energy contributions
            1 :    -3812.444018537484     
            2 :     3433.537531255293     
            3 :    -2798.772477610627     
            4 :     2094.000385311587     
            5 :    -1482.717647819561     
            6 :     1043.879362320985     
            7 :    -763.1215229244085     
            8 :     573.1975830328029     
            9 :    -411.0472228008589     
           10 :     254.3795548271373     
           11 :    -120.2463667000306     
           12 :     35.94085269754032     
           13 :    -8.990177998685340     
           14 :     18.45904410317144     
           15 :    -30.41969486472726     
           16 :     22.09300397258494     
           17 :     5.081677694743576     
           18 :    -32.11510322319236     
           19 :     41.34825181825454     
           20 :    -31.51615983051079     
           21 :     17.73273204635234     
           22 :    -18.06657581993250     
           23 :     38.67174372777527     
           24 :    -69.40047295797422     
           25 :     92.49055800901306     
           26 :    -96.43171862701502     
           27 :     83.76614547188956     
           28 :    -67.34426230833060     
           29 :     59.10480670529978     
           30 :    -60.93861068917658     
           31 :    -327.0814240191535     
           32 :    -224.1083443444131     

     Writing all to output data dir ./GaN.save/
 
     init_run     :      7.17s CPU     11.95s WALL (       1 calls)
     electrons    :    382.14s CPU    393.00s WALL (       1 calls)
     forces       :     10.04s CPU     10.24s WALL (       1 calls)
     stress       :    169.07s CPU    171.07s WALL (       1 calls)

     Called by init_run:
     wfcinit      :      3.37s CPU      7.81s WALL (       1 calls)
     potinit      :      1.03s CPU      1.13s WALL (       1 calls)
     hinit0       :      1.86s CPU      2.07s WALL (       1 calls)

     Called by electrons:
     c_bands      :    373.10s CPU    383.32s WALL (       2 calls)
     sum_band     :      6.85s CPU      6.99s WALL (       2 calls)
     v_of_rho     :      1.18s CPU      1.29s WALL (       2 calls)
     v_h          :      0.01s CPU      0.01s WALL (       2 calls)
     v_xc         :     19.72s CPU     20.10s WALL (      38 calls)
     newd         :      0.23s CPU      0.24s WALL (       2 calls)
     PAW_pot      :      0.53s CPU      0.54s WALL (       2 calls)
     mix_rho      :      0.00s CPU      0.00s WALL (       2 calls)
     vdW_kernel   :      0.16s CPU      0.17s WALL (       1 calls)

     Called by c_bands:
     init_us_2    :      0.25s CPU      0.26s WALL (       4 calls)
     init_us_2:cp :      0.25s CPU      0.26s WALL (       4 calls)
     cegterg      :    336.99s CPU    345.60s WALL (       2 calls)

     Called by sum_band:
     sum_band:wei :      0.01s CPU      0.01s WALL (       2 calls)
     sum_band:loo :      6.39s CPU      6.46s WALL (       2 calls)
     sum_band:buf :      0.00s CPU      0.00s WALL (       2 calls)
     sum_band:ini :      0.22s CPU      0.22s WALL (       2 calls)
     sum_band:cal :      3.86s CPU      3.90s WALL (       2 calls)
     sum_band:bec :      0.05s CPU      0.05s WALL (       2 calls)
     addusdens    :      0.20s CPU      0.21s WALL (       2 calls)
     addusd:skk   :      0.03s CPU      0.04s WALL (       4 calls)
     addusd:dgemm :      0.10s CPU      0.10s WALL (       4 calls)
     addusd:qvan2 :      0.03s CPU      0.03s WALL (       4 calls)

     Called by *egterg:
     cdiaghg      :    268.31s CPU    274.44s WALL (      18 calls)
     cegterg:over :     13.17s CPU     13.69s WALL (      18 calls)
     cegterg:upda :      7.40s CPU      7.57s WALL (      18 calls)
     cegterg:last :      3.59s CPU      3.62s WALL (       2 calls)
     h_psi        :     30.73s CPU     31.30s WALL (      20 calls)
     s_psi        :      9.48s CPU      9.70s WALL (      20 calls)
     g_psi        :      0.05s CPU      0.05s WALL (      18 calls)

     Called by h_psi:
     h_psi:calbec :     10.23s CPU     10.31s WALL (      20 calls)
     vloc_psi     :     10.86s CPU     10.98s WALL (      20 calls)
     add_vuspsi   :      9.47s CPU      9.70s WALL (      20 calls)

     General routines
     calbec       :     23.77s CPU     23.98s WALL (      27 calls)
     fft          :      8.12s CPU      8.25s WALL (    2232 calls)
     ffts         :      0.02s CPU      0.02s WALL (       4 calls)
     fftw         :     12.16s CPU     12.29s WALL (   12266 calls)
     interpolate  :      0.01s CPU      0.01s WALL (       2 calls)
 
     Parallel routines

     PAW routines
     PAW_pot      :      0.53s CPU      0.54s WALL (       2 calls)
     PAW_symme    :      0.01s CPU      0.01s WALL (       3 calls)
 
     PWSCF        :   9m48.43s CPU  10m13.42s WALL

 
   This run was terminated on:   8: 3:58   3Mar2024            

=------------------------------------------------------------------------------=
   JOB DONE.
=------------------------------------------------------------------------------=
