
     Program PWSCF v.7.2 starts on 30Sep2023 at  7:19:31 

     This program is part of the open-source Quantum ESPRESSO suite
     for quantum simulation of materials; please cite
         "P. Giannozzi et al., J. Phys.:Condens. Matter 21 395502 (2009);
         "P. Giannozzi et al., J. Phys.:Condens. Matter 29 465901 (2017);
         "P. Giannozzi et al., J. Chem. Phys. 152 154105 (2020);
          URL http://www.quantum-espresso.org", 
     in publications or presentations arising from this work. More details at
     http://www.quantum-espresso.org/quote

     Parallel version (MPI & OpenMP), running on     128 processor cores
     Number of MPI processes:               128
     Threads/MPI process:                     1

     MPI processes distributed on     1 nodes
     1521743 MiB available memory on the printing compute node when the environment starts
 
     Reading input from espresso.pwi
Warning: card &CELL ignored
Warning: card    CELL_DYNAMICS    = 'BFGS' ignored
Warning: card / ignored

     Current dimensions of program PWSCF are:
     Max number of different atomic species (ntypx) = 10
     Max number of k-points (npk) =  40000
     Max angular momentum in pseudopotentials (lmaxx) =  4
     file C.pbe-n-kjpaw_psl.1.0.0.UPF: wavefunction(s)  2S 2P renormalized

     **************************************************************************
     Initializing libbeef V0.1.2 with the BEEF-vdW functional.
     Citation: Wellendorff et al., PRB 85, 235149 (2012).
     **************************************************************************


     IMPORTANT: XC functional enforced from input :
     Exchange-correlation= BEEF-VDW
                           (   1   4  43  14   2   0   0)
     Any further DFT definition will be discarded
     Please, verify this is what you really want

 
     K-points division:     npool     =       4
     R & G space division:  proc/nbgrp/npool/nimage =      32
     Subspace diagonalization in iterative solution of the eigenvalue problem:
     one sub-group per band group will be used
     scalapack distributed-memory algorithm (size of sub-group:  2*  2 procs)

 
     Parallelization info
     --------------------
     sticks:   dense  smooth     PW     G-vecs:    dense   smooth      PW
     Min         158     126     34                 8504     6078     876
     Max         160     127     35                 8506     6081     881
     Sum        5073    4049   1109               272153   194543   28113
 
     Using Slab Decomposition
 


     bravais-lattice index     =            1
     lattice parameter (alat)  =      13.5013  a.u.
     unit-cell volume          =    2461.1121 (a.u.)^3
     number of atoms/cell      =           63
     number of atomic types    =            1
     number of electrons       =       254.00
     number of Kohn-Sham states=          152
     kinetic-energy cutoff     =      70.0000  Ry
     charge density cutoff     =     350.0000  Ry
     scf convergence threshold =      1.0E-08
     mixing beta               =       0.7000
     number of iterations used =            8  plain     mixing
     energy convergence thresh.=      1.0E-04
     force convergence thresh. =      1.0E-03
     Exchange-correlation= BEEF-VDW
                           (   1   4  43  14   2   0   0)
     nstep                     =           50


     celldm(1)=  13.501348  celldm(2)=   0.000000  celldm(3)=   0.000000
     celldm(4)=   0.000000  celldm(5)=   0.000000  celldm(6)=   0.000000

     crystal axes: (cart. coord. in units of alat)
               a(1) = (   1.000000   0.000000   0.000000 )  
               a(2) = (   0.000000   1.000000   0.000000 )  
               a(3) = (   0.000000   0.000000   1.000000 )  

     reciprocal axes: (cart. coord. in units 2 pi/alat)
               b(1) = (  1.000000  0.000000  0.000000 )  
               b(2) = (  0.000000  1.000000  0.000000 )  
               b(3) = (  0.000000  0.000000  1.000000 )  


     PseudoPot. # 1 for C  read from file:
     /trace/group/acmegroup/atimmins/packages/espresso/pseudo/psl_1.0.0/pslibrary.1.0.0/pbe/PSEUDOPOTENTIALS/C.pbe-n-kjpaw_psl.1.0.0.UPF
     MD5 check sum: 5459cf7f2c8c37df2f7cde8914797f4d
     Pseudo is Projector augmented-wave + core cor, Zval =  4.0
     Generated using 'atomic' code by A. Dal Corso  v.7.1
     Shape of augmentation charge: PSQ
     Using radial grid of 1073 points,  4 beta functions with: 
                l(1) =   0
                l(2) =   0
                l(3) =   1
                l(4) =   1
     Q(r) pseudized with 0 coefficients 


     atomic species   valence    mass     pseudopotential
        C              4.00    12.01100     C ( 1.00)

      6 Sym. Ops. (no inversion) found ( 4 have fractional translation)


                                    s                        frac. trans.

      isym =  1     identity                                     

 cryst.   s( 1) = (     1          0          0      )
                  (     0          1          0      )
                  (     0          0          1      )

 cart.    s( 1) = (  1.0000000  0.0000000  0.0000000 )
                  (  0.0000000  1.0000000  0.0000000 )
                  (  0.0000000  0.0000000  1.0000000 )


      isym =  2     120 deg rotation - cart. axis [1,-1,1]       

 cryst.   s( 2) = (     0          0          1      )    f =( -0.5000000 )
                  (    -1          0          0      )       ( -0.5000000 )
                  (     0         -1          0      )       (  0.0000000 )

 cart.    s( 2) = (  0.0000000 -1.0000000  0.0000000 )    f =( -0.5000000 )
                  (  0.0000000  0.0000000 -1.0000000 )       ( -0.5000000 )
                  (  1.0000000  0.0000000  0.0000000 )       (  0.0000000 )


      isym =  3     120 deg rotation - cart. axis [-1,1,-1]      

 cryst.   s( 3) = (     0         -1          0      )    f =(  0.0000000 )
                  (     0          0         -1      )       ( -0.5000000 )
                  (     1          0          0      )       ( -0.5000000 )

 cart.    s( 3) = (  0.0000000  0.0000000  1.0000000 )    f =(  0.0000000 )
                  ( -1.0000000  0.0000000  0.0000000 )       ( -0.5000000 )
                  (  0.0000000 -1.0000000  0.0000000 )       ( -0.5000000 )


      isym =  4     inv. 180 deg rotation - cart. axis [1,1,0]   

 cryst.   s( 4) = (     0         -1          0      )    f =( -0.5000000 )
                  (    -1          0          0      )       ( -0.5000000 )
                  (     0          0          1      )       (  0.0000000 )

 cart.    s( 4) = (  0.0000000 -1.0000000  0.0000000 )    f =( -0.5000000 )
                  ( -1.0000000  0.0000000  0.0000000 )       ( -0.5000000 )
                  (  0.0000000  0.0000000  1.0000000 )       (  0.0000000 )


      isym =  5     inv. 180 deg rotation - cart. axis [-1,0,1]  

 cryst.   s( 5) = (     0          0          1      )
                  (     0          1          0      )
                  (     1          0          0      )

 cart.    s( 5) = (  0.0000000  0.0000000  1.0000000 )
                  (  0.0000000  1.0000000  0.0000000 )
                  (  1.0000000  0.0000000  0.0000000 )


      isym =  6     inv. 180 deg rotation - cart. axis [0,1,1]   

 cryst.   s( 6) = (     1          0          0      )    f =(  0.0000000 )
                  (     0          0         -1      )       ( -0.5000000 )
                  (     0         -1          0      )       ( -0.5000000 )

 cart.    s( 6) = (  1.0000000  0.0000000  0.0000000 )    f =(  0.0000000 )
                  (  0.0000000  0.0000000 -1.0000000 )       ( -0.5000000 )
                  (  0.0000000 -1.0000000  0.0000000 )       ( -0.5000000 )


     point group C_3v (3m)  
     there are  3 classes
     the character table:

       E     2C3   3s_v 
A_1    1.00  1.00  1.00
A_2    1.00  1.00 -1.00
E      2.00 -1.00  0.00

     the symmetry operations in each class and the name of the first element:

     E        1
          identity                                               
     2C3      2    3
          120 deg rotation - cart. axis [1,-1,1]                 
     3s_v     4    5    6
          inv. 180 deg rotation - cart. axis [1,1,0]             

   Cartesian axes

     site n.     atom                  positions (alat units)
         1           C   tau(   1) = (   0.1250031   0.3749969   0.6250031  )
         2           C   tau(   2) = (   0.1250031   0.8749969   0.1250031  )
         3           C   tau(   3) = (   0.1250031   0.8749969   0.6250031  )
         4           C   tau(   4) = (   0.6250031   0.3749969   0.1250031  )
         5           C   tau(   5) = (   0.6250031   0.3749969   0.6250031  )
         6           C   tau(   6) = (   0.6250031   0.8749969   0.1250031  )
         7           C   tau(   7) = (   0.6250031   0.8749969   0.6250031  )
         8           C   tau(   8) = (   0.0000000   0.0000000   0.2500000  )
         9           C   tau(   9) = (   0.0000000   0.0000000   0.7500000  )
        10           C   tau(  10) = (   0.0000000   0.5000000   0.2500000  )
        11           C   tau(  11) = (   0.0000000   0.5000000   0.7500000  )
        12           C   tau(  12) = (   0.5000000   0.0000000   0.2500000  )
        13           C   tau(  13) = (   0.5000000   0.0000000   0.7500000  )
        14           C   tau(  14) = (   0.5000000   0.5000000   0.2500000  )
        15           C   tau(  15) = (   0.5000000   0.5000000   0.7500000  )
        16           C   tau(  16) = (   0.1250031   0.1250031   0.3749969  )
        17           C   tau(  17) = (   0.1250031   0.1250031   0.8749969  )
        18           C   tau(  18) = (   0.1250031   0.6250031   0.3749969  )
        19           C   tau(  19) = (   0.1250031   0.6250031   0.8749969  )
        20           C   tau(  20) = (   0.6250031   0.1250031   0.3749969  )
        21           C   tau(  21) = (   0.6250031   0.1250031   0.8749969  )
        22           C   tau(  22) = (   0.6250031   0.6250031   0.3749969  )
        23           C   tau(  23) = (   0.6250031   0.6250031   0.8749969  )
        24           C   tau(  24) = (   0.0000000   0.2500000   0.0000000  )
        25           C   tau(  25) = (   0.0000000   0.2500000   0.5000000  )
        26           C   tau(  26) = (   0.0000000   0.7500000   0.0000000  )
        27           C   tau(  27) = (   0.0000000   0.7500000   0.5000000  )
        28           C   tau(  28) = (   0.5000000   0.2500000   0.0000000  )
        29           C   tau(  29) = (   0.5000000   0.2500000   0.5000000  )
        30           C   tau(  30) = (   0.5000000   0.7500000   0.0000000  )
        31           C   tau(  31) = (   0.5000000   0.7500000   0.5000000  )
        32           C   tau(  32) = (   0.3749969   0.3749969   0.3749969  )
        33           C   tau(  33) = (   0.3749969   0.3749969   0.8749969  )
        34           C   tau(  34) = (   0.3749969   0.8749969   0.3749969  )
        35           C   tau(  35) = (   0.3749969   0.8749969   0.8749969  )
        36           C   tau(  36) = (   0.8749969   0.3749969   0.3749969  )
        37           C   tau(  37) = (   0.8749969   0.3749969   0.8749969  )
        38           C   tau(  38) = (   0.8749969   0.8749969   0.3749969  )
        39           C   tau(  39) = (   0.8749969   0.8749969   0.8749969  )
        40           C   tau(  40) = (   0.2500000   0.0000000   0.0000000  )
        41           C   tau(  41) = (   0.2500000   0.0000000   0.5000000  )
        42           C   tau(  42) = (   0.2500000   0.5000000   0.0000000  )
        43           C   tau(  43) = (   0.2500000   0.5000000   0.5000000  )
        44           C   tau(  44) = (   0.7500000   0.0000000   0.0000000  )
        45           C   tau(  45) = (   0.7500000   0.0000000   0.5000000  )
        46           C   tau(  46) = (   0.7500000   0.5000000   0.0000000  )
        47           C   tau(  47) = (   0.7500000   0.5000000   0.5000000  )
        48           C   tau(  48) = (   0.3749969   0.1250031   0.1250031  )
        49           C   tau(  49) = (   0.3749969   0.1250031   0.6250031  )
        50           C   tau(  50) = (   0.3749969   0.6250031   0.1250031  )
        51           C   tau(  51) = (   0.3749969   0.6250031   0.6250031  )
        52           C   tau(  52) = (   0.8749969   0.1250031   0.1250031  )
        53           C   tau(  53) = (   0.8749969   0.1250031   0.6250031  )
        54           C   tau(  54) = (   0.8749969   0.6250031   0.1250031  )
        55           C   tau(  55) = (   0.8749969   0.6250031   0.6250031  )
        56           C   tau(  56) = (   0.2500000   0.2500000   0.2500000  )
        57           C   tau(  57) = (   0.2500000   0.2500000   0.7500000  )
        58           C   tau(  58) = (   0.2500000   0.7500000   0.2500000  )
        59           C   tau(  59) = (   0.2500000   0.7500000   0.7500000  )
        60           C   tau(  60) = (   0.7500000   0.2500000   0.2500000  )
        61           C   tau(  61) = (   0.7500000   0.2500000   0.7500000  )
        62           C   tau(  62) = (   0.7500000   0.7500000   0.2500000  )
        63           C   tau(  63) = (   0.7500000   0.7500000   0.7500000  )

   Crystallographic axes

     site n.     atom                  positions (cryst. coord.)
         1           C   tau(   1) = (  0.1250031  0.3749969  0.6250031  )
         2           C   tau(   2) = (  0.1250031  0.8749969  0.1250031  )
         3           C   tau(   3) = (  0.1250031  0.8749969  0.6250031  )
         4           C   tau(   4) = (  0.6250031  0.3749969  0.1250031  )
         5           C   tau(   5) = (  0.6250031  0.3749969  0.6250031  )
         6           C   tau(   6) = (  0.6250031  0.8749969  0.1250031  )
         7           C   tau(   7) = (  0.6250031  0.8749969  0.6250031  )
         8           C   tau(   8) = (  0.0000000  0.0000000  0.2500000  )
         9           C   tau(   9) = (  0.0000000  0.0000000  0.7500000  )
        10           C   tau(  10) = (  0.0000000  0.5000000  0.2500000  )
        11           C   tau(  11) = (  0.0000000  0.5000000  0.7500000  )
        12           C   tau(  12) = (  0.5000000  0.0000000  0.2500000  )
        13           C   tau(  13) = (  0.5000000  0.0000000  0.7500000  )
        14           C   tau(  14) = (  0.5000000  0.5000000  0.2500000  )
        15           C   tau(  15) = (  0.5000000  0.5000000  0.7500000  )
        16           C   tau(  16) = (  0.1250031  0.1250031  0.3749969  )
        17           C   tau(  17) = (  0.1250031  0.1250031  0.8749969  )
        18           C   tau(  18) = (  0.1250031  0.6250031  0.3749969  )
        19           C   tau(  19) = (  0.1250031  0.6250031  0.8749969  )
        20           C   tau(  20) = (  0.6250031  0.1250031  0.3749969  )
        21           C   tau(  21) = (  0.6250031  0.1250031  0.8749969  )
        22           C   tau(  22) = (  0.6250031  0.6250031  0.3749969  )
        23           C   tau(  23) = (  0.6250031  0.6250031  0.8749969  )
        24           C   tau(  24) = (  0.0000000  0.2500000  0.0000000  )
        25           C   tau(  25) = (  0.0000000  0.2500000  0.5000000  )
        26           C   tau(  26) = (  0.0000000  0.7500000  0.0000000  )
        27           C   tau(  27) = (  0.0000000  0.7500000  0.5000000  )
        28           C   tau(  28) = (  0.5000000  0.2500000  0.0000000  )
        29           C   tau(  29) = (  0.5000000  0.2500000  0.5000000  )
        30           C   tau(  30) = (  0.5000000  0.7500000  0.0000000  )
        31           C   tau(  31) = (  0.5000000  0.7500000  0.5000000  )
        32           C   tau(  32) = (  0.3749969  0.3749969  0.3749969  )
        33           C   tau(  33) = (  0.3749969  0.3749969  0.8749969  )
        34           C   tau(  34) = (  0.3749969  0.8749969  0.3749969  )
        35           C   tau(  35) = (  0.3749969  0.8749969  0.8749969  )
        36           C   tau(  36) = (  0.8749969  0.3749969  0.3749969  )
        37           C   tau(  37) = (  0.8749969  0.3749969  0.8749969  )
        38           C   tau(  38) = (  0.8749969  0.8749969  0.3749969  )
        39           C   tau(  39) = (  0.8749969  0.8749969  0.8749969  )
        40           C   tau(  40) = (  0.2500000  0.0000000  0.0000000  )
        41           C   tau(  41) = (  0.2500000  0.0000000  0.5000000  )
        42           C   tau(  42) = (  0.2500000  0.5000000  0.0000000  )
        43           C   tau(  43) = (  0.2500000  0.5000000  0.5000000  )
        44           C   tau(  44) = (  0.7500000  0.0000000  0.0000000  )
        45           C   tau(  45) = (  0.7500000  0.0000000  0.5000000  )
        46           C   tau(  46) = (  0.7500000  0.5000000  0.0000000  )
        47           C   tau(  47) = (  0.7500000  0.5000000  0.5000000  )
        48           C   tau(  48) = (  0.3749969  0.1250031  0.1250031  )
        49           C   tau(  49) = (  0.3749969  0.1250031  0.6250031  )
        50           C   tau(  50) = (  0.3749969  0.6250031  0.1250031  )
        51           C   tau(  51) = (  0.3749969  0.6250031  0.6250031  )
        52           C   tau(  52) = (  0.8749969  0.1250031  0.1250031  )
        53           C   tau(  53) = (  0.8749969  0.1250031  0.6250031  )
        54           C   tau(  54) = (  0.8749969  0.6250031  0.1250031  )
        55           C   tau(  55) = (  0.8749969  0.6250031  0.6250031  )
        56           C   tau(  56) = (  0.2500000  0.2500000  0.2500000  )
        57           C   tau(  57) = (  0.2500000  0.2500000  0.7500000  )
        58           C   tau(  58) = (  0.2500000  0.7500000  0.2500000  )
        59           C   tau(  59) = (  0.2500000  0.7500000  0.7500000  )
        60           C   tau(  60) = (  0.7500000  0.2500000  0.2500000  )
        61           C   tau(  61) = (  0.7500000  0.2500000  0.7500000  )
        62           C   tau(  62) = (  0.7500000  0.7500000  0.2500000  )
        63           C   tau(  63) = (  0.7500000  0.7500000  0.7500000  )

     number of k points=     4  Gaussian smearing, width (Ry)=  0.0100
                       cart. coord. in units 2pi/alat
        k(    1) = (   0.0000000   0.0000000   0.0000000), wk =   0.2500000
        k(    2) = (   0.0000000   0.0000000  -0.5000000), wk =   0.7500000
        k(    3) = (   0.0000000  -0.5000000  -0.5000000), wk =   0.7500000
        k(    4) = (  -0.5000000  -0.5000000  -0.5000000), wk =   0.2500000

                       cryst. coord.
        k(    1) = (   0.0000000   0.0000000   0.0000000), wk =   0.2500000
        k(    2) = (   0.0000000   0.0000000  -0.5000000), wk =   0.7500000
        k(    3) = (   0.0000000  -0.5000000  -0.5000000), wk =   0.7500000
        k(    4) = (  -0.5000000  -0.5000000  -0.5000000), wk =   0.2500000

     Dense  grid:   272153 G-vectors     FFT dimensions: (  90,  90,  90)

     Smooth grid:   194543 G-vectors     FFT dimensions: (  72,  72,  72)

     Dynamical RAM for                 wfc:       1.76 MB

     Dynamical RAM for     wfc (w. buffer):       1.76 MB

     Dynamical RAM for           str. fact:       0.13 MB

     Dynamical RAM for           local pot:       0.00 MB

     Dynamical RAM for          nlocal pot:       5.84 MB

     Dynamical RAM for                qrad:       0.43 MB

     Dynamical RAM for          rho,v,vnew:       0.95 MB

     Dynamical RAM for               rhoin:       0.32 MB

     Dynamical RAM for            rho*nmix:       2.08 MB

     Dynamical RAM for           G-vectors:       0.53 MB

     Dynamical RAM for          h,s,v(r/c):       4.23 MB

     Dynamical RAM for          <psi|beta>:       1.17 MB

     Dynamical RAM for                 psi:       7.05 MB

     Dynamical RAM for                hpsi:       7.05 MB

     Dynamical RAM for                spsi:       7.05 MB

     Dynamical RAM for      wfcinit/wfcrot:       7.30 MB

     Dynamical RAM for           addusdens:       3.54 MB

     Dynamical RAM for          addusforce:       7.58 MB

     Dynamical RAM for         addusstress:       1.67 MB

     Estimated static dynamical RAM per process >      11.15 MB

     Estimated max dynamical RAM per process >      39.77 MB

     Estimated total dynamical RAM >       4.78 GB

     Check: negative core charge=   -0.000014

     Initial potential from superposition of free atoms

     starting charge     251.9974, renormalised to     254.0000


     %%%%%%%%%%%%%%%%%%%%%%%%%%%%%%%%%%%%%%%%%%%%%%%%%%%%%%%%%%%%%%%%%%%%%%%%
     %                                                                      %
     % You are using vdW-DF, which was implemented by the Thonhauser group. %
     % Please cite the following two papers that made this development      %
     % possible and the two reviews that describe the various versions:     %
     %                                                                      %
     %   T. Thonhauser et al., PRL 115, 136402 (2015).                      %
     %   T. Thonhauser et al., PRB 76, 125112 (2007).                       %
     %   K. Berland et al., Rep. Prog. Phys. 78, 066501 (2015).             %
     %   D.C. Langreth et al., J. Phys.: Condens. Matter 21, 084203 (2009). %
     %                                                                      %
     % If you are calculating stress with vdW-DF, please also cite:         %
     %                                                                      %
     %   R. Sabatini et al., J. Phys.: Condens. Matter 24, 424209 (2012).   %
     %                                                                      %
     %%%%%%%%%%%%%%%%%%%%%%%%%%%%%%%%%%%%%%%%%%%%%%%%%%%%%%%%%%%%%%%%%%%%%%%%

     %%%%%%%%%%%%%%%%%%%%%%%%%%%%%%%%%%%%%%%%%%%%%%%%%%%%%%%%%%%%%%%%%%%%%%%%
     %                                                                      %
     %  vdW-DF NEWS:                                                        %
     %                                                                      %
     %  * vdW-DF3 is now available. DOI: 10.1021/acs.jctc.0c00471           %
     %    use with input_dft = 'vdW-DF3-opt1' or 'vdW-DF3-opt2'             %
     %                                                                      %
     %  * Unscreened and range-separated hybrid vdW-DF-cx functionals       %
     %    DOI: 10.1063/1.4986522 and 10.1088/1361-648X/ac2ad2               %
     %    use with input_dft = 'vdW-DF-cx0'    and 'vdW-DF-ahcx'            %
     %  * Unscreened and range-separated hybrid vdW-DF2-b86r functionals    %
     %    DOI: 10.1063/1.4986522 and DOI: 10.1103/PhysRevX.12.041003        %
     %    use with input_dft = 'vdW-DF2-br0' and 'vdW-DF2-ahbr'             %
     %                                                                      %
     %%%%%%%%%%%%%%%%%%%%%%%%%%%%%%%%%%%%%%%%%%%%%%%%%%%%%%%%%%%%%%%%%%%%%%%%


     Carrying out vdW-DF run using the following parameters:
     Nqs    =  20  Npoints =  1024  r_max =  100.000
     q_mesh =  0.00001000  0.04494208  0.09755937  0.15916263
               0.23128650  0.31572767  0.41458969  0.53033537
               0.66584808  0.82450364  1.01025438  1.22772762
               1.48234092  1.78043706  2.12944203  2.53805004
               3.01644009  3.57652955  4.23227104  5.00000000


     -----------------------------------------------
     Non-local corr. energy    =       1.61191584 Ry
     -----------------------------------------------

     Starting wfcs are  252 randomized atomic wfcs
     Checking if some PAW data can be deallocated... 

     total cpu time spent up to now is        1.2 secs

     Self-consistent Calculation

     iteration #  1     ecut=    70.00 Ry     beta= 0.70
     Davidson diagonalization with overlap

---- Real-time Memory Report at c_bands before calling an iterative solver
           187 MiB given to the printing process from OS
             0 MiB allocation reported by mallinfo(arena+hblkhd)
       1515657 MiB available memory on the node where the printing process lives
------------------
     ethr =  1.00E-02,  avg # of iterations =  3.0


     -----------------------------------------------
     Non-local corr. energy    =       2.04701301 Ry
     -----------------------------------------------


     total cpu time spent up to now is        2.5 secs

     total energy              =   -1193.49148289 Ry
     estimated scf accuracy    <       3.78275484 Ry

     iteration #  2     ecut=    70.00 Ry     beta= 0.70
     Davidson diagonalization with overlap

---- Real-time Memory Report at c_bands before calling an iterative solver
           215 MiB given to the printing process from OS
             0 MiB allocation reported by mallinfo(arena+hblkhd)
       1515627 MiB available memory on the node where the printing process lives
------------------
     ethr =  1.49E-03,  avg # of iterations =  8.5


     -----------------------------------------------
     Non-local corr. energy    =       2.09791340 Ry
     -----------------------------------------------


     total cpu time spent up to now is        4.6 secs

     total energy              =   -1193.00803904 Ry
     estimated scf accuracy    <       1.59464953 Ry

     iteration #  3     ecut=    70.00 Ry     beta= 0.70
     Davidson diagonalization with overlap

---- Real-time Memory Report at c_bands before calling an iterative solver
           218 MiB given to the printing process from OS
             0 MiB allocation reported by mallinfo(arena+hblkhd)
       1515599 MiB available memory on the node where the printing process lives
------------------
     ethr =  6.28E-04,  avg # of iterations =  6.5


     -----------------------------------------------
     Non-local corr. energy    =       2.13995380 Ry
     -----------------------------------------------


     total cpu time spent up to now is        7.0 secs

     total energy              =   -1193.37920409 Ry
     estimated scf accuracy    <       3.17423649 Ry

     iteration #  4     ecut=    70.00 Ry     beta= 0.70
     Davidson diagonalization with overlap

---- Real-time Memory Report at c_bands before calling an iterative solver
           228 MiB given to the printing process from OS
             0 MiB allocation reported by mallinfo(arena+hblkhd)
       1515337 MiB available memory on the node where the printing process lives
------------------
     ethr =  6.28E-04,  avg # of iterations =  6.8


     -----------------------------------------------
     Non-local corr. energy    =       2.14899428 Ry
     -----------------------------------------------


     total cpu time spent up to now is        9.0 secs

     total energy              =   -1193.84953883 Ry
     estimated scf accuracy    <       0.01941997 Ry

     iteration #  5     ecut=    70.00 Ry     beta= 0.70
     Davidson diagonalization with overlap

---- Real-time Memory Report at c_bands before calling an iterative solver
           228 MiB given to the printing process from OS
             0 MiB allocation reported by mallinfo(arena+hblkhd)
       1515326 MiB available memory on the node where the printing process lives
------------------
     ethr =  7.65E-06,  avg # of iterations =  9.0


     -----------------------------------------------
     Non-local corr. energy    =       2.15367972 Ry
     -----------------------------------------------


     total cpu time spent up to now is       12.7 secs

     total energy              =   -1193.85380365 Ry
     estimated scf accuracy    <       0.01366317 Ry

     iteration #  6     ecut=    70.00 Ry     beta= 0.70
     Davidson diagonalization with overlap

---- Real-time Memory Report at c_bands before calling an iterative solver
           234 MiB given to the printing process from OS
             0 MiB allocation reported by mallinfo(arena+hblkhd)
       1515266 MiB available memory on the node where the printing process lives
------------------
     ethr =  5.38E-06,  avg # of iterations =  6.5


     -----------------------------------------------
     Non-local corr. energy    =       2.15989166 Ry
     -----------------------------------------------


     total cpu time spent up to now is       14.3 secs

     total energy              =   -1193.85377798 Ry
     estimated scf accuracy    <       0.04504974 Ry

     iteration #  7     ecut=    70.00 Ry     beta= 0.70
     Davidson diagonalization with overlap

---- Real-time Memory Report at c_bands before calling an iterative solver
           234 MiB given to the printing process from OS
             0 MiB allocation reported by mallinfo(arena+hblkhd)
       1515262 MiB available memory on the node where the printing process lives
------------------
     ethr =  5.38E-06,  avg # of iterations =  5.0


     -----------------------------------------------
     Non-local corr. energy    =       2.15992095 Ry
     -----------------------------------------------


     total cpu time spent up to now is       15.6 secs

     total energy              =   -1193.85712843 Ry
     estimated scf accuracy    <       0.00032654 Ry

     iteration #  8     ecut=    70.00 Ry     beta= 0.70
     Davidson diagonalization with overlap

---- Real-time Memory Report at c_bands before calling an iterative solver
           235 MiB given to the printing process from OS
             0 MiB allocation reported by mallinfo(arena+hblkhd)
       1515274 MiB available memory on the node where the printing process lives
------------------
     ethr =  1.29E-07,  avg # of iterations =  8.8


     -----------------------------------------------
     Non-local corr. energy    =       2.15971719 Ry
     -----------------------------------------------


     total cpu time spent up to now is       18.5 secs

     total energy              =   -1193.85718332 Ry
     estimated scf accuracy    <       0.00010968 Ry

     iteration #  9     ecut=    70.00 Ry     beta= 0.70
     Davidson diagonalization with overlap

---- Real-time Memory Report at c_bands before calling an iterative solver
           237 MiB given to the printing process from OS
             0 MiB allocation reported by mallinfo(arena+hblkhd)
       1515241 MiB available memory on the node where the printing process lives
------------------
     ethr =  4.32E-08,  avg # of iterations =  7.5


     -----------------------------------------------
     Non-local corr. energy    =       2.15973358 Ry
     -----------------------------------------------


     total cpu time spent up to now is       20.7 secs

     total energy              =   -1193.85719659 Ry
     estimated scf accuracy    <       0.00001400 Ry

     iteration # 10     ecut=    70.00 Ry     beta= 0.70
     Davidson diagonalization with overlap

---- Real-time Memory Report at c_bands before calling an iterative solver
           237 MiB given to the printing process from OS
             0 MiB allocation reported by mallinfo(arena+hblkhd)
       1515249 MiB available memory on the node where the printing process lives
------------------
     ethr =  5.51E-09,  avg # of iterations =  8.0


     -----------------------------------------------
     Non-local corr. energy    =       2.15984493 Ry
     -----------------------------------------------


     total cpu time spent up to now is       23.1 secs

     total energy              =   -1193.85719962 Ry
     estimated scf accuracy    <       0.00000099 Ry

     iteration # 11     ecut=    70.00 Ry     beta= 0.70
     Davidson diagonalization with overlap

---- Real-time Memory Report at c_bands before calling an iterative solver
           240 MiB given to the printing process from OS
             0 MiB allocation reported by mallinfo(arena+hblkhd)
       1515204 MiB available memory on the node where the printing process lives
------------------
     ethr =  3.91E-10,  avg # of iterations =  7.8


     -----------------------------------------------
     Non-local corr. energy    =       2.15986906 Ry
     -----------------------------------------------


     total cpu time spent up to now is       25.7 secs

     total energy              =   -1193.85719992 Ry
     estimated scf accuracy    <       0.00000012 Ry

     iteration # 12     ecut=    70.00 Ry     beta= 0.70
     Davidson diagonalization with overlap

---- Real-time Memory Report at c_bands before calling an iterative solver
           243 MiB given to the printing process from OS
             0 MiB allocation reported by mallinfo(arena+hblkhd)
       1515169 MiB available memory on the node where the printing process lives
------------------
     ethr =  4.91E-11,  avg # of iterations =  6.8


     -----------------------------------------------
     Non-local corr. energy    =       2.15987704 Ry
     -----------------------------------------------


     total cpu time spent up to now is       27.8 secs

     total energy              =   -1193.85719994 Ry
     estimated scf accuracy    <       0.00000003 Ry

     iteration # 13     ecut=    70.00 Ry     beta= 0.70
     Davidson diagonalization with overlap

---- Real-time Memory Report at c_bands before calling an iterative solver
           243 MiB given to the printing process from OS
             0 MiB allocation reported by mallinfo(arena+hblkhd)
       1515223 MiB available memory on the node where the printing process lives
------------------
     ethr =  1.10E-11,  avg # of iterations =  7.0


     -----------------------------------------------
     Non-local corr. energy    =       2.15988310 Ry
     -----------------------------------------------


     total cpu time spent up to now is       30.0 secs

     End of self-consistent calculation

          k = 0.0000 0.0000 0.0000 ( 24303 PWs)   bands (ev):

    -8.8201  -6.6474  -6.6474  -6.5594  -6.5594  -6.5594  -6.1935  -4.4994
    -4.4994  -4.4694  -4.4694  -4.4693  -4.4264  -4.4264  -4.4264  -4.1793
    -4.1791  -4.1791  -3.7904  -3.0315  -3.0313  -3.0313  -1.8271  -0.6511
    -0.5626  -0.5626  -0.5624  -0.1931  -0.1931  -0.1682  -0.1679  -0.1679
    -0.1546   0.4846   0.4846   0.4849   0.5600   0.5600   0.5874   0.5874
     0.5874   1.0825   1.0828   1.0828   2.7675   3.8056   3.8056   3.8643
     3.8643   3.8644   3.8811   3.8811   3.8812   4.0490   4.0491   4.0491
     4.3199   4.4054   4.4054   4.4055   4.4313   4.4316   4.4316   4.4932
     4.4932   4.5351   4.5351   4.5352   4.9423   5.0371   5.0374   5.0374
     5.1742   5.1742   5.1742   5.2740   5.2740   5.7330   5.7330   5.7332
     6.4114   6.4116   6.4116   6.9121   6.9121   6.9122   7.0493   8.0247
     8.0247   8.0929   8.0930   8.0930   8.4672   8.4672   8.4673   8.5452
     8.5453   8.5453   8.7127   8.7127   8.7127   8.9843   8.9843   8.9844
     9.4823   9.4823   9.4823   9.5213   9.5214   9.5214   9.5485   9.6023
     9.6023   9.6024   9.6397   9.6397  10.0843  10.0843  10.1080  10.1083
    10.1083  10.9593  12.1844  12.1844  12.1845  15.3427  15.3428  15.3428
    17.1136  17.1136  17.1905  17.1905  17.1908  17.2174  17.7259  17.7259
    17.7491  17.7491  17.7499  18.1682  18.5901  18.5901  18.5902  20.6039
    20.6039  20.6051  20.6052  20.6052  20.6328  20.6329  20.6329  20.7254

     occupation numbers 
     1.0000   1.0000   1.0000   1.0000   1.0000   1.0000   1.0000   1.0000
     1.0000   1.0000   1.0000   1.0000   1.0000   1.0000   1.0000   1.0000
     1.0000   1.0000   1.0000   1.0000   1.0000   1.0000   1.0000   1.0000
     1.0000   1.0000   1.0000   1.0000   1.0000   1.0000   1.0000   1.0000
     1.0000   1.0000   1.0000   1.0000   1.0000   1.0000   1.0000   1.0000
     1.0000   1.0000   1.0000   1.0000   1.0000   1.0000   1.0000   1.0000
     1.0000   1.0000   1.0000   1.0000   1.0000   1.0000   1.0000   1.0000
     1.0000   1.0000   1.0000   1.0000   1.0000   1.0000   1.0000   1.0000
     1.0000   1.0000   1.0000   1.0000   1.0000   1.0000   1.0000   1.0000
     1.0000   1.0000   1.0000   1.0000   1.0000   1.0000   1.0000   1.0000
     1.0000   1.0000   1.0000   1.0000   1.0000   1.0000   1.0000   1.0000
     1.0000   1.0000   1.0000   1.0000   1.0000   1.0000   1.0000   1.0000
     1.0000   1.0000   1.0000   1.0000   1.0000   1.0000   1.0000   1.0000
     1.0000   1.0000   1.0000   1.0000   1.0000   1.0000   1.0000   1.0000
     1.0000   1.0000   1.0000   1.0000   1.0000   1.0000   1.0000   1.0000
     1.0000   1.0000   1.0000   1.0000   1.0000   0.0391   0.0390   0.0390
     0.0000   0.0000   0.0000   0.0000   0.0000   0.0000   0.0000   0.0000
     0.0000   0.0000   0.0000   0.0000   0.0000   0.0000   0.0000   0.0000
     0.0000   0.0000   0.0000   0.0000   0.0000   0.0000   0.0000   0.0000

          k = 0.0000 0.0000-0.5000 ( 24268 PWs)   bands (ev):

    -8.4003  -8.0725  -6.1617  -6.1616  -6.1471  -6.1095  -6.0422  -5.8234
    -5.8234  -5.3435  -4.1302  -4.1091  -4.0185  -4.0184  -3.8737  -3.8265
    -3.6765  -3.6764  -3.6226  -2.9723  -2.0432  -2.0081  -1.9582  -1.9581
    -1.8291  -1.8290  -1.5324  -0.8085  -0.0776  -0.0183  -0.0181   0.1237
     0.2083   0.4578   0.4580   0.7393   1.0560   1.1350   1.1513   1.1514
     1.3389   1.3390   1.4315   1.6328   2.1262   2.1518   2.1593   2.1593
     2.4351   2.4847   2.4847   3.4723   3.7866   3.7866   3.7903   3.9201
     3.9975   4.0273   4.1782   4.2237   4.2237   5.0878   5.2520   5.2523
     5.2976   5.3793   5.4597   5.6069   5.6071   5.6786   6.0233   6.1206
     6.1498   6.1498   6.3063   6.3063   6.3703   6.7829   6.7830   6.9627
     7.0183   7.0183   7.0966   7.0967   7.1068   7.1156   7.1207   7.1208
     7.1364   7.2482   7.3166   7.3268   7.3268   7.3629   7.6474   7.7224
     7.8390   7.8391   8.0088   8.1207   8.1209   8.2577   8.7322   8.7323
     9.1099   9.4472   9.4926   9.4928   9.5499   9.5707   9.6774   9.6879
     9.7016   9.7017   9.9048   9.9049   9.9786  10.2258  10.6158  10.6158
    10.7405  10.8870  10.9708  10.9709  11.7872  14.8533  15.0537  15.0537
    16.9603  16.9968  17.8457  18.2753  19.1407  19.1772  19.1773  19.2628
    19.2798  19.3432  19.3433  19.3622  19.5739  19.6381  19.6630  19.6697
    19.6703  19.9295  19.9629  19.9634  19.9742  20.1753  20.5199  20.5199

     occupation numbers 
     1.0000   1.0000   1.0000   1.0000   1.0000   1.0000   1.0000   1.0000
     1.0000   1.0000   1.0000   1.0000   1.0000   1.0000   1.0000   1.0000
     1.0000   1.0000   1.0000   1.0000   1.0000   1.0000   1.0000   1.0000
     1.0000   1.0000   1.0000   1.0000   1.0000   1.0000   1.0000   1.0000
     1.0000   1.0000   1.0000   1.0000   1.0000   1.0000   1.0000   1.0000
     1.0000   1.0000   1.0000   1.0000   1.0000   1.0000   1.0000   1.0000
     1.0000   1.0000   1.0000   1.0000   1.0000   1.0000   1.0000   1.0000
     1.0000   1.0000   1.0000   1.0000   1.0000   1.0000   1.0000   1.0000
     1.0000   1.0000   1.0000   1.0000   1.0000   1.0000   1.0000   1.0000
     1.0000   1.0000   1.0000   1.0000   1.0000   1.0000   1.0000   1.0000
     1.0000   1.0000   1.0000   1.0000   1.0000   1.0000   1.0000   1.0000
     1.0000   1.0000   1.0000   1.0000   1.0000   1.0000   1.0000   1.0000
     1.0000   1.0000   1.0000   1.0000   1.0000   1.0000   1.0000   1.0000
     1.0000   1.0000   1.0000   1.0000   1.0000   1.0000   1.0000   1.0000
     1.0000   1.0000   1.0000   1.0000   1.0000   1.0000   1.0000   1.0000
     1.0000   1.0000   1.0000   1.0000   1.0000   0.9996   0.8930   0.8929
     0.0000   0.0000   0.0000   0.0000   0.0000   0.0000   0.0000   0.0000
     0.0000   0.0000   0.0000   0.0000   0.0000   0.0000   0.0000   0.0000
     0.0000   0.0000   0.0000   0.0000   0.0000   0.0000   0.0000   0.0000

          k = 0.0000-0.5000-0.5000 ( 24324 PWs)   bands (ev):

    -7.9263  -7.7261  -7.7261  -7.2325  -5.7146  -5.6768  -5.5161  -5.5159
    -5.4810  -5.4808  -4.9956  -4.5942  -3.4945  -3.4589  -3.4588  -3.4059
    -3.2004  -3.0761  -3.0760  -2.9615  -2.3123  -2.2571  -2.2569  -2.1301
    -2.0677  -1.7710  -1.7709  -0.9903  -0.4294  -0.4294  -0.3275  -0.0381
     0.2728   0.3185   0.3186   0.3658   0.5009   0.6039   0.6075   0.6076
     0.8920   0.8920   1.2875   2.1814   3.2987   3.2987   3.3906   3.4266
     3.4318   3.4679   3.4681   3.4863   3.5038   3.5288   3.5289   3.5714
     3.6119   3.6663   3.7199   3.7199   3.9973   4.2334   4.2335   5.4193
     5.5480   5.5998   5.6001   5.7393   5.9241   5.9244   5.9850   6.0742
     6.2409   6.2575   6.2576   6.2870   6.3358   6.3359   6.3469   6.7202
     6.7474   6.7665   6.7667   6.9003   7.0153   7.0153   7.1817   7.3217
     7.3492   7.7148   7.7148   7.8124   7.8331   7.8617   7.8619   8.0840
     8.2113   8.3530   8.3532   8.4110   8.7323   8.7323   8.9253   9.0346
     9.0420   9.0622   9.1096   9.1097   9.2037   9.2189   9.2993   9.2997
     9.3327   9.3564   9.4343   9.5130   9.5130   9.6035   9.6039   9.6254
    11.2248  11.2249  11.4679  11.8229  11.8889  14.6333  15.1643  15.1644
    18.4354  18.4354  18.5761  18.6326  18.9456  18.9906  18.9908  19.0469
    19.0970  19.1595  19.1596  19.3186  19.4593  19.5548  19.6055  19.6511
    19.6512  19.6652  19.6653  19.6891  19.9138  19.9138  20.1632  20.2361

     occupation numbers 
     1.0000   1.0000   1.0000   1.0000   1.0000   1.0000   1.0000   1.0000
     1.0000   1.0000   1.0000   1.0000   1.0000   1.0000   1.0000   1.0000
     1.0000   1.0000   1.0000   1.0000   1.0000   1.0000   1.0000   1.0000
     1.0000   1.0000   1.0000   1.0000   1.0000   1.0000   1.0000   1.0000
     1.0000   1.0000   1.0000   1.0000   1.0000   1.0000   1.0000   1.0000
     1.0000   1.0000   1.0000   1.0000   1.0000   1.0000   1.0000   1.0000
     1.0000   1.0000   1.0000   1.0000   1.0000   1.0000   1.0000   1.0000
     1.0000   1.0000   1.0000   1.0000   1.0000   1.0000   1.0000   1.0000
     1.0000   1.0000   1.0000   1.0000   1.0000   1.0000   1.0000   1.0000
     1.0000   1.0000   1.0000   1.0000   1.0000   1.0000   1.0000   1.0000
     1.0000   1.0000   1.0000   1.0000   1.0000   1.0000   1.0000   1.0000
     1.0000   1.0000   1.0000   1.0000   1.0000   1.0000   1.0000   1.0000
     1.0000   1.0000   1.0000   1.0000   1.0000   1.0000   1.0000   1.0000
     1.0000   1.0000   1.0000   1.0000   1.0000   1.0000   1.0000   1.0000
     1.0000   1.0000   1.0000   1.0000   1.0000   1.0000   1.0000   1.0000
     1.0000   1.0000   1.0000   1.0000   1.0000   1.0000   0.5369   0.5368
     0.0000   0.0000   0.0000   0.0000   0.0000   0.0000   0.0000   0.0000
     0.0000   0.0000   0.0000   0.0000   0.0000   0.0000   0.0000   0.0000
     0.0000   0.0000   0.0000   0.0000   0.0000   0.0000   0.0000   0.0000

          k =-0.5000-0.5000-0.5000 ( 24464 PWs)   bands (ev):

    -7.4481  -7.2698  -7.2697  -7.2697  -7.0424  -7.0424  -7.0424  -5.9837
    -3.1417  -3.1093  -3.1091  -3.1091  -3.0796  -3.0796  -3.0185  -3.0185
    -3.0184  -2.9834  -2.9833  -2.9833  -2.8382  -2.8382  -2.8381  -2.8065
    -2.8063  -2.8063  -2.6718  -2.6718  -2.0833  -2.0832  -2.0832   0.0462
     1.7017   1.7017   1.7017   1.7074   1.7074   1.7074   1.7174   1.7174
     1.7175   1.7210   1.7210   1.7841   1.8837   1.8837   1.9630   1.9630
     1.9630   2.0153   2.0153   2.0153   2.7522   2.7522   2.7522   4.4400
     5.6809   5.6809   5.6809   5.7152   5.7428   5.7428   5.7706   5.7706
     5.7708   5.8348   5.8348   5.8348   5.9075   5.9078   5.9078   5.9135
     5.9135   5.9135   5.9340   6.0374   6.0375   6.0375   6.0473   6.2854
     6.2854   6.2854   6.3415   6.3415   6.7345   6.7345   6.7345   7.5579
     7.6006   7.6007   7.6007   7.6461   7.6463   7.6463   7.6748   7.6748
     7.7062   7.7062   7.7063   7.7910   7.7912   7.7912   7.8345   7.9858
     7.9858   8.2124   8.2125   8.2125   9.7048   9.7048   9.7049  10.7546
    10.7877  10.7877  10.8051  10.8051  10.8051  10.9111  10.9111  10.9112
    10.9495  10.9495  10.9495  10.9639  10.9639  15.1890  15.1890  15.1890
    18.6642  18.6642  18.6646  18.6919  18.6919  18.7348  18.7351  18.7351
    18.7558  18.7701  18.7701  18.7703  18.8504  18.8507  18.8507  18.9743
    18.9743  18.9746  19.3587  19.3587  19.3947  19.3947  19.3950  19.6277

     occupation numbers 
     1.0000   1.0000   1.0000   1.0000   1.0000   1.0000   1.0000   1.0000
     1.0000   1.0000   1.0000   1.0000   1.0000   1.0000   1.0000   1.0000
     1.0000   1.0000   1.0000   1.0000   1.0000   1.0000   1.0000   1.0000
     1.0000   1.0000   1.0000   1.0000   1.0000   1.0000   1.0000   1.0000
     1.0000   1.0000   1.0000   1.0000   1.0000   1.0000   1.0000   1.0000
     1.0000   1.0000   1.0000   1.0000   1.0000   1.0000   1.0000   1.0000
     1.0000   1.0000   1.0000   1.0000   1.0000   1.0000   1.0000   1.0000
     1.0000   1.0000   1.0000   1.0000   1.0000   1.0000   1.0000   1.0000
     1.0000   1.0000   1.0000   1.0000   1.0000   1.0000   1.0000   1.0000
     1.0000   1.0000   1.0000   1.0000   1.0000   1.0000   1.0000   1.0000
     1.0000   1.0000   1.0000   1.0000   1.0000   1.0000   1.0000   1.0000
     1.0000   1.0000   1.0000   1.0000   1.0000   1.0000   1.0000   1.0000
     1.0000   1.0000   1.0000   1.0000   1.0000   1.0000   1.0000   1.0000
     1.0000   1.0000   1.0000   1.0000   1.0000   1.0000   1.0000   1.0000
     1.0000   1.0000   1.0000   1.0000   1.0000   1.0000   1.0000   1.0000
     1.0000   1.0000   1.0000   1.0000   1.0000   0.4351   0.4351   0.4350
     0.0000   0.0000   0.0000   0.0000   0.0000   0.0000   0.0000   0.0000
     0.0000   0.0000   0.0000   0.0000   0.0000   0.0000   0.0000   0.0000
     0.0000   0.0000   0.0000   0.0000   0.0000   0.0000   0.0000   0.0000

     the Fermi energy is    15.1733 ev

!    total energy              =   -1193.85719995 Ry
     total all-electron energy =     -4832.995318 Ry
     estimated scf accuracy    <          2.0E-09 Ry
     smearing contrib. (-TS)   =      -0.00871307 Ry
     internal energy E=F+TS    =   -1193.84848688 Ry

     The total energy is F=E-TS. E is the sum of the following terms:
     one-electron contribution =     254.82081362 Ry
     hartree contribution      =      67.13052486 Ry
     xc contribution           =    -308.70474755 Ry
     ewald contribution        =    -794.94314828 Ry
     one-center paw contrib.   =    -412.15192952 Ry
      -> PAW hartree energy AE =       9.04675588 Ry
      -> PAW hartree energy PS =      -9.03838578 Ry
      -> PAW xc energy AE      =     -11.12812512 Ry
      -> PAW xc energy PS      =       4.57821073 Ry
      -> total E_H with PAW    =      67.13889496 Ry
      -> total E_XC with PAW   =    -315.25466194 Ry

     convergence has been achieved in  13 iterations


     -----------------------------------------------
     Non-local corr. energy    =       2.15988310 Ry
     -----------------------------------------------


     Forces acting on atoms (cartesian axes, Ry/au):

     atom    1 type  1   force =     0.00003555   -0.00003555    0.00003483
     atom    2 type  1   force =     0.00003555   -0.00003483    0.00003555
     atom    3 type  1   force =     0.00004030   -0.00003676    0.00003676
     atom    4 type  1   force =     0.00003483   -0.00003555    0.00003555
     atom    5 type  1   force =     0.00003676   -0.00004030    0.00003676
     atom    6 type  1   force =     0.00003676   -0.00003676    0.00004030
     atom    7 type  1   force =     0.00003522   -0.00003522    0.00003522
     atom    8 type  1   force =    -0.00311733    0.00243950    0.00312998
     atom    9 type  1   force =     0.00688256   -0.00684312   -0.00679128
     atom   10 type  1   force =    -0.05140000    0.05140000    0.05104852
     atom   11 type  1   force =    -0.00312164    0.00312164    0.00251977
     atom   12 type  1   force =     0.00683877   -0.00683877   -0.00694181
     atom   13 type  1   force =    -0.00176817    0.00176817    0.00179601
     atom   14 type  1   force =    -0.00243950    0.00311733    0.00312998
     atom   15 type  1   force =     0.00684312   -0.00688256   -0.00679128
     atom   16 type  1   force =     0.01787365    0.03162200   -0.03162200
     atom   17 type  1   force =    -0.01778921    0.03157254    0.03156208
     atom   18 type  1   force =    -0.01778921   -0.03156208   -0.03157254
     atom   19 type  1   force =     0.01786291   -0.03152763    0.03152763
     atom   20 type  1   force =    -0.00506923    0.00389220   -0.00389220
     atom   21 type  1   force =     0.00513960    0.00388647    0.00384319
     atom   22 type  1   force =     0.00513960   -0.00384319   -0.00388647
     atom   23 type  1   force =    -0.00507528   -0.00385169    0.00385169
     atom   24 type  1   force =    -0.05140000   -0.05104852   -0.05140000
     atom   25 type  1   force =    -0.00311733   -0.00312998   -0.00243950
     atom   26 type  1   force =    -0.00312164   -0.00251977   -0.00312164
     atom   27 type  1   force =     0.00688256    0.00679128    0.00684312
     atom   28 type  1   force =    -0.00243950   -0.00312998   -0.00311733
     atom   29 type  1   force =     0.00683877    0.00694181    0.00683877
     atom   30 type  1   force =     0.00684312    0.00679128    0.00688256
     atom   31 type  1   force =    -0.00176817   -0.00179601   -0.00176817
     atom   32 type  1   force =    -0.03162200   -0.01787365   -0.03162200
     atom   33 type  1   force =    -0.03157254    0.01778921    0.03156208
     atom   34 type  1   force =    -0.00389220    0.00506923   -0.00389220
     atom   35 type  1   force =    -0.00388647   -0.00513960    0.00384319
     atom   36 type  1   force =     0.03156208    0.01778921   -0.03157254
     atom   37 type  1   force =     0.03152763   -0.01786291    0.03152763
     atom   38 type  1   force =     0.00384319   -0.00513960   -0.00388647
     atom   39 type  1   force =     0.00385169    0.00507528    0.00385169
     atom   40 type  1   force =     0.00312998    0.00243950   -0.00311733
     atom   41 type  1   force =    -0.00694181   -0.00683877    0.00683877
     atom   42 type  1   force =     0.05104852    0.05140000   -0.05140000
     atom   43 type  1   force =     0.00312998    0.00311733   -0.00243950
     atom   44 type  1   force =    -0.00679128   -0.00684312    0.00688256
     atom   45 type  1   force =     0.00179601    0.00176817   -0.00176817
     atom   46 type  1   force =     0.00251977    0.00312164   -0.00312164
     atom   47 type  1   force =    -0.00679128   -0.00688256    0.00684312
     atom   48 type  1   force =    -0.03162200    0.03162200    0.01787365
     atom   49 type  1   force =    -0.00389220    0.00389220   -0.00506923
     atom   50 type  1   force =    -0.03157254   -0.03156208   -0.01778921
     atom   51 type  1   force =    -0.00388647   -0.00384319    0.00513960
     atom   52 type  1   force =     0.03156208    0.03157254   -0.01778921
     atom   53 type  1   force =     0.00384319    0.00388647    0.00513960
     atom   54 type  1   force =     0.03152763   -0.03152763    0.01786291
     atom   55 type  1   force =     0.00385169   -0.00385169   -0.00507528
     atom   56 type  1   force =     0.05131069   -0.05131069    0.05131069
     atom   57 type  1   force =     0.00312799   -0.00312799    0.00246043
     atom   58 type  1   force =     0.00312799   -0.00246043    0.00312799
     atom   59 type  1   force =    -0.00687291    0.00682186   -0.00682186
     atom   60 type  1   force =     0.00246043   -0.00312799    0.00312799
     atom   61 type  1   force =    -0.00682186    0.00687291   -0.00682186
     atom   62 type  1   force =    -0.00682186    0.00682186   -0.00687291
     atom   63 type  1   force =     0.00178348   -0.00178348    0.00178348
     The non-local contrib.  to forces
     atom    1 type  1   force =     0.00010432   -0.00010432    0.00010408
     atom    2 type  1   force =     0.00010432   -0.00010408    0.00010432
     atom    3 type  1   force =     0.00012144   -0.00010159    0.00010159
     atom    4 type  1   force =     0.00010408   -0.00010432    0.00010432
     atom    5 type  1   force =     0.00010159   -0.00012144    0.00010159
     atom    6 type  1   force =     0.00010159   -0.00010159    0.00012144
     atom    7 type  1   force =     0.00010832   -0.00010832    0.00010832
     atom    8 type  1   force =    -0.00838221   -0.06207641    0.00838121
     atom    9 type  1   force =    -0.05647948   -0.03666041   -0.03663856
     atom   10 type  1   force =    -0.44902175    0.44902175    0.44880405
     atom   11 type  1   force =    -0.00838437    0.00838437   -0.06204410
     atom   12 type  1   force =     0.03666358   -0.03666358    0.05645591
     atom   13 type  1   force =     0.01134424   -0.01134424   -0.01134089
     atom   14 type  1   force =     0.06207641    0.00838221    0.00838121
     atom   15 type  1   force =     0.03666041    0.05647948   -0.03663856
     atom   16 type  1   force =    -0.07209248   -0.06148982    0.06148982
     atom   17 type  1   force =     0.07230615   -0.06150907   -0.06167501
     atom   18 type  1   force =     0.07230615    0.06167501    0.06150907
     atom   19 type  1   force =    -0.07209667    0.06171376   -0.06171376
     atom   20 type  1   force =     0.00295288   -0.02244210    0.02244210
     atom   21 type  1   force =    -0.00274224   -0.02244500   -0.02265374
     atom   22 type  1   force =    -0.00274224    0.02265374    0.02244500
     atom   23 type  1   force =     0.00295748    0.02265655   -0.02265655
     atom   24 type  1   force =    -0.44902175   -0.44880405   -0.44902175
     atom   25 type  1   force =    -0.00838221   -0.00838121    0.06207641
     atom   26 type  1   force =    -0.00838437    0.06204410   -0.00838437
     atom   27 type  1   force =    -0.05647948    0.03663856    0.03666041
     atom   28 type  1   force =     0.06207641   -0.00838121   -0.00838221
     atom   29 type  1   force =     0.03666358   -0.05645591    0.03666358
     atom   30 type  1   force =     0.03666041    0.03663856   -0.05647948
     atom   31 type  1   force =     0.01134424    0.01134089    0.01134424
     atom   32 type  1   force =     0.06148982    0.07209248    0.06148982
     atom   33 type  1   force =     0.06150907   -0.07230615   -0.06167501
     atom   34 type  1   force =     0.02244210   -0.00295288    0.02244210
     atom   35 type  1   force =     0.02244500    0.00274224   -0.02265374
     atom   36 type  1   force =    -0.06167501   -0.07230615    0.06150907
     atom   37 type  1   force =    -0.06171376    0.07209667   -0.06171376
     atom   38 type  1   force =    -0.02265374    0.00274224    0.02244500
     atom   39 type  1   force =    -0.02265655   -0.00295748   -0.02265655
     atom   40 type  1   force =     0.00838121   -0.06207641   -0.00838221
     atom   41 type  1   force =     0.05645591   -0.03666358    0.03666358
     atom   42 type  1   force =     0.44880405    0.44902175   -0.44902175
     atom   43 type  1   force =     0.00838121    0.00838221    0.06207641
     atom   44 type  1   force =    -0.03663856   -0.03666041   -0.05647948
     atom   45 type  1   force =    -0.01134089   -0.01134424    0.01134424
     atom   46 type  1   force =    -0.06204410    0.00838437   -0.00838437
     atom   47 type  1   force =    -0.03663856    0.05647948    0.03666041
     atom   48 type  1   force =     0.06148982   -0.06148982   -0.07209248
     atom   49 type  1   force =     0.02244210   -0.02244210    0.00295288
     atom   50 type  1   force =     0.06150907    0.06167501    0.07230615
     atom   51 type  1   force =     0.02244500    0.02265374   -0.00274224
     atom   52 type  1   force =    -0.06167501   -0.06150907    0.07230615
     atom   53 type  1   force =    -0.02265374   -0.02244500   -0.00274224
     atom   54 type  1   force =    -0.06171376    0.06171376   -0.07209667
     atom   55 type  1   force =    -0.02265655    0.02265655    0.00295748
     atom   56 type  1   force =     0.44879971   -0.44879971    0.44879971
     atom   57 type  1   force =     0.00838384   -0.00838384   -0.06204956
     atom   58 type  1   force =     0.00838384    0.06204956    0.00838384
     atom   59 type  1   force =     0.05645032    0.03664941   -0.03664941
     atom   60 type  1   force =    -0.06204956   -0.00838384    0.00838384
     atom   61 type  1   force =    -0.03664941   -0.05645032   -0.03664941
     atom   62 type  1   force =    -0.03664941    0.03664941    0.05645032
     atom   63 type  1   force =    -0.01134190    0.01134190   -0.01134190
     The ionic contribution  to forces
     atom    1 type  1   force =    -0.00021959    0.00021936   -0.00021929
     atom    2 type  1   force =    -0.00021959    0.00021955   -0.00021959
     atom    3 type  1   force =    -0.00021959    0.00021956   -0.00021928
     atom    4 type  1   force =    -0.00021929    0.00021936   -0.00021959
     atom    5 type  1   force =    -0.00021928    0.00021936   -0.00021928
     atom    6 type  1   force =    -0.00021928    0.00021956   -0.00021959
     atom    7 type  1   force =    -0.00021928    0.00021956   -0.00021928
     atom    8 type  1   force =     0.27774794    0.57488342   -0.27773527
     atom    9 type  1   force =     0.12386984    0.20761514    0.20761131
     atom   10 type  1   force =     2.07848570   -2.07848582   -2.07838481
     atom   11 type  1   force =     0.27773384   -0.27773395    0.57484225
     atom   12 type  1   force =    -0.20762230    0.20762218   -0.12386779
     atom   13 type  1   force =    -0.11151322    0.11151310    0.11151050
     atom   14 type  1   force =    -0.57488354   -0.27774806   -0.27773527
     atom   15 type  1   force =    -0.20761526   -0.12386996    0.20761131
     atom   16 type  1   force =    -0.00021959    0.82868798   -0.82868820
     atom   17 type  1   force =    -0.00021959    0.82861994    0.82909148
     atom   18 type  1   force =    -0.00021959   -0.82909120   -0.82862020
     atom   19 type  1   force =    -0.00021959   -0.82902318    0.82902347
     atom   20 type  1   force =    -0.00021928    0.18702698   -0.18702721
     atom   21 type  1   force =    -0.00021928    0.18702137    0.18746500
     atom   22 type  1   force =    -0.00021928   -0.18746472   -0.18702160
     atom   23 type  1   force =    -0.00021928   -0.18745911    0.18745939
     atom   24 type  1   force =     2.07848570    2.07838455    2.07848570
     atom   25 type  1   force =     0.27774794    0.27773502   -0.57488354
     atom   26 type  1   force =     0.27773384   -0.57484190    0.27773384
     atom   27 type  1   force =     0.12386984   -0.20761094   -0.20761526
     atom   28 type  1   force =    -0.57488354    0.27773502    0.27774794
     atom   29 type  1   force =    -0.20762230    0.12386754   -0.20762230
     atom   30 type  1   force =    -0.20761526   -0.20761094    0.12386984
     atom   31 type  1   force =    -0.11151322   -0.11151013   -0.11151322
     atom   32 type  1   force =    -0.82868820    0.00021936   -0.82868820
     atom   33 type  1   force =    -0.82862017    0.00021936    0.82909148
     atom   34 type  1   force =    -0.18702721    0.00021956   -0.18702721
     atom   35 type  1   force =    -0.18702160    0.00021956    0.18746500
     atom   36 type  1   force =     0.82909148    0.00021936   -0.82862017
     atom   37 type  1   force =     0.82902345    0.00021936    0.82902345
     atom   38 type  1   force =     0.18746500    0.00021956   -0.18702160
     atom   39 type  1   force =     0.18745939    0.00021956    0.18745939
     atom   40 type  1   force =    -0.27773527    0.57488342    0.27774794
     atom   41 type  1   force =    -0.12386779    0.20762218   -0.20762230
     atom   42 type  1   force =    -2.07838481   -2.07848582    2.07848570
     atom   43 type  1   force =    -0.27773527   -0.27774806   -0.57488354
     atom   44 type  1   force =     0.20761131    0.20761514    0.12386984
     atom   45 type  1   force =     0.11151050    0.11151310   -0.11151322
     atom   46 type  1   force =     0.57484225   -0.27773395    0.27773384
     atom   47 type  1   force =     0.20761131   -0.12386996   -0.20761526
     atom   48 type  1   force =    -0.82868820    0.82868798   -0.00021959
     atom   49 type  1   force =    -0.18702721    0.18702698   -0.00021928
     atom   50 type  1   force =    -0.82862020   -0.82909120   -0.00021959
     atom   51 type  1   force =    -0.18702160   -0.18746472   -0.00021928
     atom   52 type  1   force =     0.82909148    0.82861994   -0.00021959
     atom   53 type  1   force =     0.18746500    0.18702137   -0.00021928
     atom   54 type  1   force =     0.82902347   -0.82902318   -0.00021959
     atom   55 type  1   force =     0.18745939   -0.18745911   -0.00021928
     atom   56 type  1   force =    -2.07859622    2.07859596   -2.07859622
     atom   57 type  1   force =    -0.27772921    0.27772896    0.57486240
     atom   58 type  1   force =    -0.27772922   -0.57486205   -0.27772922
     atom   59 type  1   force =    -0.12386344   -0.20760826    0.20760862
     atom   60 type  1   force =     0.57486240    0.27772896   -0.27772921
     atom   61 type  1   force =     0.20760862    0.12386318    0.20760862
     atom   62 type  1   force =     0.20760862   -0.20760826   -0.12386344
     atom   63 type  1   force =     0.11150735   -0.11150698    0.11150735
     The local contribution  to forces
     atom    1 type  1   force =     0.00003833   -0.00003839    0.00003306
     atom    2 type  1   force =     0.00003831   -0.00003290    0.00003826
     atom    3 type  1   force =     0.00000748   -0.00003480    0.00003500
     atom    4 type  1   force =     0.00003316   -0.00003837    0.00003826
     atom    5 type  1   force =     0.00003503   -0.00000755    0.00003499
     atom    6 type  1   force =     0.00003505   -0.00003481    0.00000741
     atom    7 type  1   force =     0.00003941   -0.00003917    0.00003936
     atom    8 type  1   force =    -0.27258526   -0.51122032    0.27258364
     atom    9 type  1   force =    -0.06137684   -0.17832090   -0.17833904
     atom   10 type  1   force =    -1.68749093    1.68749085    1.68756141
     atom   11 type  1   force =    -0.27258414    0.27258408   -0.51119672
     atom   12 type  1   force =     0.17831169   -0.17831176    0.06140362
     atom   13 type  1   force =     0.09855958   -0.09855965   -0.09855681
     atom   14 type  1   force =     0.51122025    0.27258520    0.27258363
     atom   15 type  1   force =     0.17832082    0.06137678   -0.17833905
     atom   16 type  1   force =     0.08906827   -0.73648530    0.73648519
     atom   17 type  1   force =    -0.08898897   -0.73640170   -0.73655813
     atom   18 type  1   force =    -0.08898897    0.73655831    0.73640159
     atom   19 type  1   force =     0.08903149    0.73644517   -0.73644499
     atom   20 type  1   force =    -0.00790369   -0.16111608    0.16111597
     atom   21 type  1   force =     0.00794776   -0.16111820   -0.16118002
     atom   22 type  1   force =     0.00794776    0.16118021    0.16111809
     atom   23 type  1   force =    -0.00787090    0.16118574   -0.16118556
     atom   24 type  1   force =    -1.68749097   -1.68756155   -1.68749099
     atom   25 type  1   force =    -0.27258524   -0.27258375    0.51122021
     atom   26 type  1   force =    -0.27258414    0.51119693   -0.27258418
     atom   27 type  1   force =    -0.06137684    0.17833923    0.17832077
     atom   28 type  1   force =     0.51122025   -0.27258375   -0.27258529
     atom   29 type  1   force =     0.17831168   -0.06140370    0.17831165
     atom   30 type  1   force =     0.17832083    0.17833924   -0.06137690
     atom   31 type  1   force =     0.09855959    0.09855699    0.09855954
     atom   32 type  1   force =     0.73648523   -0.08906833    0.73648519
     atom   33 type  1   force =     0.73640163    0.08898890   -0.73655814
     atom   34 type  1   force =     0.16111602    0.00790393    0.16111597
     atom   35 type  1   force =     0.16111814   -0.00794753   -0.16118002
     atom   36 type  1   force =    -0.73655807    0.08898890    0.73640156
     atom   37 type  1   force =    -0.73644492   -0.08903155   -0.73644496
     atom   38 type  1   force =    -0.16117997   -0.00794752    0.16111809
     atom   39 type  1   force =    -0.16118550    0.00787114   -0.16118555
     atom   40 type  1   force =     0.27258369   -0.51122032   -0.27258529
     atom   41 type  1   force =     0.06140364   -0.17831175    0.17831165
     atom   42 type  1   force =     1.68756147    1.68749090   -1.68749100
     atom   43 type  1   force =     0.27258368    0.27258517    0.51122020
     atom   44 type  1   force =    -0.17833900   -0.17832091   -0.06137690
     atom   45 type  1   force =    -0.09855675   -0.09855966    0.09855954
     atom   46 type  1   force =    -0.51119668    0.27258406   -0.27258417
     atom   47 type  1   force =    -0.17833900    0.06137677    0.17832076
     atom   48 type  1   force =     0.73648523   -0.73648530    0.08906820
     atom   49 type  1   force =     0.16111602   -0.16111608   -0.00790372
     atom   50 type  1   force =     0.73640165    0.73655832   -0.08898899
     atom   51 type  1   force =     0.16111814    0.16118020    0.00794772
     atom   52 type  1   force =    -0.73655808   -0.73640169   -0.08898898
     atom   53 type  1   force =    -0.16117997   -0.16111821    0.00794772
     atom   54 type  1   force =    -0.73644494    0.73644516    0.08903142
     atom   55 type  1   force =    -0.16118551    0.16118575   -0.00787094
     atom   56 type  1   force =     1.68778009   -1.68778016    1.68778006
     atom   57 type  1   force =     0.27257330   -0.27257337   -0.51123121
     atom   58 type  1   force =     0.27257331    0.51123139    0.27257326
     atom   59 type  1   force =     0.06138731    0.17831993   -0.17831973
     atom   60 type  1   force =    -0.51123113   -0.27257337    0.27257326
     atom   61 type  1   force =    -0.17831969   -0.06138739   -0.17831973
     atom   62 type  1   force =    -0.17831969    0.17831992    0.06138728
     atom   63 type  1   force =    -0.09854682    0.09854705   -0.09854687
     The core correction contribution to forces
     atom    1 type  1   force =     0.00010926   -0.00010926    0.00010873
     atom    2 type  1   force =     0.00010925   -0.00010874    0.00010926
     atom    3 type  1   force =     0.00011820   -0.00010688    0.00010687
     atom    4 type  1   force =     0.00010872   -0.00010926    0.00010926
     atom    5 type  1   force =     0.00010686   -0.00011820    0.00010687
     atom    6 type  1   force =     0.00010686   -0.00010688    0.00011821
     atom    7 type  1   force =     0.00010819   -0.00010821    0.00010820
     atom    8 type  1   force =     0.00010136    0.00085549   -0.00009996
     atom    9 type  1   force =     0.00085398    0.00051928    0.00055852
     atom   10 type  1   force =     0.00661793   -0.00661793   -0.00694803
     atom   11 type  1   force =     0.00009603   -0.00009603    0.00091831
     atom   12 type  1   force =    -0.00052811    0.00052811   -0.00093224
     atom   13 type  1   force =    -0.00015199    0.00015199    0.00016362
     atom   14 type  1   force =    -0.00085549   -0.00010136   -0.00009996
     atom   15 type  1   force =    -0.00051928   -0.00085398    0.00055852
     atom   16 type  1   force =     0.00112268    0.00090275   -0.00090274
     atom   17 type  1   force =    -0.00089354    0.00086744    0.00069070
     atom   18 type  1   force =    -0.00089354   -0.00069071   -0.00086744
     atom   19 type  1   force =     0.00112610   -0.00065490    0.00065489
     atom   20 type  1   force =     0.00007382    0.00042580   -0.00042580
     atom   21 type  1   force =     0.00014547    0.00042191    0.00020217
     atom   22 type  1   force =     0.00014547   -0.00020218   -0.00042190
     atom   23 type  1   force =     0.00006756   -0.00021018    0.00021017
     atom   24 type  1   force =     0.00661793    0.00694804    0.00661794
     atom   25 type  1   force =     0.00010136    0.00009997   -0.00085549
     atom   26 type  1   force =     0.00009603   -0.00091832    0.00009603
     atom   27 type  1   force =     0.00085398   -0.00055853   -0.00051928
     atom   28 type  1   force =    -0.00085549    0.00009997    0.00010136
     atom   29 type  1   force =    -0.00052811    0.00093225   -0.00052810
     atom   30 type  1   force =    -0.00051928   -0.00055853    0.00085399
     atom   31 type  1   force =    -0.00015199   -0.00016363   -0.00015199
     atom   32 type  1   force =    -0.00090275   -0.00112268   -0.00090274
     atom   33 type  1   force =    -0.00086744    0.00089354    0.00069070
     atom   34 type  1   force =    -0.00042580   -0.00007384   -0.00042580
     atom   35 type  1   force =    -0.00042191   -0.00014549    0.00020217
     atom   36 type  1   force =     0.00069069    0.00089354   -0.00086743
     atom   37 type  1   force =     0.00065489   -0.00112610    0.00065489
     atom   38 type  1   force =     0.00020216   -0.00014549   -0.00042190
     atom   39 type  1   force =     0.00021016   -0.00006758    0.00021017
     atom   40 type  1   force =    -0.00009997    0.00085549    0.00010136
     atom   41 type  1   force =    -0.00093225    0.00052811   -0.00052810
     atom   42 type  1   force =    -0.00694804   -0.00661793    0.00661794
     atom   43 type  1   force =    -0.00009997   -0.00010136   -0.00085549
     atom   44 type  1   force =     0.00055851    0.00051928    0.00085399
     atom   45 type  1   force =     0.00016361    0.00015199   -0.00015199
     atom   46 type  1   force =     0.00091831   -0.00009603    0.00009603
     atom   47 type  1   force =     0.00055851   -0.00085398   -0.00051928
     atom   48 type  1   force =    -0.00090275    0.00090275    0.00112268
     atom   49 type  1   force =    -0.00042580    0.00042580    0.00007383
     atom   50 type  1   force =    -0.00086744   -0.00069071   -0.00089354
     atom   51 type  1   force =    -0.00042191   -0.00020218    0.00014548
     atom   52 type  1   force =     0.00069069    0.00086744   -0.00089353
     atom   53 type  1   force =     0.00020216    0.00042191    0.00014548
     atom   54 type  1   force =     0.00065489   -0.00065490    0.00112611
     atom   55 type  1   force =     0.00021016   -0.00021018    0.00006757
     atom   56 type  1   force =    -0.00666577    0.00666576   -0.00666576
     atom   57 type  1   force =    -0.00010542    0.00010542    0.00085959
     atom   58 type  1   force =    -0.00010542   -0.00085960   -0.00010541
     atom   59 type  1   force =    -0.00085439   -0.00052887    0.00052886
     atom   60 type  1   force =     0.00085958    0.00010542   -0.00010542
     atom   61 type  1   force =     0.00052885    0.00085439    0.00052886
     atom   62 type  1   force =     0.00052885   -0.00052887   -0.00085438
     atom   63 type  1   force =     0.00015202   -0.00015204    0.00015203
     The Hubbard contrib.    to forces
     atom    1 type  1   force =     0.00000000    0.00000000    0.00000000
     atom    2 type  1   force =     0.00000000    0.00000000    0.00000000
     atom    3 type  1   force =     0.00000000    0.00000000    0.00000000
     atom    4 type  1   force =     0.00000000    0.00000000    0.00000000
     atom    5 type  1   force =     0.00000000    0.00000000    0.00000000
     atom    6 type  1   force =     0.00000000    0.00000000    0.00000000
     atom    7 type  1   force =     0.00000000    0.00000000    0.00000000
     atom    8 type  1   force =     0.00000000    0.00000000    0.00000000
     atom    9 type  1   force =     0.00000000    0.00000000    0.00000000
     atom   10 type  1   force =     0.00000000    0.00000000    0.00000000
     atom   11 type  1   force =     0.00000000    0.00000000    0.00000000
     atom   12 type  1   force =     0.00000000    0.00000000    0.00000000
     atom   13 type  1   force =     0.00000000    0.00000000    0.00000000
     atom   14 type  1   force =     0.00000000    0.00000000    0.00000000
     atom   15 type  1   force =     0.00000000    0.00000000    0.00000000
     atom   16 type  1   force =     0.00000000    0.00000000    0.00000000
     atom   17 type  1   force =     0.00000000    0.00000000    0.00000000
     atom   18 type  1   force =     0.00000000    0.00000000    0.00000000
     atom   19 type  1   force =     0.00000000    0.00000000    0.00000000
     atom   20 type  1   force =     0.00000000    0.00000000    0.00000000
     atom   21 type  1   force =     0.00000000    0.00000000    0.00000000
     atom   22 type  1   force =     0.00000000    0.00000000    0.00000000
     atom   23 type  1   force =     0.00000000    0.00000000    0.00000000
     atom   24 type  1   force =     0.00000000    0.00000000    0.00000000
     atom   25 type  1   force =     0.00000000    0.00000000    0.00000000
     atom   26 type  1   force =     0.00000000    0.00000000    0.00000000
     atom   27 type  1   force =     0.00000000    0.00000000    0.00000000
     atom   28 type  1   force =     0.00000000    0.00000000    0.00000000
     atom   29 type  1   force =     0.00000000    0.00000000    0.00000000
     atom   30 type  1   force =     0.00000000    0.00000000    0.00000000
     atom   31 type  1   force =     0.00000000    0.00000000    0.00000000
     atom   32 type  1   force =     0.00000000    0.00000000    0.00000000
     atom   33 type  1   force =     0.00000000    0.00000000    0.00000000
     atom   34 type  1   force =     0.00000000    0.00000000    0.00000000
     atom   35 type  1   force =     0.00000000    0.00000000    0.00000000
     atom   36 type  1   force =     0.00000000    0.00000000    0.00000000
     atom   37 type  1   force =     0.00000000    0.00000000    0.00000000
     atom   38 type  1   force =     0.00000000    0.00000000    0.00000000
     atom   39 type  1   force =     0.00000000    0.00000000    0.00000000
     atom   40 type  1   force =     0.00000000    0.00000000    0.00000000
     atom   41 type  1   force =     0.00000000    0.00000000    0.00000000
     atom   42 type  1   force =     0.00000000    0.00000000    0.00000000
     atom   43 type  1   force =     0.00000000    0.00000000    0.00000000
     atom   44 type  1   force =     0.00000000    0.00000000    0.00000000
     atom   45 type  1   force =     0.00000000    0.00000000    0.00000000
     atom   46 type  1   force =     0.00000000    0.00000000    0.00000000
     atom   47 type  1   force =     0.00000000    0.00000000    0.00000000
     atom   48 type  1   force =     0.00000000    0.00000000    0.00000000
     atom   49 type  1   force =     0.00000000    0.00000000    0.00000000
     atom   50 type  1   force =     0.00000000    0.00000000    0.00000000
     atom   51 type  1   force =     0.00000000    0.00000000    0.00000000
     atom   52 type  1   force =     0.00000000    0.00000000    0.00000000
     atom   53 type  1   force =     0.00000000    0.00000000    0.00000000
     atom   54 type  1   force =     0.00000000    0.00000000    0.00000000
     atom   55 type  1   force =     0.00000000    0.00000000    0.00000000
     atom   56 type  1   force =     0.00000000    0.00000000    0.00000000
     atom   57 type  1   force =     0.00000000    0.00000000    0.00000000
     atom   58 type  1   force =     0.00000000    0.00000000    0.00000000
     atom   59 type  1   force =     0.00000000    0.00000000    0.00000000
     atom   60 type  1   force =     0.00000000    0.00000000    0.00000000
     atom   61 type  1   force =     0.00000000    0.00000000    0.00000000
     atom   62 type  1   force =     0.00000000    0.00000000    0.00000000
     atom   63 type  1   force =     0.00000000    0.00000000    0.00000000
     The SCF correction term to forces
     atom    1 type  1   force =    -0.00000401    0.00000401    0.00000118
     atom    2 type  1   force =    -0.00000401   -0.00000118   -0.00000401
     atom    3 type  1   force =     0.00000551   -0.00000554    0.00000554
     atom    4 type  1   force =     0.00000118    0.00000401   -0.00000401
     atom    5 type  1   force =     0.00000554   -0.00000551    0.00000554
     atom    6 type  1   force =     0.00000554   -0.00000554    0.00000551
     atom    7 type  1   force =    -0.00000842    0.00000842   -0.00000842
     atom    8 type  1   force =    -0.00000640    0.00000437   -0.00000695
     atom    9 type  1   force =     0.00000783    0.00001080    0.00000948
     atom   10 type  1   force =     0.00000183   -0.00000183    0.00000857
     atom   11 type  1   force =     0.00000977   -0.00000977   -0.00000698
     atom   12 type  1   force =     0.00000667   -0.00000667   -0.00000861
     atom   13 type  1   force =    -0.00001401    0.00001401    0.00001258
     atom   14 type  1   force =    -0.00000437    0.00000640   -0.00000695
     atom   15 type  1   force =    -0.00001080   -0.00000783    0.00000948
     atom   16 type  1   force =    -0.00001248    0.00001338   -0.00001338
     atom   17 type  1   force =    -0.00000054    0.00000289    0.00000600
     atom   18 type  1   force =    -0.00000054   -0.00000600   -0.00000289
     atom   19 type  1   force =     0.00001433   -0.00000098    0.00000098
     atom   20 type  1   force =     0.00002003    0.00000458   -0.00000458
     atom   21 type  1   force =     0.00000088    0.00001336    0.00000273
     atom   22 type  1   force =     0.00000088   -0.00000273   -0.00001336
     atom   23 type  1   force =    -0.00001715   -0.00001719    0.00001719
     atom   24 type  1   force =     0.00000183   -0.00000857    0.00000183
     atom   25 type  1   force =    -0.00000640    0.00000695   -0.00000437
     atom   26 type  1   force =     0.00000977    0.00000698    0.00000977
     atom   27 type  1   force =     0.00000783   -0.00000948   -0.00001080
     atom   28 type  1   force =    -0.00000437    0.00000695   -0.00000640
     atom   29 type  1   force =     0.00000667    0.00000861    0.00000667
     atom   30 type  1   force =    -0.00001080   -0.00000948    0.00000783
     atom   31 type  1   force =    -0.00001401   -0.00001258   -0.00001401
     atom   32 type  1   force =    -0.00001338    0.00001248   -0.00001338
     atom   33 type  1   force =    -0.00000289    0.00000054    0.00000600
     atom   34 type  1   force =    -0.00000458   -0.00002003   -0.00000458
     atom   35 type  1   force =    -0.00001336   -0.00000088    0.00000273
     atom   36 type  1   force =     0.00000600    0.00000054   -0.00000289
     atom   37 type  1   force =     0.00000098   -0.00001433    0.00000098
     atom   38 type  1   force =     0.00000273   -0.00000088   -0.00001336
     atom   39 type  1   force =     0.00001719    0.00001715    0.00001719
     atom   40 type  1   force =    -0.00000695    0.00000437   -0.00000640
     atom   41 type  1   force =    -0.00000861   -0.00000667    0.00000667
     atom   42 type  1   force =     0.00000857   -0.00000183    0.00000183
     atom   43 type  1   force =    -0.00000695    0.00000640   -0.00000437
     atom   44 type  1   force =     0.00000948    0.00001080    0.00000783
     atom   45 type  1   force =     0.00001258    0.00001401   -0.00001401
     atom   46 type  1   force =    -0.00000698   -0.00000977    0.00000977
     atom   47 type  1   force =     0.00000948   -0.00000783   -0.00001080
     atom   48 type  1   force =    -0.00001338    0.00001338   -0.00001248
     atom   49 type  1   force =    -0.00000458    0.00000458    0.00002003
     atom   50 type  1   force =    -0.00000289   -0.00000600   -0.00000054
     atom   51 type  1   force =    -0.00001336   -0.00000273    0.00000088
     atom   52 type  1   force =     0.00000600    0.00000289   -0.00000054
     atom   53 type  1   force =     0.00000273    0.00001336    0.00000088
     atom   54 type  1   force =     0.00000098   -0.00000098    0.00001433
     atom   55 type  1   force =     0.00001719   -0.00001719   -0.00001715
     atom   56 type  1   force =    -0.00001441    0.00001441   -0.00001441
     atom   57 type  1   force =    -0.00000181    0.00000181    0.00001218
[...]
     atom   20 type  1   force =     0.00000000    0.00000000    0.00000000
     atom   21 type  1   force =     0.00000000    0.00000000    0.00000000
     atom   22 type  1   force =     0.00000000    0.00000000    0.00000000
     atom   23 type  1   force =     0.00000000    0.00000000    0.00000000
     atom   24 type  1   force =     0.00000000    0.00000000    0.00000000
     atom   25 type  1   force =     0.00000000    0.00000000    0.00000000
     atom   26 type  1   force =     0.00000000    0.00000000    0.00000000
     atom   27 type  1   force =     0.00000000    0.00000000    0.00000000
     atom   28 type  1   force =     0.00000000    0.00000000    0.00000000
     atom   29 type  1   force =     0.00000000    0.00000000    0.00000000
     atom   30 type  1   force =     0.00000000    0.00000000    0.00000000
     atom   31 type  1   force =     0.00000000    0.00000000    0.00000000
     atom   32 type  1   force =     0.00000000    0.00000000    0.00000000
     atom   33 type  1   force =     0.00000000    0.00000000    0.00000000
     atom   34 type  1   force =     0.00000000    0.00000000    0.00000000
     atom   35 type  1   force =     0.00000000    0.00000000    0.00000000
     atom   36 type  1   force =     0.00000000    0.00000000    0.00000000
     atom   37 type  1   force =     0.00000000    0.00000000    0.00000000
     atom   38 type  1   force =     0.00000000    0.00000000    0.00000000
     atom   39 type  1   force =     0.00000000    0.00000000    0.00000000
     atom   40 type  1   force =     0.00000000    0.00000000    0.00000000
     atom   41 type  1   force =     0.00000000    0.00000000    0.00000000
     atom   42 type  1   force =     0.00000000    0.00000000    0.00000000
     atom   43 type  1   force =     0.00000000    0.00000000    0.00000000
     atom   44 type  1   force =     0.00000000    0.00000000    0.00000000
     atom   45 type  1   force =     0.00000000    0.00000000    0.00000000
     atom   46 type  1   force =     0.00000000    0.00000000    0.00000000
     atom   47 type  1   force =     0.00000000    0.00000000    0.00000000
     atom   48 type  1   force =     0.00000000    0.00000000    0.00000000
     atom   49 type  1   force =     0.00000000    0.00000000    0.00000000
     atom   50 type  1   force =     0.00000000    0.00000000    0.00000000
     atom   51 type  1   force =     0.00000000    0.00000000    0.00000000
     atom   52 type  1   force =     0.00000000    0.00000000    0.00000000
     atom   53 type  1   force =     0.00000000    0.00000000    0.00000000
     atom   54 type  1   force =     0.00000000    0.00000000    0.00000000
     atom   55 type  1   force =     0.00000000    0.00000000    0.00000000
     atom   56 type  1   force =     0.00000000    0.00000000    0.00000000
     atom   57 type  1   force =     0.00000000    0.00000000    0.00000000
     atom   58 type  1   force =     0.00000000    0.00000000    0.00000000
     atom   59 type  1   force =     0.00000000    0.00000000    0.00000000
     atom   60 type  1   force =     0.00000000    0.00000000    0.00000000
     atom   61 type  1   force =     0.00000000    0.00000000    0.00000000
     atom   62 type  1   force =     0.00000000    0.00000000    0.00000000
     atom   63 type  1   force =     0.00000000    0.00000000    0.00000000
     The SCF correction term to forces
     atom    1 type  1   force =    -0.00000219    0.00000219    0.00000249
     atom    2 type  1   force =    -0.00000219   -0.00000249   -0.00000219
     atom    3 type  1   force =    -0.00000215   -0.00000215    0.00000215
     atom    4 type  1   force =     0.00000249    0.00000219   -0.00000219
     atom    5 type  1   force =     0.00000215    0.00000215    0.00000215
     atom    6 type  1   force =     0.00000215   -0.00000215   -0.00000215
     atom    7 type  1   force =     0.00000212   -0.00000212    0.00000212
     atom    8 type  1   force =     0.00000006   -0.00000279   -0.00000228
     atom    9 type  1   force =    -0.00000238   -0.00000131    0.00000252
     atom   10 type  1   force =    -0.00000298    0.00000298   -0.00000140
     atom   11 type  1   force =    -0.00000150    0.00000150    0.00000159
     atom   12 type  1   force =    -0.00000021    0.00000021    0.00000023
     atom   13 type  1   force =     0.00000284   -0.00000284   -0.00000072
     atom   14 type  1   force =     0.00000279   -0.00000006   -0.00000228
     atom   15 type  1   force =     0.00000131    0.00000238    0.00000252
     atom   16 type  1   force =     0.00000161   -0.00000014    0.00000014
     atom   17 type  1   force =    -0.00000449    0.00000009   -0.00000024
     atom   18 type  1   force =    -0.00000449    0.00000024   -0.00000009
     atom   19 type  1   force =    -0.00000169   -0.00000010    0.00000010
     atom   20 type  1   force =    -0.00000107   -0.00000006    0.00000006
     atom   21 type  1   force =     0.00000384   -0.00000001   -0.00000004
     atom   22 type  1   force =     0.00000384    0.00000004    0.00000001
     atom   23 type  1   force =     0.00000234    0.00000002   -0.00000002
     atom   24 type  1   force =    -0.00000298    0.00000140   -0.00000298
     atom   25 type  1   force =     0.00000006    0.00000228    0.00000279
     atom   26 type  1   force =    -0.00000150   -0.00000159   -0.00000150
     atom   27 type  1   force =    -0.00000238   -0.00000252    0.00000131
     atom   28 type  1   force =     0.00000279    0.00000228    0.00000006
     atom   29 type  1   force =    -0.00000021   -0.00000023   -0.00000021
     atom   30 type  1   force =     0.00000131   -0.00000252   -0.00000238
     atom   31 type  1   force =     0.00000284    0.00000072    0.00000284
     atom   32 type  1   force =     0.00000014   -0.00000161    0.00000014
     atom   33 type  1   force =    -0.00000009    0.00000449   -0.00000024
     atom   34 type  1   force =     0.00000006    0.00000107    0.00000006
     atom   35 type  1   force =     0.00000001   -0.00000384   -0.00000004
     atom   36 type  1   force =    -0.00000024    0.00000449   -0.00000009
     atom   37 type  1   force =     0.00000010    0.00000169    0.00000010
     atom   38 type  1   force =    -0.00000004   -0.00000384    0.00000001
     atom   39 type  1   force =    -0.00000002   -0.00000234   -0.00000002
     atom   40 type  1   force =    -0.00000228   -0.00000279    0.00000006
     atom   41 type  1   force =     0.00000023    0.00000021   -0.00000021
     atom   42 type  1   force =    -0.00000140    0.00000298   -0.00000298
     atom   43 type  1   force =    -0.00000228   -0.00000006    0.00000279
     atom   44 type  1   force =     0.00000252   -0.00000131   -0.00000238
     atom   45 type  1   force =    -0.00000072   -0.00000284    0.00000284
     atom   46 type  1   force =     0.00000159    0.00000150   -0.00000150
     atom   47 type  1   force =     0.00000252    0.00000238    0.00000131
     atom   48 type  1   force =     0.00000014   -0.00000014    0.00000161
     atom   49 type  1   force =     0.00000006   -0.00000006   -0.00000107
     atom   50 type  1   force =    -0.00000009    0.00000024   -0.00000449
     atom   51 type  1   force =     0.00000001    0.00000004    0.00000384
     atom   52 type  1   force =    -0.00000024    0.00000009   -0.00000449
     atom   53 type  1   force =    -0.00000004   -0.00000001    0.00000384
     atom   54 type  1   force =     0.00000010   -0.00000010   -0.00000169
     atom   55 type  1   force =    -0.00000002    0.00000002    0.00000234
     atom   56 type  1   force =     0.00000072   -0.00000072    0.00000072
     atom   57 type  1   force =    -0.00000243    0.00000243   -0.00000054
     atom   58 type  1   force =    -0.00000243    0.00000054   -0.00000243
     atom   59 type  1   force =    -0.00000155   -0.00000271    0.00000271
     atom   60 type  1   force =    -0.00000054    0.00000243   -0.00000243
     atom   61 type  1   force =     0.00000271    0.00000155    0.00000271
     atom   62 type  1   force =     0.00000271   -0.00000271   -0.00000155
     atom   63 type  1   force =     0.00000105   -0.00000105    0.00000105

     Total force =     0.002485     Total SCF correction =     0.000027


     Computing stress (Cartesian axis) and pressure



     -----------------------------------------------
     Non-local corr. energy    =       2.16645205 Ry
     -----------------------------------------------

          total   stress  (Ry/bohr**3)                   (kbar)     P=      163.82
   0.00111360  -0.00000010   0.00000010          163.82       -0.01        0.01
  -0.00000010   0.00111360  -0.00000010           -0.01      163.82       -0.01
   0.00000010  -0.00000010   0.00111360            0.01       -0.01      163.82

     kinetic stress (kbar)  18857.82      0.02     -0.02
                                0.02  18857.82      0.02
                               -0.02      0.02  18857.82

     local   stress (kbar)  -3775.72      0.12     -0.12
                                0.12  -3775.72      0.12
                               -0.12      0.12  -3775.72

     nonloc. stress (kbar)   4283.39      0.00     -0.00
                                0.00   4283.39      0.00
                               -0.00      0.00   4283.39

     hartree stress (kbar)   1373.90     -0.05      0.05
                               -0.05   1373.90     -0.05
                                0.05     -0.05   1373.90

     exc-cor stress (kbar)   -439.77      0.02     -0.02
                                0.02   -439.77      0.02
                               -0.02      0.02   -439.77

     corecor stress (kbar)  -4369.06     -0.02      0.02
                               -0.02  -4369.06     -0.02
                                0.02     -0.02  -4369.06

     ewald   stress (kbar) -15791.69     -0.11      0.11
                               -0.11 -15791.69     -0.11
                                0.11     -0.11 -15791.69

     hubbard stress (kbar)      0.00      0.00      0.00
                                0.00      0.00      0.00
                                0.00      0.00      0.00

     DFT-D   stress (kbar)      0.00      0.00      0.00
                                0.00      0.00      0.00
                                0.00      0.00      0.00

     XDM     stress (kbar)      0.00      0.00      0.00
                                0.00      0.00      0.00
                                0.00      0.00      0.00

     dft-nl  stress (kbar)     24.94      0.00     -0.00
                                0.00     24.94      0.00
                               -0.00      0.00     24.94

     TS-vdW  stress (kbar)      0.00      0.00      0.00
                                0.00      0.00      0.00
                                0.00      0.00      0.00

     MDB     stress (kbar)      0.00      0.00      0.00
                                0.00      0.00      0.00
                                0.00      0.00      0.00

     3D-RISM stress (kbar)      0.00      0.00      0.00
                                0.00      0.00      0.00
                                0.00      0.00      0.00

     Energy error            =      2.8E-05 Ry
     Gradient error          =      4.0E-04 Ry/Bohr

     bfgs converged in   6 scf cycles and   5 bfgs steps
     (criteria: energy <  1.0E-04 Ry, force <  1.0E-03 Ry/Bohr)

     End of BFGS Geometry Optimization

     Final energy             =   -1193.9071941301 Ry

     File ./diamond.bfgs deleted, as requested
Begin final coordinates

ATOMIC_POSITIONS (angstrom)
C             0.8931044257        2.6791983927        4.4653950477
C             0.8931044257        6.2515134083        0.8931044257
C             0.8930347005        6.2515187630        4.4653896930
C             4.4653950477        2.6791983927        0.8931044257
C             4.4653896930        2.6792681179        4.4653896930
C             4.4653896930        6.2515187630        0.8930347005
C             4.4654046321        6.2515038239        4.4654046321
C             0.0053157337        0.0089554201        1.7809398847
C             0.0051952338       -0.0060299230        5.3524939691
C            -0.0593324050        3.6316352238        1.8455535678
C             0.0053159505        3.5669868683        5.3673294245
C             3.5783577418       -0.0060549230        1.7809104340
C             3.5691662750        0.0031365438        5.3615140386
C             3.5633473987        3.5669870851        1.7809398847
C             3.5783327418        3.5671075850        5.3524939691
C             0.9084952583        0.9063375662        2.6659652522
C             0.8776795420        0.9065384998        6.2649555844
C             0.8776795420        4.4519528716        2.6657643186
C             0.9085748106        4.4520283012        6.2648801548
C             4.4690652025        0.8971034704        2.6751993480
C             4.4617430030        0.8971690152        6.2554341696
C             4.4617430030        4.4614742864        2.6751338032
C             4.4691099820        4.4614101781        6.2554982779
C            -0.0593324050        1.7267492506       -0.0593324050
C             0.0053157337        1.7913629337        3.5633473987
C             0.0053159505        5.3495790315        0.0053159505
C             0.0051952338        5.3644144869        3.5783327418
C             3.5633473987        1.7913629337        0.0053157337
C             3.5783577418        1.7913923844        3.5783577418
C             3.5783327418        5.3644144869        0.0051952338
C             3.5691662750        5.3553944174        3.5691662750
C             2.6659652522        2.6638075601        2.6659652522
C             2.6657643186        2.6946232764        6.2649555844
C             2.6751993480        6.2478432535        2.6751993480
C             2.6751338032        6.2551654530        6.2554341696
C             6.2649555844        2.6946232764        2.6657643186
C             6.2648801548        2.6637280078        6.2648801548
C             6.2554341696        6.2551654530        2.6751338032
C             6.2554982779        6.2477984740        6.2554982779
C             1.7809398847        0.0089554201        0.0053157337
C             1.7809104340       -0.0060549230        3.5783577418
C             1.8455535678        3.6316352238       -0.0593324050
C             1.7809398847        3.5669870851        3.5633473987
C             5.3524939691       -0.0060299230        0.0051952338
C             5.3615140386        0.0031365438        3.5691662750
C             5.3673294245        3.5669868683        0.0053159505
C             5.3524939691        3.5671075850        3.5783327418
C             2.6659652522        0.9063375662        0.9084952583
C             2.6751993480        0.8971034704        4.4690652025
C             2.6657643186        4.4519528716        0.8776795420
C             2.6751338032        4.4614742864        4.4617430030
C             6.2649555844        0.9065384998        0.8776795420
C             6.2554341696        0.8971690152        4.4617430030
C             6.2648801548        4.4520283012        0.9085748106
C             6.2554982779        4.4614101781        4.4691099820
C             1.8456243765        1.7266784419        1.8456243765
C             1.7807327928        1.7915700256        5.3675566304
C             1.7807327928        5.3493518256        1.7807327928
C             1.7808014445        5.3645853734        5.3523230826
C             5.3675566304        1.7915700256        1.7807327928
C             5.3523230826        1.7915013739        5.3523230826
C             5.3523230826        5.3645853734        1.7808014445
C             5.3616186933        5.3552897627        5.3616186933
End final coordinates



     Writing all to output data dir ./diamond.save/
 
     init_run     :      0.93s CPU      1.01s WALL (       1 calls)
     electrons    :    132.22s CPU    135.92s WALL (       6 calls)
     update_pot   :      0.96s CPU      0.98s WALL (       5 calls)
     forces       :      1.86s CPU      1.92s WALL (       6 calls)
     stress       :     13.84s CPU     14.11s WALL (       6 calls)

     Called by init_run:
     wfcinit      :      0.35s CPU      0.37s WALL (       1 calls)
     wfcinit:atom :      0.00s CPU      0.00s WALL (       1 calls)
     wfcinit:wfcr :      0.33s CPU      0.35s WALL (       1 calls)
     potinit      :      0.43s CPU      0.47s WALL (       1 calls)
     hinit0       :      0.02s CPU      0.03s WALL (       1 calls)

     Called by electrons:
     c_bands      :    114.90s CPU    117.86s WALL (      63 calls)
     sum_band     :      6.12s CPU      6.26s WALL (      63 calls)
     v_of_rho     :      8.58s CPU      8.79s WALL (      67 calls)
     v_h          :      0.08s CPU      0.08s WALL (      67 calls)
     v_xc         :      9.96s CPU     10.20s WALL (      79 calls)
     newd         :      0.43s CPU      0.44s WALL (      67 calls)
     PAW_pot      :      2.92s CPU      2.95s WALL (      72 calls)
     mix_rho      :      0.28s CPU      0.29s WALL (      63 calls)
     vdW_kernel   :      0.25s CPU      0.26s WALL (       1 calls)

     Called by c_bands:
     init_us_2    :      0.79s CPU      0.82s WALL (     132 calls)
     init_us_2:cp :      0.79s CPU      0.82s WALL (     132 calls)
     cegterg      :    110.77s CPU    113.60s WALL (      63 calls)

     Called by sum_band:
     sum_band:wei :      0.06s CPU      0.06s WALL (      63 calls)
     sum_band:loo :      4.71s CPU      4.81s WALL (      63 calls)
     sum_band:buf :      0.00s CPU      0.00s WALL (      63 calls)
     sum_band:ini :      0.43s CPU      0.44s WALL (      63 calls)
     sum_band:cal :      1.73s CPU      1.75s WALL (      68 calls)
     sum_band:bec :      0.03s CPU      0.03s WALL (      68 calls)
     addusdens    :      0.33s CPU      0.34s WALL (      63 calls)
                                        0.00s GPU  (      63 calls)
     addusd:skk   :      0.08s CPU      0.09s WALL (      63 calls)
                                        0.00s GPU  (      63 calls)

     Called by *egterg:
     cdiaghg      :     57.56s CPU     59.32s WALL (     616 calls)
     cegterg:over :      8.27s CPU      8.47s WALL (     560 calls)
     cegterg:upda :      6.43s CPU      6.54s WALL (     560 calls)
     cegterg:last :      1.71s CPU      1.73s WALL (      66 calls)
     cdiaghg:chol :      3.69s CPU      3.75s WALL (     616 calls)
     cdiaghg:inve :      1.25s CPU      1.27s WALL (     616 calls)
     cdiaghg:para :     12.03s CPU     13.09s WALL (    1232 calls)
     h_psi        :     30.40s CPU     31.02s WALL (     624 calls)
     s_psi        :      5.12s CPU      5.21s WALL (     624 calls)
     g_psi        :      0.04s CPU      0.04s WALL (     560 calls)

     Called by h_psi:
     h_psi:calbec :      7.04s CPU      7.14s WALL (     624 calls)
     vloc_psi     :     16.38s CPU     16.78s WALL (     624 calls)
     add_vuspsi   :      6.70s CPU      6.80s WALL (     624 calls)

     General routines
     calbec       :      9.52s CPU      9.66s WALL (     722 calls)
     fft          :      4.51s CPU      4.59s WALL (    5230 calls)
     ffts         :      0.10s CPU      0.10s WALL (     130 calls)
     fftw         :     17.17s CPU     17.55s WALL (   69776 calls)
     interpolate  :      0.12s CPU      0.12s WALL (      67 calls)
 
     Parallel routines

     PAW routines
     PAW_pot      :      2.92s CPU      2.95s WALL (      72 calls)
     PAW_symme    :      0.08s CPU      0.08s WALL (     135 calls)
 
     PWSCF        :   2m30.73s CPU   2m35.73s WALL

 
   This run was terminated on:   7:22: 6  30Sep2023            

=------------------------------------------------------------------------------=
   JOB DONE.
=------------------------------------------------------------------------------=
