
     Program PWSCF v.7.2 starts on 19Feb2024 at 10:46:46 

     This program is part of the open-source Quantum ESPRESSO suite
     for quantum simulation of materials; please cite
         "P. Giannozzi et al., J. Phys.:Condens. Matter 21 395502 (2009);
         "P. Giannozzi et al., J. Phys.:Condens. Matter 29 465901 (2017);
         "P. Giannozzi et al., J. Chem. Phys. 152 154105 (2020);
          URL http://www.quantum-espresso.org", 
     in publications or presentations arising from this work. More details at
     http://www.quantum-espresso.org/quote

     Parallel version (MPI & OpenMP), running on     128 processor cores
     Number of MPI processes:               128
     Threads/MPI process:                     1

     MPI processes distributed on     1 nodes
     1979591 MiB available memory on the printing compute node when the environment starts
 
     Reading input from espresso.pwi
Warning: card &CELL ignored
Warning: card    CELL_DYNAMICS    = 'BFGS' ignored
Warning: card / ignored

     Current dimensions of program PWSCF are:
     Max number of different atomic species (ntypx) = 10
     Max number of k-points (npk) =  40000
     Max angular momentum in pseudopotentials (lmaxx) =  4
     file C.pbe-n-kjpaw_psl.1.0.0.UPF: wavefunction(s)  2S 2P renormalized

     **************************************************************************
     Initializing libbeef V0.1.2 with the BEEF-vdW functional.
     Citation: Wellendorff et al., PRB 85, 235149 (2012).
     **************************************************************************


     IMPORTANT: XC functional enforced from input :
     Exchange-correlation= BEEF-VDW
                           (   1   4  43  14   2   0   0)
     Any further DFT definition will be discarded
     Please, verify this is what you really want

 
     K-points division:     npool     =       4
     R & G space division:  proc/nbgrp/npool/nimage =      32
     Subspace diagonalization in iterative solution of the eigenvalue problem:
     a serial algorithm will be used

 
     Parallelization info
     --------------------
     sticks:   dense  smooth     PW     G-vecs:    dense   smooth      PW
     Min         158     126     34                 8504     6078     876
     Max         160     127     35                 8506     6081     881
     Sum        5073    4049   1109               272153   194543   28113
 
     Using Slab Decomposition
 


     bravais-lattice index     =            1
     lattice parameter (alat)  =      13.5013  a.u.
     unit-cell volume          =    2461.1121 (a.u.)^3
     number of atoms/cell      =           63
     number of atomic types    =            1
     number of electrons       =       254.00
     number of Kohn-Sham states=          152
     kinetic-energy cutoff     =      70.0000  Ry
     charge density cutoff     =     350.0000  Ry
     scf convergence threshold =      1.0E-07
     mixing beta               =       0.7000
     number of iterations used =            8  plain     mixing
     energy convergence thresh.=      1.0E-04
     force convergence thresh. =      1.0E-03
     Exchange-correlation= BEEF-VDW
                           (   1   4  43  14   2   0   0)
     nstep                     =           50


     celldm(1)=  13.501348  celldm(2)=   0.000000  celldm(3)=   0.000000
     celldm(4)=   0.000000  celldm(5)=   0.000000  celldm(6)=   0.000000

     crystal axes: (cart. coord. in units of alat)
               a(1) = (   1.000000   0.000000   0.000000 )  
               a(2) = (   0.000000   1.000000   0.000000 )  
               a(3) = (   0.000000   0.000000   1.000000 )  

     reciprocal axes: (cart. coord. in units 2 pi/alat)
               b(1) = (  1.000000  0.000000  0.000000 )  
               b(2) = (  0.000000  1.000000  0.000000 )  
               b(3) = (  0.000000  0.000000  1.000000 )  


     PseudoPot. # 1 for C  read from file:
     /trace/group/acmegroup/atimmins/packages/espresso/pseudo/psl_1.0.0/pslibrary.1.0.0/pbe/PSEUDOPOTENTIALS/C.pbe-n-kjpaw_psl.1.0.0.UPF
     MD5 check sum: 5459cf7f2c8c37df2f7cde8914797f4d
     Pseudo is Projector augmented-wave + core cor, Zval =  4.0
     Generated using 'atomic' code by A. Dal Corso  v.7.1
     Shape of augmentation charge: PSQ
     Using radial grid of 1073 points,  4 beta functions with: 
                l(1) =   0
                l(2) =   0
                l(3) =   1
                l(4) =   1
     Q(r) pseudized with 0 coefficients 


     atomic species   valence    mass     pseudopotential
        C              4.00    12.01100     C ( 1.00)

      6 Sym. Ops. (no inversion) found ( 4 have fractional translation)


                                    s                        frac. trans.

      isym =  1     identity                                     

 cryst.   s( 1) = (     1          0          0      )
                  (     0          1          0      )
                  (     0          0          1      )

 cart.    s( 1) = (  1.0000000  0.0000000  0.0000000 )
                  (  0.0000000  1.0000000  0.0000000 )
                  (  0.0000000  0.0000000  1.0000000 )


      isym =  2     120 deg rotation - cart. axis [1,-1,1]       

 cryst.   s( 2) = (     0          0          1      )    f =( -0.5000000 )
                  (    -1          0          0      )       ( -0.5000000 )
                  (     0         -1          0      )       (  0.0000000 )

 cart.    s( 2) = (  0.0000000 -1.0000000  0.0000000 )    f =( -0.5000000 )
                  (  0.0000000  0.0000000 -1.0000000 )       ( -0.5000000 )
                  (  1.0000000  0.0000000  0.0000000 )       (  0.0000000 )


      isym =  3     120 deg rotation - cart. axis [-1,1,-1]      

 cryst.   s( 3) = (     0         -1          0      )    f =(  0.0000000 )
                  (     0          0         -1      )       ( -0.5000000 )
                  (     1          0          0      )       ( -0.5000000 )

 cart.    s( 3) = (  0.0000000  0.0000000  1.0000000 )    f =(  0.0000000 )
                  ( -1.0000000  0.0000000  0.0000000 )       ( -0.5000000 )
                  (  0.0000000 -1.0000000  0.0000000 )       ( -0.5000000 )


      isym =  4     inv. 180 deg rotation - cart. axis [1,1,0]   

 cryst.   s( 4) = (     0         -1          0      )    f =( -0.5000000 )
                  (    -1          0          0      )       ( -0.5000000 )
                  (     0          0          1      )       (  0.0000000 )

 cart.    s( 4) = (  0.0000000 -1.0000000  0.0000000 )    f =( -0.5000000 )
                  ( -1.0000000  0.0000000  0.0000000 )       ( -0.5000000 )
                  (  0.0000000  0.0000000  1.0000000 )       (  0.0000000 )


      isym =  5     inv. 180 deg rotation - cart. axis [-1,0,1]  

 cryst.   s( 5) = (     0          0          1      )
                  (     0          1          0      )
                  (     1          0          0      )

 cart.    s( 5) = (  0.0000000  0.0000000  1.0000000 )
                  (  0.0000000  1.0000000  0.0000000 )
                  (  1.0000000  0.0000000  0.0000000 )


      isym =  6     inv. 180 deg rotation - cart. axis [0,1,1]   

 cryst.   s( 6) = (     1          0          0      )    f =(  0.0000000 )
                  (     0          0         -1      )       ( -0.5000000 )
                  (     0         -1          0      )       ( -0.5000000 )

 cart.    s( 6) = (  1.0000000  0.0000000  0.0000000 )    f =(  0.0000000 )
                  (  0.0000000  0.0000000 -1.0000000 )       ( -0.5000000 )
                  (  0.0000000 -1.0000000  0.0000000 )       ( -0.5000000 )


     point group C_3v (3m)  
     there are  3 classes
     the character table:

       E     2C3   3s_v 
A_1    1.00  1.00  1.00
A_2    1.00  1.00 -1.00
E      2.00 -1.00  0.00

     the symmetry operations in each class and the name of the first element:

     E        1
          identity                                               
     2C3      2    3
          120 deg rotation - cart. axis [1,-1,1]                 
     3s_v     4    5    6
          inv. 180 deg rotation - cart. axis [1,1,0]             

   Cartesian axes

     site n.     atom                  positions (alat units)
         1           C   tau(   1) = (   0.1250031   0.3749969   0.6250031  )
         2           C   tau(   2) = (   0.1250031   0.8749969   0.1250031  )
         3           C   tau(   3) = (   0.1250031   0.8749969   0.6250031  )
         4           C   tau(   4) = (   0.6250031   0.3749969   0.1250031  )
         5           C   tau(   5) = (   0.6250031   0.3749969   0.6250031  )
         6           C   tau(   6) = (   0.6250031   0.8749969   0.1250031  )
         7           C   tau(   7) = (   0.6250031   0.8749969   0.6250031  )
         8           C   tau(   8) = (   0.0000000   0.0000000   0.2500000  )
         9           C   tau(   9) = (   0.0000000   0.0000000   0.7500000  )
        10           C   tau(  10) = (   0.0000000   0.5000000   0.2500000  )
        11           C   tau(  11) = (   0.0000000   0.5000000   0.7500000  )
        12           C   tau(  12) = (   0.5000000   0.0000000   0.2500000  )
        13           C   tau(  13) = (   0.5000000   0.0000000   0.7500000  )
        14           C   tau(  14) = (   0.5000000   0.5000000   0.2500000  )
        15           C   tau(  15) = (   0.5000000   0.5000000   0.7500000  )
        16           C   tau(  16) = (   0.1250031   0.1250031   0.3749969  )
        17           C   tau(  17) = (   0.1250031   0.1250031   0.8749969  )
        18           C   tau(  18) = (   0.1250031   0.6250031   0.3749969  )
        19           C   tau(  19) = (   0.1250031   0.6250031   0.8749969  )
        20           C   tau(  20) = (   0.6250031   0.1250031   0.3749969  )
        21           C   tau(  21) = (   0.6250031   0.1250031   0.8749969  )
        22           C   tau(  22) = (   0.6250031   0.6250031   0.3749969  )
        23           C   tau(  23) = (   0.6250031   0.6250031   0.8749969  )
        24           C   tau(  24) = (   0.0000000   0.2500000   0.0000000  )
        25           C   tau(  25) = (   0.0000000   0.2500000   0.5000000  )
        26           C   tau(  26) = (   0.0000000   0.7500000   0.0000000  )
        27           C   tau(  27) = (   0.0000000   0.7500000   0.5000000  )
        28           C   tau(  28) = (   0.5000000   0.2500000   0.0000000  )
        29           C   tau(  29) = (   0.5000000   0.2500000   0.5000000  )
        30           C   tau(  30) = (   0.5000000   0.7500000   0.0000000  )
        31           C   tau(  31) = (   0.5000000   0.7500000   0.5000000  )
        32           C   tau(  32) = (   0.3749969   0.3749969   0.3749969  )
        33           C   tau(  33) = (   0.3749969   0.3749969   0.8749969  )
        34           C   tau(  34) = (   0.3749969   0.8749969   0.3749969  )
        35           C   tau(  35) = (   0.3749969   0.8749969   0.8749969  )
        36           C   tau(  36) = (   0.8749969   0.3749969   0.3749969  )
        37           C   tau(  37) = (   0.8749969   0.3749969   0.8749969  )
        38           C   tau(  38) = (   0.8749969   0.8749969   0.3749969  )
        39           C   tau(  39) = (   0.8749969   0.8749969   0.8749969  )
        40           C   tau(  40) = (   0.2500000   0.0000000   0.0000000  )
        41           C   tau(  41) = (   0.2500000   0.0000000   0.5000000  )
        42           C   tau(  42) = (   0.2500000   0.5000000   0.0000000  )
        43           C   tau(  43) = (   0.2500000   0.5000000   0.5000000  )
        44           C   tau(  44) = (   0.7500000   0.0000000   0.0000000  )
        45           C   tau(  45) = (   0.7500000   0.0000000   0.5000000  )
        46           C   tau(  46) = (   0.7500000   0.5000000   0.0000000  )
        47           C   tau(  47) = (   0.7500000   0.5000000   0.5000000  )
        48           C   tau(  48) = (   0.3749969   0.1250031   0.1250031  )
        49           C   tau(  49) = (   0.3749969   0.1250031   0.6250031  )
        50           C   tau(  50) = (   0.3749969   0.6250031   0.1250031  )
        51           C   tau(  51) = (   0.3749969   0.6250031   0.6250031  )
        52           C   tau(  52) = (   0.8749969   0.1250031   0.1250031  )
        53           C   tau(  53) = (   0.8749969   0.1250031   0.6250031  )
        54           C   tau(  54) = (   0.8749969   0.6250031   0.1250031  )
        55           C   tau(  55) = (   0.8749969   0.6250031   0.6250031  )
        56           C   tau(  56) = (   0.2500000   0.2500000   0.2500000  )
        57           C   tau(  57) = (   0.2500000   0.2500000   0.7500000  )
        58           C   tau(  58) = (   0.2500000   0.7500000   0.2500000  )
        59           C   tau(  59) = (   0.2500000   0.7500000   0.7500000  )
        60           C   tau(  60) = (   0.7500000   0.2500000   0.2500000  )
        61           C   tau(  61) = (   0.7500000   0.2500000   0.7500000  )
        62           C   tau(  62) = (   0.7500000   0.7500000   0.2500000  )
        63           C   tau(  63) = (   0.7500000   0.7500000   0.7500000  )

   Crystallographic axes

     site n.     atom                  positions (cryst. coord.)
         1           C   tau(   1) = (  0.1250031  0.3749969  0.6250031  )
         2           C   tau(   2) = (  0.1250031  0.8749969  0.1250031  )
         3           C   tau(   3) = (  0.1250031  0.8749969  0.6250031  )
         4           C   tau(   4) = (  0.6250031  0.3749969  0.1250031  )
         5           C   tau(   5) = (  0.6250031  0.3749969  0.6250031  )
         6           C   tau(   6) = (  0.6250031  0.8749969  0.1250031  )
         7           C   tau(   7) = (  0.6250031  0.8749969  0.6250031  )
         8           C   tau(   8) = (  0.0000000  0.0000000  0.2500000  )
         9           C   tau(   9) = (  0.0000000  0.0000000  0.7500000  )
        10           C   tau(  10) = (  0.0000000  0.5000000  0.2500000  )
        11           C   tau(  11) = (  0.0000000  0.5000000  0.7500000  )
        12           C   tau(  12) = (  0.5000000  0.0000000  0.2500000  )
        13           C   tau(  13) = (  0.5000000  0.0000000  0.7500000  )
        14           C   tau(  14) = (  0.5000000  0.5000000  0.2500000  )
        15           C   tau(  15) = (  0.5000000  0.5000000  0.7500000  )
        16           C   tau(  16) = (  0.1250031  0.1250031  0.3749969  )
        17           C   tau(  17) = (  0.1250031  0.1250031  0.8749969  )
        18           C   tau(  18) = (  0.1250031  0.6250031  0.3749969  )
        19           C   tau(  19) = (  0.1250031  0.6250031  0.8749969  )
        20           C   tau(  20) = (  0.6250031  0.1250031  0.3749969  )
        21           C   tau(  21) = (  0.6250031  0.1250031  0.8749969  )
        22           C   tau(  22) = (  0.6250031  0.6250031  0.3749969  )
        23           C   tau(  23) = (  0.6250031  0.6250031  0.8749969  )
        24           C   tau(  24) = (  0.0000000  0.2500000  0.0000000  )
        25           C   tau(  25) = (  0.0000000  0.2500000  0.5000000  )
        26           C   tau(  26) = (  0.0000000  0.7500000  0.0000000  )
        27           C   tau(  27) = (  0.0000000  0.7500000  0.5000000  )
        28           C   tau(  28) = (  0.5000000  0.2500000  0.0000000  )
        29           C   tau(  29) = (  0.5000000  0.2500000  0.5000000  )
        30           C   tau(  30) = (  0.5000000  0.7500000  0.0000000  )
        31           C   tau(  31) = (  0.5000000  0.7500000  0.5000000  )
        32           C   tau(  32) = (  0.3749969  0.3749969  0.3749969  )
        33           C   tau(  33) = (  0.3749969  0.3749969  0.8749969  )
        34           C   tau(  34) = (  0.3749969  0.8749969  0.3749969  )
        35           C   tau(  35) = (  0.3749969  0.8749969  0.8749969  )
        36           C   tau(  36) = (  0.8749969  0.3749969  0.3749969  )
        37           C   tau(  37) = (  0.8749969  0.3749969  0.8749969  )
        38           C   tau(  38) = (  0.8749969  0.8749969  0.3749969  )
        39           C   tau(  39) = (  0.8749969  0.8749969  0.8749969  )
        40           C   tau(  40) = (  0.2500000  0.0000000  0.0000000  )
        41           C   tau(  41) = (  0.2500000  0.0000000  0.5000000  )
        42           C   tau(  42) = (  0.2500000  0.5000000  0.0000000  )
        43           C   tau(  43) = (  0.2500000  0.5000000  0.5000000  )
        44           C   tau(  44) = (  0.7500000  0.0000000  0.0000000  )
        45           C   tau(  45) = (  0.7500000  0.0000000  0.5000000  )
        46           C   tau(  46) = (  0.7500000  0.5000000  0.0000000  )
        47           C   tau(  47) = (  0.7500000  0.5000000  0.5000000  )
        48           C   tau(  48) = (  0.3749969  0.1250031  0.1250031  )
        49           C   tau(  49) = (  0.3749969  0.1250031  0.6250031  )
        50           C   tau(  50) = (  0.3749969  0.6250031  0.1250031  )
        51           C   tau(  51) = (  0.3749969  0.6250031  0.6250031  )
        52           C   tau(  52) = (  0.8749969  0.1250031  0.1250031  )
        53           C   tau(  53) = (  0.8749969  0.1250031  0.6250031  )
        54           C   tau(  54) = (  0.8749969  0.6250031  0.1250031  )
        55           C   tau(  55) = (  0.8749969  0.6250031  0.6250031  )
        56           C   tau(  56) = (  0.2500000  0.2500000  0.2500000  )
        57           C   tau(  57) = (  0.2500000  0.2500000  0.7500000  )
        58           C   tau(  58) = (  0.2500000  0.7500000  0.2500000  )
        59           C   tau(  59) = (  0.2500000  0.7500000  0.7500000  )
        60           C   tau(  60) = (  0.7500000  0.2500000  0.2500000  )
        61           C   tau(  61) = (  0.7500000  0.2500000  0.7500000  )
        62           C   tau(  62) = (  0.7500000  0.7500000  0.2500000  )
        63           C   tau(  63) = (  0.7500000  0.7500000  0.7500000  )

     number of k points=     4  Gaussian smearing, width (Ry)=  0.0100
                       cart. coord. in units 2pi/alat
        k(    1) = (   0.0000000   0.0000000   0.0000000), wk =   0.2500000
        k(    2) = (   0.0000000   0.0000000  -0.5000000), wk =   0.7500000
        k(    3) = (   0.0000000  -0.5000000  -0.5000000), wk =   0.7500000
        k(    4) = (  -0.5000000  -0.5000000  -0.5000000), wk =   0.2500000

                       cryst. coord.
        k(    1) = (   0.0000000   0.0000000   0.0000000), wk =   0.2500000
        k(    2) = (   0.0000000   0.0000000  -0.5000000), wk =   0.7500000
        k(    3) = (   0.0000000  -0.5000000  -0.5000000), wk =   0.7500000
        k(    4) = (  -0.5000000  -0.5000000  -0.5000000), wk =   0.2500000

     Dense  grid:   272153 G-vectors     FFT dimensions: (  90,  90,  90)

     Smooth grid:   194543 G-vectors     FFT dimensions: (  72,  72,  72)

     Dynamical RAM for                 wfc:       1.76 MB

     Dynamical RAM for     wfc (w. buffer):       1.76 MB

     Dynamical RAM for           str. fact:       0.13 MB

     Dynamical RAM for           local pot:       0.00 MB

     Dynamical RAM for          nlocal pot:       5.84 MB

     Dynamical RAM for                qrad:       0.43 MB

     Dynamical RAM for          rho,v,vnew:       0.95 MB

     Dynamical RAM for               rhoin:       0.32 MB

     Dynamical RAM for            rho*nmix:       2.08 MB

     Dynamical RAM for           G-vectors:       0.53 MB

     Dynamical RAM for          h,s,v(r/c):      16.92 MB

     Dynamical RAM for          <psi|beta>:       1.17 MB

     Dynamical RAM for                 psi:       7.05 MB

     Dynamical RAM for                hpsi:       7.05 MB

     Dynamical RAM for                spsi:       7.05 MB

     Dynamical RAM for      wfcinit/wfcrot:       4.06 MB

     Dynamical RAM for           addusdens:       3.54 MB

     Dynamical RAM for          addusforce:       7.58 MB

     Dynamical RAM for         addusstress:       1.67 MB

     Estimated static dynamical RAM per process >      11.15 MB

     Estimated max dynamical RAM per process >      52.47 MB

     Estimated total dynamical RAM >       6.36 GB

     Atomic positions and unit cell read from directory:
     ./diamond.save/
     Atomic positions from file used, from input discarded
 

     Check: negative core charge=   -0.000014

     The initial density is read from file :
     ./diamond.save/charge-density



     %%%%%%%%%%%%%%%%%%%%%%%%%%%%%%%%%%%%%%%%%%%%%%%%%%%%%%%%%%%%%%%%%%%%%%%%
     %                                                                      %
     % You are using vdW-DF, which was implemented by the Thonhauser group. %
     % Please cite the following two papers that made this development      %
     % possible and the two reviews that describe the various versions:     %
     %                                                                      %
     %   T. Thonhauser et al., PRL 115, 136402 (2015).                      %
     %   T. Thonhauser et al., PRB 76, 125112 (2007).                       %
     %   K. Berland et al., Rep. Prog. Phys. 78, 066501 (2015).             %
     %   D.C. Langreth et al., J. Phys.: Condens. Matter 21, 084203 (2009). %
     %                                                                      %
     % If you are calculating stress with vdW-DF, please also cite:         %
     %                                                                      %
     %   R. Sabatini et al., J. Phys.: Condens. Matter 24, 424209 (2012).   %
     %                                                                      %
     %%%%%%%%%%%%%%%%%%%%%%%%%%%%%%%%%%%%%%%%%%%%%%%%%%%%%%%%%%%%%%%%%%%%%%%%

     %%%%%%%%%%%%%%%%%%%%%%%%%%%%%%%%%%%%%%%%%%%%%%%%%%%%%%%%%%%%%%%%%%%%%%%%
     %                                                                      %
     %  vdW-DF NEWS:                                                        %
     %                                                                      %
     %  * vdW-DF3 is now available. DOI: 10.1021/acs.jctc.0c00471           %
     %    use with input_dft = 'vdW-DF3-opt1' or 'vdW-DF3-opt2'             %
     %                                                                      %
     %  * Unscreened and range-separated hybrid vdW-DF-cx functionals       %
     %    DOI: 10.1063/1.4986522 and 10.1088/1361-648X/ac2ad2               %
     %    use with input_dft = 'vdW-DF-cx0'    and 'vdW-DF-ahcx'            %
     %  * Unscreened and range-separated hybrid vdW-DF2-b86r functionals    %
     %    DOI: 10.1063/1.4986522 and DOI: 10.1103/PhysRevX.12.041003        %
     %    use with input_dft = 'vdW-DF2-br0' and 'vdW-DF2-ahbr'             %
     %                                                                      %
     %%%%%%%%%%%%%%%%%%%%%%%%%%%%%%%%%%%%%%%%%%%%%%%%%%%%%%%%%%%%%%%%%%%%%%%%


     Carrying out vdW-DF run using the following parameters:
     Nqs    =  20  Npoints =  1024  r_max =  100.000
     q_mesh =  0.00001000  0.04494208  0.09755937  0.15916263
               0.23128650  0.31572767  0.41458969  0.53033537
               0.66584808  0.82450364  1.01025438  1.22772762
               1.48234092  1.78043706  2.12944203  2.53805004
               3.01644009  3.57652955  4.23227104  5.00000000


     -----------------------------------------------
     Non-local corr. energy    =       2.16645211 Ry
     -----------------------------------------------

     Wavefunctions not found or not readable, recomputing them from scratch
     Starting wfcs are  252 randomized atomic wfcs
     Checking if some PAW data can be deallocated... 

     total cpu time spent up to now is        2.2 secs

     Self-consistent Calculation

     iteration #  1     ecut=    70.00 Ry     beta= 0.70
     Davidson diagonalization with overlap

---- Real-time Memory Report at c_bands before calling an iterative solver
           190 MiB given to the printing process from OS
             0 MiB allocation reported by mallinfo(arena+hblkhd)
       1973180 MiB available memory on the node where the printing process lives
------------------
     ethr =  1.00E-05,  avg # of iterations = 14.8

     Threshold (ethr) on eigenvalues was too large:
     Diagonalizing with lowered threshold

     Davidson diagonalization with overlap

---- Real-time Memory Report at c_bands before calling an iterative solver
           218 MiB given to the printing process from OS
             0 MiB allocation reported by mallinfo(arena+hblkhd)
       1971560 MiB available memory on the node where the printing process lives
------------------
     ethr =  3.20E-10,  avg # of iterations = 14.0


     -----------------------------------------------
     Non-local corr. energy    =       2.16645163 Ry
     -----------------------------------------------


     total cpu time spent up to now is       11.7 secs

     total energy              =   -1193.90719400 Ry
     estimated scf accuracy    <       0.00000016 Ry

     iteration #  2     ecut=    70.00 Ry     beta= 0.70
     Davidson diagonalization with overlap

---- Real-time Memory Report at c_bands before calling an iterative solver
           219 MiB given to the printing process from OS
             0 MiB allocation reported by mallinfo(arena+hblkhd)
       1971550 MiB available memory on the node where the printing process lives
------------------
     ethr =  6.33E-11,  avg # of iterations =  7.5


     -----------------------------------------------
     Non-local corr. energy    =       2.16645167 Ry
     -----------------------------------------------


     total cpu time spent up to now is       14.9 secs

     total energy              =   -1193.90719347 Ry
     estimated scf accuracy    <       0.00001102 Ry

     iteration #  3     ecut=    70.00 Ry     beta= 0.70
     Davidson diagonalization with overlap

---- Real-time Memory Report at c_bands before calling an iterative solver
           220 MiB given to the printing process from OS
             0 MiB allocation reported by mallinfo(arena+hblkhd)
       1971566 MiB available memory on the node where the printing process lives
------------------
     ethr =  6.33E-11,  avg # of iterations =  7.0


     -----------------------------------------------
     Non-local corr. energy    =       2.16645214 Ry
     -----------------------------------------------


     total cpu time spent up to now is       17.7 secs

     End of self-consistent calculation

          k = 0.0000 0.0000 0.0000 ( 24303 PWs)   bands (ev):

    -8.8213  -6.6574  -6.6574  -6.5694  -6.5693  -6.5693  -6.2037  -4.5465
    -4.5465  -4.4463  -4.4461  -4.4461  -4.4410  -4.4410  -4.4406  -4.2523
    -4.2523  -4.2520  -3.8072  -3.0993  -3.0991  -3.0991  -2.0708  -0.6368
    -0.5945  -0.5945  -0.5943  -0.1941  -0.1941  -0.1542  -0.1526  -0.1521
    -0.1521   0.4637   0.4637   0.5064   0.5064   0.5066   0.5628   0.5628
     0.5633   0.9093   0.9093   0.9095   2.8340   3.8042   3.8043   3.8043
     3.8220   3.8224   3.8224   3.8332   3.8332   4.0385   4.0390   4.0390
     4.2944   4.2944   4.2946   4.3846   4.3931   4.3931   4.3938   4.5325
     4.5325   4.5956   4.5956   4.5958   4.8367   5.0433   5.0433   5.0436
     5.0912   5.0912   5.1129   5.1129   5.1132   5.7338   5.7338   5.7343
     6.3941   6.3942   6.3942   6.8279   6.8280   6.8280   7.2139   8.0090
     8.0090   8.0498   8.0498   8.0501   8.4610   8.4619   8.4619   8.5058
     8.5058   8.5064   8.5644   8.5646   8.5646   8.9242   8.9246   8.9246
     9.4961   9.4961   9.4964   9.5207   9.5210   9.5210   9.5436   9.5438
     9.5438   9.5564   9.7318   9.7318   9.7989   9.7989   9.9516   9.9520
     9.9520  11.5121  12.1376  12.1376  12.1379  15.1964  15.1964  15.1964
    17.0964  17.0964  17.2209  17.2209  17.2212  17.2991  17.6901  17.6901
    17.7576  17.7576  17.7586  18.2193  18.7028  18.7030  18.7030  20.5388
    20.5398  20.5398  20.5901  20.5901  20.6669  20.6669  20.6671  20.7121

     occupation numbers 
     1.0000   1.0000   1.0000   1.0000   1.0000   1.0000   1.0000   1.0000
     1.0000   1.0000   1.0000   1.0000   1.0000   1.0000   1.0000   1.0000
     1.0000   1.0000   1.0000   1.0000   1.0000   1.0000   1.0000   1.0000
     1.0000   1.0000   1.0000   1.0000   1.0000   1.0000   1.0000   1.0000
     1.0000   1.0000   1.0000   1.0000   1.0000   1.0000   1.0000   1.0000
     1.0000   1.0000   1.0000   1.0000   1.0000   1.0000   1.0000   1.0000
     1.0000   1.0000   1.0000   1.0000   1.0000   1.0000   1.0000   1.0000
     1.0000   1.0000   1.0000   1.0000   1.0000   1.0000   1.0000   1.0000
     1.0000   1.0000   1.0000   1.0000   1.0000   1.0000   1.0000   1.0000
     1.0000   1.0000   1.0000   1.0000   1.0000   1.0000   1.0000   1.0000
     1.0000   1.0000   1.0000   1.0000   1.0000   1.0000   1.0000   1.0000
     1.0000   1.0000   1.0000   1.0000   1.0000   1.0000   1.0000   1.0000
     1.0000   1.0000   1.0000   1.0000   1.0000   1.0000   1.0000   1.0000
     1.0000   1.0000   1.0000   1.0000   1.0000   1.0000   1.0000   1.0000
     1.0000   1.0000   1.0000   1.0000   1.0000   1.0000   1.0000   1.0000
     1.0000   1.0000   1.0000   1.0000   1.0000   0.1219   0.1218   0.1218
     0.0000   0.0000   0.0000   0.0000   0.0000   0.0000   0.0000   0.0000
     0.0000   0.0000   0.0000   0.0000   0.0000   0.0000   0.0000   0.0000
     0.0000   0.0000   0.0000   0.0000   0.0000   0.0000   0.0000   0.0000

          k = 0.0000 0.0000-0.5000 ( 24268 PWs)   bands (ev):

    -8.3834  -8.1017  -6.1564  -6.1336  -6.1334  -6.0978  -6.0534  -5.8867
    -5.8866  -5.4216  -4.1177  -4.0900  -4.0076  -4.0075  -3.8914  -3.8155
    -3.8019  -3.7458  -3.7457  -3.0485  -2.0425  -2.0255  -1.9763  -1.9763
    -1.8834  -1.8834  -1.6814  -0.9326  -0.0674   0.0155   0.0159   0.1076
     0.1688   0.3588   0.3591   0.7323   1.0251   1.0647   1.0827   1.0829
     1.3296   1.3297   1.3717   1.6261   2.0718   2.1144   2.1145   2.1505
     2.3931   2.4138   2.4138   3.5435   3.7745   3.7746   3.7952   3.8274
     3.9128   3.9476   4.2024   4.2025   4.2116   5.0775   5.2536   5.2538
     5.3885   5.3984   5.4560   5.5695   5.5699   5.5772   6.0269   6.0564
     6.0564   6.0796   6.2298   6.2302   6.4065   6.7854   6.7856   6.8854
     6.9946   6.9947   7.0352   7.0702   7.0704   7.1218   7.1396   7.1399
     7.1428   7.2019   7.2239   7.2484   7.2484   7.3375   7.5651   7.7119
     7.7941   7.7944   7.9329   8.0321   8.0323   8.0361   8.6921   8.6923
     9.1044   9.4985   9.5039   9.5040   9.5915   9.6124   9.6429   9.6459
     9.6918   9.6919   9.7140   9.7142   9.8011  10.0500  10.6010  10.6011
    10.8181  10.8494  10.8494  10.8530  12.2218  14.6565  15.0056  15.0056
    16.9934  16.9937  17.8341  18.3072  19.1336  19.1435  19.1436  19.2486
    19.3376  19.3743  19.3778  19.3780  19.4669  19.6013  19.6812  19.6818
    19.7189  19.8529  19.9539  19.9688  19.9697  20.1325  20.4983  20.4984

     occupation numbers 
     1.0000   1.0000   1.0000   1.0000   1.0000   1.0000   1.0000   1.0000
     1.0000   1.0000   1.0000   1.0000   1.0000   1.0000   1.0000   1.0000
     1.0000   1.0000   1.0000   1.0000   1.0000   1.0000   1.0000   1.0000
     1.0000   1.0000   1.0000   1.0000   1.0000   1.0000   1.0000   1.0000
     1.0000   1.0000   1.0000   1.0000   1.0000   1.0000   1.0000   1.0000
     1.0000   1.0000   1.0000   1.0000   1.0000   1.0000   1.0000   1.0000
     1.0000   1.0000   1.0000   1.0000   1.0000   1.0000   1.0000   1.0000
     1.0000   1.0000   1.0000   1.0000   1.0000   1.0000   1.0000   1.0000
     1.0000   1.0000   1.0000   1.0000   1.0000   1.0000   1.0000   1.0000
     1.0000   1.0000   1.0000   1.0000   1.0000   1.0000   1.0000   1.0000
     1.0000   1.0000   1.0000   1.0000   1.0000   1.0000   1.0000   1.0000
     1.0000   1.0000   1.0000   1.0000   1.0000   1.0000   1.0000   1.0000
     1.0000   1.0000   1.0000   1.0000   1.0000   1.0000   1.0000   1.0000
     1.0000   1.0000   1.0000   1.0000   1.0000   1.0000   1.0000   1.0000
     1.0000   1.0000   1.0000   1.0000   1.0000   1.0000   1.0000   1.0000
     1.0000   1.0000   1.0000   1.0000   1.0000   1.0000   0.7933   0.7931
     0.0000   0.0000   0.0000   0.0000   0.0000   0.0000   0.0000   0.0000
     0.0000   0.0000   0.0000   0.0000   0.0000   0.0000   0.0000   0.0000
     0.0000   0.0000   0.0000   0.0000   0.0000   0.0000   0.0000   0.0000

          k = 0.0000-0.5000-0.5000 ( 24324 PWs)   bands (ev):

    -7.8853  -7.7391  -7.7391  -7.2917  -5.6678  -5.6528  -5.5217  -5.5214
    -5.5078  -5.5076  -5.1497  -4.7006  -3.4523  -3.4478  -3.4473  -3.4343
    -3.2422  -3.1354  -3.1352  -2.9418  -2.2638  -2.2631  -2.2576  -2.1812
    -2.0874  -1.9581  -1.9579  -1.0793  -0.4586  -0.4586  -0.4122  -0.1139
     0.2303   0.2823   0.2824   0.3167   0.4386   0.6054   0.6100   0.6104
     0.8508   0.8510   1.2050   2.2840   3.3330   3.3331   3.3460   3.4145
     3.4402   3.4569   3.4713   3.4715   3.4721   3.4783   3.4786   3.5086
     3.5364   3.5364   3.5409   3.6113   4.0158   4.2339   4.2340   5.3256
     5.5370   5.6059   5.6061   5.7553   5.8368   5.8370   5.9612   6.0799
     6.2126   6.2266   6.3012   6.3015   6.3108   6.3109   6.3654   6.7184
     6.7188   6.7214   6.7235   6.7641   7.0074   7.0076   7.1651   7.1658
     7.3224   7.6214   7.6216   7.7785   7.8439   7.9006   7.9006   8.1307
     8.2172   8.2827   8.2828   8.3648   8.7062   8.7062   8.7440   9.0073
     9.0101   9.0286   9.0492   9.0810   9.0816   9.1876   9.3101   9.3147
     9.3152   9.3163   9.3853   9.3857   9.3919   9.4143   9.4144   9.4559
    11.1862  11.1863  11.7746  11.8333  12.0807  14.5491  15.0614  15.0614
    18.4047  18.4049  18.5467  18.6851  18.9262  18.9264  18.9769  19.0986
    19.1178  19.1521  19.1522  19.3388  19.4451  19.4493  19.5504  19.6198
    19.6200  19.6588  19.6715  19.6720  19.9540  19.9541  20.2066  20.2741

     occupation numbers 
     1.0000   1.0000   1.0000   1.0000   1.0000   1.0000   1.0000   1.0000
     1.0000   1.0000   1.0000   1.0000   1.0000   1.0000   1.0000   1.0000
     1.0000   1.0000   1.0000   1.0000   1.0000   1.0000   1.0000   1.0000
     1.0000   1.0000   1.0000   1.0000   1.0000   1.0000   1.0000   1.0000
     1.0000   1.0000   1.0000   1.0000   1.0000   1.0000   1.0000   1.0000
     1.0000   1.0000   1.0000   1.0000   1.0000   1.0000   1.0000   1.0000
     1.0000   1.0000   1.0000   1.0000   1.0000   1.0000   1.0000   1.0000
     1.0000   1.0000   1.0000   1.0000   1.0000   1.0000   1.0000   1.0000
     1.0000   1.0000   1.0000   1.0000   1.0000   1.0000   1.0000   1.0000
     1.0000   1.0000   1.0000   1.0000   1.0000   1.0000   1.0000   1.0000
     1.0000   1.0000   1.0000   1.0000   1.0000   1.0000   1.0000   1.0000
     1.0000   1.0000   1.0000   1.0000   1.0000   1.0000   1.0000   1.0000
     1.0000   1.0000   1.0000   1.0000   1.0000   1.0000   1.0000   1.0000
     1.0000   1.0000   1.0000   1.0000   1.0000   1.0000   1.0000   1.0000
     1.0000   1.0000   1.0000   1.0000   1.0000   1.0000   1.0000   1.0000
     1.0000   1.0000   1.0000   1.0000   1.0000   1.0000   0.5938   0.5937
     0.0000   0.0000   0.0000   0.0000   0.0000   0.0000   0.0000   0.0000
     0.0000   0.0000   0.0000   0.0000   0.0000   0.0000   0.0000   0.0000
     0.0000   0.0000   0.0000   0.0000   0.0000   0.0000   0.0000   0.0000

          k =-0.5000-0.5000-0.5000 ( 24464 PWs)   bands (ev):

    -7.3783  -7.2617  -7.2616  -7.2616  -7.0823  -7.0823  -7.0822  -6.1429
    -3.1066  -3.1060  -3.1060  -3.0809  -3.0414  -3.0414  -2.9983  -2.9979
    -2.9979  -2.9719  -2.9719  -2.9716  -2.8403  -2.8403  -2.8402  -2.8310
    -2.8310  -2.8305  -2.7517  -2.7517  -2.3735  -2.3735  -2.3726   0.0134
     1.6308   1.6967   1.6967   1.7035   1.7035   1.7035   1.7434   1.7434
     1.7435   1.7620   1.7627   1.7627   1.8361   1.8366   1.8366   1.8859
     1.8859   1.9112   1.9112   1.9118   2.6885   2.6885   2.6887   4.5475
     5.7041   5.7226   5.7226   5.7228   5.7598   5.7598   5.7776   5.7776
     5.7780   5.8073   5.8073   5.8076   5.8733   5.8736   5.8736   5.9045
     5.9045   5.9046   5.9252   5.9370   6.0127   6.0130   6.0130   6.1712
     6.1712   6.1713   6.2295   6.2295   6.6856   6.6856   6.6857   7.5941
     7.5970   7.5970   7.6102   7.6102   7.6107   7.6837   7.6839   7.6839
     7.6911   7.6911   7.6914   7.7116   7.7116   7.7117   7.8394   7.8394
     7.8930   8.0167   8.0169   8.0169   9.6393   9.6393   9.6396  10.7351
    10.7351  10.8049  10.8050  10.8050  10.8211  10.8212  10.8212  10.8435
    10.8440  10.8440  10.8838  10.8838  11.4170  15.0994  15.0994  15.0994
    18.6639  18.6639  18.6666  18.6666  18.6668  18.6944  18.6957  18.6957
    18.7518  18.7518  18.7520  18.8006  18.8010  18.8010  18.8740  18.9956
    18.9956  18.9957  19.3413  19.3413  19.3418  19.4688  19.4688  19.6795

     occupation numbers 
     1.0000   1.0000   1.0000   1.0000   1.0000   1.0000   1.0000   1.0000
     1.0000   1.0000   1.0000   1.0000   1.0000   1.0000   1.0000   1.0000
     1.0000   1.0000   1.0000   1.0000   1.0000   1.0000   1.0000   1.0000
     1.0000   1.0000   1.0000   1.0000   1.0000   1.0000   1.0000   1.0000
     1.0000   1.0000   1.0000   1.0000   1.0000   1.0000   1.0000   1.0000
     1.0000   1.0000   1.0000   1.0000   1.0000   1.0000   1.0000   1.0000
     1.0000   1.0000   1.0000   1.0000   1.0000   1.0000   1.0000   1.0000
     1.0000   1.0000   1.0000   1.0000   1.0000   1.0000   1.0000   1.0000
     1.0000   1.0000   1.0000   1.0000   1.0000   1.0000   1.0000   1.0000
     1.0000   1.0000   1.0000   1.0000   1.0000   1.0000   1.0000   1.0000
     1.0000   1.0000   1.0000   1.0000   1.0000   1.0000   1.0000   1.0000
     1.0000   1.0000   1.0000   1.0000   1.0000   1.0000   1.0000   1.0000
     1.0000   1.0000   1.0000   1.0000   1.0000   1.0000   1.0000   1.0000
     1.0000   1.0000   1.0000   1.0000   1.0000   1.0000   1.0000   1.0000
     1.0000   1.0000   1.0000   1.0000   1.0000   1.0000   1.0000   1.0000
     1.0000   1.0000   1.0000   1.0000   1.0000   0.4375   0.4375   0.4375
     0.0000   0.0000   0.0000   0.0000   0.0000   0.0000   0.0000   0.0000
     0.0000   0.0000   0.0000   0.0000   0.0000   0.0000   0.0000   0.0000
     0.0000   0.0000   0.0000   0.0000   0.0000   0.0000   0.0000   0.0000

     the Fermi energy is    15.0843 ev

!    total energy              =   -1193.90719413 Ry
     total all-electron energy =     -4833.045312 Ry
     estimated scf accuracy    <          2.3E-09 Ry
     smearing contrib. (-TS)   =      -0.01030547 Ry
     internal energy E=F+TS    =   -1193.89688866 Ry

     The total energy is F=E-TS. E is the sum of the following terms:
     one-electron contribution =     250.83139067 Ry
     hartree contribution      =      68.95749182 Ry
     xc contribution           =    -308.94230496 Ry
     ewald contribution        =    -792.59930235 Ry
     one-center paw contrib.   =    -412.14416383 Ry
      -> PAW hartree energy AE =       9.06889720 Ry
      -> PAW hartree energy PS =      -9.06051398 Ry
      -> PAW xc energy AE      =     -11.13369007 Ry
      -> PAW xc energy PS      =       4.58368045 Ry
      -> total E_H with PAW    =      68.96587503 Ry
      -> total E_XC with PAW   =    -315.49231458 Ry

     convergence has been achieved in   3 iterations


     -----------------------------------------------
     Non-local corr. energy    =       2.16645214 Ry
     -----------------------------------------------


     Forces acting on atoms (cartesian axes, Ry/au):

     atom    1 type  1   force =     0.00000347   -0.00000347    0.00000459
     atom    2 type  1   force =     0.00000347   -0.00000459    0.00000347
     atom    3 type  1   force =    -0.00001538    0.00000159   -0.00000159
     atom    4 type  1   force =     0.00000459   -0.00000347    0.00000347
     atom    5 type  1   force =    -0.00000159    0.00001538   -0.00000159
     atom    6 type  1   force =    -0.00000159    0.00000159   -0.00001538
     atom    7 type  1   force =     0.00000937   -0.00000937    0.00000937
     atom    8 type  1   force =    -0.00017381   -0.00019523    0.00017446
     atom    9 type  1   force =    -0.00004264   -0.00002887   -0.00001072
     atom   10 type  1   force =    -0.00012024    0.00012024    0.00007572
     atom   11 type  1   force =    -0.00018178    0.00018178   -0.00020571
     atom   12 type  1   force =     0.00005854   -0.00005854    0.00005048
     atom   13 type  1   force =     0.00019953   -0.00019953   -0.00019662
     atom   14 type  1   force =     0.00019523    0.00017381    0.00017446
     atom   15 type  1   force =     0.00002887    0.00004264   -0.00001072
     atom   16 type  1   force =     0.00002380   -0.00002041    0.00002041
     atom   17 type  1   force =     0.00001731    0.00003990    0.00000464
     atom   18 type  1   force =     0.00001731   -0.00000464   -0.00003990
     atom   19 type  1   force =    -0.00002786    0.00001140   -0.00001140
     atom   20 type  1   force =    -0.00017585   -0.00039971    0.00039971
     atom   21 type  1   force =     0.00018042   -0.00040297   -0.00040289
     atom   22 type  1   force =     0.00018042    0.00040289    0.00040297
     atom   23 type  1   force =    -0.00018046    0.00039496   -0.00039496
     atom   24 type  1   force =    -0.00012024   -0.00007572   -0.00012024
     atom   25 type  1   force =    -0.00017381   -0.00017446    0.00019523
     atom   26 type  1   force =    -0.00018178    0.00020571   -0.00018178
     atom   27 type  1   force =    -0.00004264    0.00001072    0.00002887
     atom   28 type  1   force =     0.00019523   -0.00017446   -0.00017381
     atom   29 type  1   force =     0.00005854   -0.00005048    0.00005854
     atom   30 type  1   force =     0.00002887    0.00001072   -0.00004264
     atom   31 type  1   force =     0.00019953    0.00019662    0.00019953
     atom   32 type  1   force =     0.00002041   -0.00002380    0.00002041
     atom   33 type  1   force =    -0.00003990   -0.00001731    0.00000464
     atom   34 type  1   force =     0.00039971    0.00017585    0.00039971
     atom   35 type  1   force =     0.00040297   -0.00018042   -0.00040289
     atom   36 type  1   force =     0.00000464   -0.00001731   -0.00003990
     atom   37 type  1   force =    -0.00001140    0.00002786   -0.00001140
     atom   38 type  1   force =    -0.00040289   -0.00018042    0.00040297
     atom   39 type  1   force =    -0.00039496    0.00018046   -0.00039496
     atom   40 type  1   force =     0.00017446   -0.00019523   -0.00017381
     atom   41 type  1   force =     0.00005048   -0.00005854    0.00005854
     atom   42 type  1   force =     0.00007572    0.00012024   -0.00012024
     atom   43 type  1   force =     0.00017446    0.00017381    0.00019523
     atom   44 type  1   force =    -0.00001072   -0.00002887   -0.00004264
     atom   45 type  1   force =    -0.00019662   -0.00019953    0.00019953
     atom   46 type  1   force =    -0.00020571    0.00018178   -0.00018178
     atom   47 type  1   force =    -0.00001072    0.00004264    0.00002887
     atom   48 type  1   force =     0.00002041   -0.00002041    0.00002380
     atom   49 type  1   force =     0.00039971   -0.00039971   -0.00017585
     atom   50 type  1   force =    -0.00003990   -0.00000464    0.00001731
     atom   51 type  1   force =     0.00040297    0.00040289    0.00018042
     atom   52 type  1   force =     0.00000464    0.00003990    0.00001731
     atom   53 type  1   force =    -0.00040289   -0.00040297    0.00018042
     atom   54 type  1   force =    -0.00001140    0.00001140   -0.00002786
     atom   55 type  1   force =    -0.00039496    0.00039496   -0.00018046
     atom   56 type  1   force =     0.00012043   -0.00012043    0.00012043
     atom   57 type  1   force =     0.00018887   -0.00018887   -0.00020451
     atom   58 type  1   force =     0.00018887    0.00020451    0.00018887
     atom   59 type  1   force =     0.00002757    0.00004930   -0.00004930
     atom   60 type  1   force =    -0.00020451   -0.00018887    0.00018887
     atom   61 type  1   force =    -0.00004930   -0.00002757   -0.00004930
     atom   62 type  1   force =    -0.00004930    0.00004930    0.00002757
     atom   63 type  1   force =    -0.00019592    0.00019592   -0.00019592
     The non-local contrib.  to forces
     atom    1 type  1   force =     0.00011136   -0.00011136    0.00010185
     atom    2 type  1   force =     0.00011136   -0.00010185    0.00011136
     atom    3 type  1   force =     0.00011125   -0.00012088    0.00012088
     atom    4 type  1   force =     0.00010185   -0.00011136    0.00011136
     atom    5 type  1   force =     0.00012088   -0.00011125    0.00012088
     atom    6 type  1   force =     0.00012088   -0.00012088    0.00011125
     atom    7 type  1   force =     0.00010790   -0.00010790    0.00010790
     atom    8 type  1   force =    -0.00579964   -0.06319604    0.00583641
     atom    9 type  1   force =    -0.07918041   -0.03330968   -0.03325850
     atom   10 type  1   force =    -0.31556936    0.31556936    0.31576041
     atom   11 type  1   force =    -0.00581595    0.00581595   -0.06327515
     atom   12 type  1   force =     0.03335516   -0.03335516    0.07930519
     atom   13 type  1   force =     0.01488823   -0.01488823   -0.01489641
     atom   14 type  1   force =     0.06319604    0.00579964    0.00583641
     atom   15 type  1   force =     0.03330968    0.07918041   -0.03325850
     atom   16 type  1   force =    -0.08237520   -0.08725328    0.08725328
     atom   17 type  1   force =     0.08258464   -0.08743755   -0.08748063
     atom   18 type  1   force =     0.08258464    0.08748063    0.08743755
     atom   19 type  1   force =    -0.08261735    0.08745832   -0.08745832
     atom   20 type  1   force =     0.00969530   -0.02048769    0.02048769
     atom   21 type  1   force =    -0.00952496   -0.02055122   -0.02059660
     atom   22 type  1   force =    -0.00952496    0.02059660    0.02055122
     atom   23 type  1   force =     0.00967438    0.02063362   -0.02063362
     atom   24 type  1   force =    -0.31556936   -0.31576041   -0.31556936
     atom   25 type  1   force =    -0.00579964   -0.00583641    0.06319604
     atom   26 type  1   force =    -0.00581595    0.06327515   -0.00581595
     atom   27 type  1   force =    -0.07918041    0.03325850    0.03330968
     atom   28 type  1   force =     0.06319604   -0.00583641   -0.00579964
     atom   29 type  1   force =     0.03335516   -0.07930519    0.03335516
     atom   30 type  1   force =     0.03330968    0.03325850   -0.07918041
     atom   31 type  1   force =     0.01488823    0.01489641    0.01488823
     atom   32 type  1   force =     0.08725328    0.08237520    0.08725328
     atom   33 type  1   force =     0.08743755   -0.08258464   -0.08748063
     atom   34 type  1   force =     0.02048769   -0.00969530    0.02048769
     atom   35 type  1   force =     0.02055122    0.00952496   -0.02059660
     atom   36 type  1   force =    -0.08748063   -0.08258464    0.08743755
     atom   37 type  1   force =    -0.08745832    0.08261735   -0.08745832
     atom   38 type  1   force =    -0.02059660    0.00952496    0.02055122
     atom   39 type  1   force =    -0.02063362   -0.00967438   -0.02063362
     atom   40 type  1   force =     0.00583641   -0.06319604   -0.00579964
     atom   41 type  1   force =     0.07930519   -0.03335516    0.03335516
     atom   42 type  1   force =     0.31576041    0.31556936   -0.31556936
     atom   43 type  1   force =     0.00583641    0.00579964    0.06319604
     atom   44 type  1   force =    -0.03325850   -0.03330968   -0.07918041
     atom   45 type  1   force =    -0.01489641   -0.01488823    0.01488823
     atom   46 type  1   force =    -0.06327515    0.00581595   -0.00581595
     atom   47 type  1   force =    -0.03325850    0.07918041    0.03330968
     atom   48 type  1   force =     0.08725328   -0.08725328   -0.08237520
     atom   49 type  1   force =     0.02048769   -0.02048769    0.00969530
     atom   50 type  1   force =     0.08743755    0.08748063    0.08258464
     atom   51 type  1   force =     0.02055122    0.02059660   -0.00952496
     atom   52 type  1   force =    -0.08748063   -0.08743755    0.08258464
     atom   53 type  1   force =    -0.02059660   -0.02055122   -0.00952496
     atom   54 type  1   force =    -0.08745832    0.08745832   -0.08261735
     atom   55 type  1   force =    -0.02063362    0.02063362    0.00967438
     atom   56 type  1   force =     0.31592315   -0.31592315    0.31592315
     atom   57 type  1   force =     0.00603653   -0.00603653   -0.06339409
     atom   58 type  1   force =     0.00603653    0.06339409    0.00603653
     atom   59 type  1   force =     0.07932553    0.03312642   -0.03312642
     atom   60 type  1   force =    -0.06339409   -0.00603653    0.00603653
     atom   61 type  1   force =    -0.03312642   -0.07932553   -0.03312642
     atom   62 type  1   force =    -0.03312642    0.03312642    0.07932553
     atom   63 type  1   force =    -0.01495898    0.01495898   -0.01495898
     The ionic contribution  to forces
     atom    1 type  1   force =    -0.00015098    0.00015075   -0.00111564
     atom    2 type  1   force =    -0.00015098    0.00111590   -0.00015098
     atom    3 type  1   force =    -0.00113829    0.00080287   -0.00080259
     atom    4 type  1   force =    -0.00111564    0.00015075   -0.00015098
     atom    5 type  1   force =    -0.00080259    0.00113806   -0.00080259
     atom    6 type  1   force =    -0.00080259    0.00080287   -0.00113829
     atom    7 type  1   force =     0.00022105   -0.00022077    0.00022105
     atom    8 type  1   force =     0.20236251    0.62465406   -0.20284983
     atom    9 type  1   force =     0.09474700    0.16821038    0.16729544
     atom   10 type  1   force =     2.26521110   -2.26521120   -2.26596703
     atom   11 type  1   force =     0.20226625   -0.20226636    0.62540682
     atom   12 type  1   force =    -0.16731691    0.16731680   -0.09423906
     atom   13 type  1   force =    -0.07753845    0.07753833    0.07829579
     atom   14 type  1   force =    -0.62465418   -0.20236262   -0.20284983
     atom   15 type  1   force =    -0.16821050   -0.09474711    0.16729544
     atom   16 type  1   force =    -0.36107188    0.74909716   -0.74909739
     atom   17 type  1   force =     0.36134259    0.74744578    0.74872488
     atom   18 type  1   force =     0.36134260   -0.74872462   -0.74744604
     atom   19 type  1   force =    -0.36199629   -0.74902829    0.74902858
     atom   20 type  1   force =     0.04051170    0.16658062   -0.16658085
     atom   21 type  1   force =    -0.04007011    0.16507035    0.16630662
     atom   22 type  1   force =    -0.04007011   -0.16630634   -0.16507058
     atom   23 type  1   force =     0.03991591   -0.16604527    0.16604555
     atom   24 type  1   force =     2.26521111    2.26596678    2.26521111
     atom   25 type  1   force =     0.20236250    0.20284958   -0.62465418
     atom   26 type  1   force =     0.20226626   -0.62540647    0.20226626
     atom   27 type  1   force =     0.09474700   -0.16729508   -0.16821050
     atom   28 type  1   force =    -0.62465418    0.20284958    0.20236250
     atom   29 type  1   force =    -0.16731691    0.09423880   -0.16731691
     atom   30 type  1   force =    -0.16821050   -0.16729508    0.09474700
     atom   31 type  1   force =    -0.07753845   -0.07829542   -0.07753845
     atom   32 type  1   force =    -0.74909739    0.36107165   -0.74909739
     atom   33 type  1   force =    -0.74744601   -0.36134281    0.74872488
     atom   34 type  1   force =    -0.16658085   -0.04051142   -0.16658085
     atom   35 type  1   force =    -0.16507057    0.04007038    0.16630662
     atom   36 type  1   force =     0.74872488   -0.36134281   -0.74744601
     atom   37 type  1   force =     0.74902855    0.36199605    0.74902855
     atom   38 type  1   force =     0.16630662    0.04007038   -0.16507057
     atom   39 type  1   force =     0.16604555   -0.03991563    0.16604555
     atom   40 type  1   force =    -0.20284983    0.62465406    0.20236251
     atom   41 type  1   force =    -0.09423906    0.16731680   -0.16731691
     atom   42 type  1   force =    -2.26596703   -2.26521120    2.26521110
     atom   43 type  1   force =    -0.20284983   -0.20236262   -0.62465418
     atom   44 type  1   force =     0.16729544    0.16821038    0.09474700
     atom   45 type  1   force =     0.07829579    0.07753833   -0.07753845
     atom   46 type  1   force =     0.62540682   -0.20226636    0.20226625
     atom   47 type  1   force =     0.16729544   -0.09474711   -0.16821050
     atom   48 type  1   force =    -0.74909739    0.74909716   -0.36107188
     atom   49 type  1   force =    -0.16658085    0.16658062    0.04051170
     atom   50 type  1   force =    -0.74744604   -0.74872462    0.36134260
     atom   51 type  1   force =    -0.16507058   -0.16630634   -0.04007011
     atom   52 type  1   force =     0.74872488    0.74744578    0.36134259
     atom   53 type  1   force =     0.16630662    0.16507035   -0.04007011
     atom   54 type  1   force =     0.74902858   -0.74902829   -0.36199629
     atom   55 type  1   force =     0.16604555   -0.16604527    0.03991591
     atom   56 type  1   force =    -2.26512689    2.26512663   -2.26512689
     atom   57 type  1   force =    -0.20165043    0.20165018    0.62386591
     atom   58 type  1   force =    -0.20165044   -0.62386557   -0.20165044
     atom   59 type  1   force =    -0.09458888   -0.16798600    0.16798637
     atom   60 type  1   force =     0.62386591    0.20165018   -0.20165043
     atom   61 type  1   force =     0.16798637    0.09458863    0.16798637
     atom   62 type  1   force =     0.16798637   -0.16798600   -0.09458888
     atom   63 type  1   force =     0.07727067   -0.07727030    0.07727067
     The local contribution  to forces
     atom    1 type  1   force =    -0.00006785    0.00006779    0.00092567
     atom    2 type  1   force =    -0.00006787   -0.00092551   -0.00006793
     atom    3 type  1   force =     0.00089078   -0.00060086    0.00060108
     atom    4 type  1   force =     0.00092576    0.00006782   -0.00006794
     atom    5 type  1   force =     0.00060109   -0.00089085    0.00060107
     atom    6 type  1   force =     0.00060113   -0.00060089    0.00089070
     atom    7 type  1   force =    -0.00040019    0.00040043   -0.00040022
     atom    8 type  1   force =    -0.19678812   -0.56254310    0.19707215
     atom    9 type  1   force =    -0.01681161   -0.13543586   -0.13475837
     atom   10 type  1   force =    -1.95432442    1.95432435    1.95460212
     atom   11 type  1   force =    -0.19671258    0.19671251   -0.56292699
     atom   12 type  1   force =     0.13454039   -0.13454046    0.01608620
     atom   13 type  1   force =     0.06308124   -0.06308131   -0.06368625
     atom   14 type  1   force =     0.56254303    0.19678806    0.19707214
     atom   15 type  1   force =     0.13543578    0.01681154   -0.13475838
     atom   16 type  1   force =     0.44233715   -0.66294385    0.66294373
     atom   17 type  1   force =    -0.44278639   -0.66142902   -0.66241070
     atom   18 type  1   force =    -0.44278640    0.66241089    0.66142892
     atom   19 type  1   force =     0.44320865    0.66275210   -0.66275192
     atom   20 type  1   force =    -0.05024786   -0.14678224    0.14678213
     atom   21 type  1   force =     0.04958471   -0.14540852   -0.14628144
     atom   22 type  1   force =     0.04958471    0.14628164    0.14540839
     atom   23 type  1   force =    -0.04980458    0.14597154   -0.14597135
     atom   24 type  1   force =    -1.95432448   -1.95460226   -1.95432451
     atom   25 type  1   force =    -0.19678810   -0.19707227    0.56254298
     atom   26 type  1   force =    -0.19671258    0.56292721   -0.19671262
     atom   27 type  1   force =    -0.01681161    0.13475855    0.13543571
     atom   28 type  1   force =     0.56254303   -0.19707227   -0.19678814
     atom   29 type  1   force =     0.13454039   -0.01608628    0.13454036
     atom   30 type  1   force =     0.13543579    0.13475856   -0.01681167
     atom   31 type  1   force =     0.06308124    0.06368642    0.06308119
     atom   32 type  1   force =     0.66294378   -0.44233721    0.66294374
     atom   33 type  1   force =     0.66142894    0.44278633   -0.66241071
     atom   34 type  1   force =     0.14678218    0.05024810    0.14678213
     atom   35 type  1   force =     0.14540846   -0.04958448   -0.14628143
     atom   36 type  1   force =    -0.66241064    0.44278631    0.66142889
     atom   37 type  1   force =    -0.66275185   -0.44320869   -0.66275189
     atom   38 type  1   force =    -0.14628140   -0.04958448    0.14540840
     atom   39 type  1   force =    -0.14597130    0.04980482   -0.14597135
     atom   40 type  1   force =     0.19707220   -0.56254310   -0.19678814
     atom   41 type  1   force =     0.01608622   -0.13454046    0.13454036
     atom   42 type  1   force =     1.95460218    1.95432441   -1.95432451
     atom   43 type  1   force =     0.19707219    0.19678803    0.56254298
     atom   44 type  1   force =    -0.13475832   -0.13543587   -0.01681166
     atom   45 type  1   force =    -0.06368618   -0.06308131    0.06308119
     atom   46 type  1   force =    -0.56292696    0.19671250   -0.19671261
     atom   47 type  1   force =    -0.13475831    0.01681153    0.13543571
     atom   48 type  1   force =     0.66294377   -0.66294384    0.44233708
     atom   49 type  1   force =     0.14678218   -0.14678223   -0.05024790
     atom   50 type  1   force =     0.66142898    0.66241091   -0.44278642
     atom   51 type  1   force =     0.14540845    0.14628162    0.04958467
     atom   52 type  1   force =    -0.66241064   -0.66142902   -0.44278639
     atom   53 type  1   force =    -0.14628140   -0.14540852    0.04958467
     atom   54 type  1   force =    -0.66275186    0.66275209    0.44320858
     atom   55 type  1   force =    -0.14597131    0.14597154   -0.04980462
     atom   56 type  1   force =     1.95372761   -1.95372767    1.95372758
     atom   57 type  1   force =     0.19601387   -0.19601393   -0.56173670
     atom   58 type  1   force =     0.19601388    0.56173688    0.19601383
     atom   59 type  1   force =     0.01658638    0.13526677   -0.13526657
     atom   60 type  1   force =    -0.56173662   -0.19601394    0.19601383
     atom   61 type  1   force =    -0.13526654   -0.01658645   -0.13526657
     atom   62 type  1   force =    -0.13526653    0.13526677    0.01658634
     atom   63 type  1   force =    -0.06278013    0.06278036   -0.06278018
     The core correction contribution to forces
     atom    1 type  1   force =     0.00010727   -0.00010727    0.00011629
     atom    2 type  1   force =     0.00010727   -0.00011630    0.00010727
     atom    3 type  1   force =     0.00011523   -0.00010613    0.00010612
     atom    4 type  1   force =     0.00011628   -0.00010727    0.00010727
     atom    5 type  1   force =     0.00010612   -0.00011523    0.00010612
     atom    6 type  1   force =     0.00010611   -0.00010613    0.00011524
     atom    7 type  1   force =     0.00010943   -0.00010945    0.00010944
     atom    8 type  1   force =     0.00006345    0.00086860    0.00011401
     atom    9 type  1   force =     0.00119743    0.00047937    0.00073520
     atom   10 type  1   force =     0.00456412   -0.00456412   -0.00432020
     atom   11 type  1   force =     0.00007624   -0.00007624    0.00061260
     atom   12 type  1   force =    -0.00050950    0.00050950   -0.00109374
     atom   13 type  1   force =    -0.00020440    0.00020440    0.00010504
     atom   14 type  1   force =    -0.00086860   -0.00006345    0.00011401
     atom   15 type  1   force =    -0.00047937   -0.00119743    0.00073520
     atom   16 type  1   force =     0.00115384    0.00107694   -0.00107693
     atom   17 type  1   force =    -0.00113118    0.00144833    0.00118446
     atom   18 type  1   force =    -0.00113118   -0.00118447   -0.00144832
     atom   19 type  1   force =     0.00136644   -0.00117928    0.00117927
     atom   20 type  1   force =    -0.00012617    0.00027850   -0.00027849
     atom   21 type  1   force =     0.00022321    0.00047292    0.00017931
     atom   22 type  1   force =     0.00022321   -0.00017932   -0.00047292
     atom   23 type  1   force =     0.00006688   -0.00017397    0.00017396
     atom   24 type  1   force =     0.00456412    0.00432021    0.00456413
     atom   25 type  1   force =     0.00006345   -0.00011400   -0.00086859
     atom   26 type  1   force =     0.00007624   -0.00061261    0.00007625
     atom   27 type  1   force =     0.00119743   -0.00073520   -0.00047936
     atom   28 type  1   force =    -0.00086860   -0.00011400    0.00006346
     atom   29 type  1   force =    -0.00050950    0.00109375   -0.00050949
     atom   30 type  1   force =    -0.00047937   -0.00073520    0.00119744
     atom   31 type  1   force =    -0.00020440   -0.00010504   -0.00020440
     atom   32 type  1   force =    -0.00107694   -0.00115384   -0.00107693
     atom   33 type  1   force =    -0.00144833    0.00113118    0.00118446
     atom   34 type  1   force =    -0.00027850    0.00012616   -0.00027849
     atom   35 type  1   force =    -0.00047292   -0.00022323    0.00017931
     atom   36 type  1   force =     0.00118445    0.00113118   -0.00144832
     atom   37 type  1   force =     0.00117926   -0.00136644    0.00117927
     atom   38 type  1   force =     0.00017930   -0.00022323   -0.00047292
     atom   39 type  1   force =     0.00017395   -0.00006690    0.00017396
     atom   40 type  1   force =     0.00011400    0.00086860    0.00006346
     atom   41 type  1   force =    -0.00109375    0.00050950   -0.00050949
     atom   42 type  1   force =    -0.00432021   -0.00456412    0.00456413
     atom   43 type  1   force =     0.00011400   -0.00006345   -0.00086859
     atom   44 type  1   force =     0.00073519    0.00047937    0.00119744
     atom   45 type  1   force =     0.00010503    0.00020440   -0.00020440
     atom   46 type  1   force =     0.00061260   -0.00007624    0.00007625
     atom   47 type  1   force =     0.00073519   -0.00119743   -0.00047936
     atom   48 type  1   force =    -0.00107694    0.00107694    0.00115384
     atom   49 type  1   force =    -0.00027850    0.00027850   -0.00012617
     atom   50 type  1   force =    -0.00144833   -0.00118447   -0.00113117
     atom   51 type  1   force =    -0.00047293   -0.00017932    0.00022322
     atom   52 type  1   force =     0.00118445    0.00144833   -0.00113117
     atom   53 type  1   force =     0.00017930    0.00047292    0.00022322
     atom   54 type  1   force =     0.00117927   -0.00117928    0.00136645
     atom   55 type  1   force =     0.00017395   -0.00017397    0.00006689
     atom   56 type  1   force =    -0.00439770    0.00439770   -0.00439770
     atom   57 type  1   force =    -0.00021272    0.00021272    0.00107398
     atom   58 type  1   force =    -0.00021272   -0.00107399   -0.00021271
     atom   59 type  1   force =    -0.00129667   -0.00038222    0.00038221
     atom   60 type  1   force =     0.00107397    0.00021272   -0.00021271
     atom   61 type  1   force =     0.00038221    0.00129667    0.00038221
     atom   62 type  1   force =     0.00038221   -0.00038222   -0.00129667
     atom   63 type  1   force =     0.00029658   -0.00029660    0.00029659
     The Hubbard contrib.    to forces
     atom    1 type  1   force =     0.00000000    0.00000000    0.00000000
     atom    2 type  1   force =     0.00000000    0.00000000    0.00000000
     atom    3 type  1   force =     0.00000000    0.00000000    0.00000000
     atom    4 type  1   force =     0.00000000    0.00000000    0.00000000
     atom    5 type  1   force =     0.00000000    0.00000000    0.00000000
     atom    6 type  1   force =     0.00000000    0.00000000    0.00000000
     atom    7 type  1   force =     0.00000000    0.00000000    0.00000000
     atom    8 type  1   force =     0.00000000    0.00000000    0.00000000
     atom    9 type  1   force =     0.00000000    0.00000000    0.00000000
     atom   10 type  1   force =     0.00000000    0.00000000    0.00000000
     atom   11 type  1   force =     0.00000000    0.00000000    0.00000000
     atom   12 type  1   force =     0.00000000    0.00000000    0.00000000
     atom   13 type  1   force =     0.00000000    0.00000000    0.00000000
     atom   14 type  1   force =     0.00000000    0.00000000    0.00000000
     atom   15 type  1   force =     0.00000000    0.00000000    0.00000000
     atom   16 type  1   force =     0.00000000    0.00000000    0.00000000
     atom   17 type  1   force =     0.00000000    0.00000000    0.00000000
     atom   18 type  1   force =     0.00000000    0.00000000    0.00000000
     atom   19 type  1   force =     0.00000000    0.00000000    0.00000000
     atom   20 type  1   force =     0.00000000    0.00000000    0.00000000
     atom   21 type  1   force =     0.00000000    0.00000000    0.00000000
     atom   22 type  1   force =     0.00000000    0.00000000    0.00000000
     atom   23 type  1   force =     0.00000000    0.00000000    0.00000000
     atom   24 type  1   force =     0.00000000    0.00000000    0.00000000
     atom   25 type  1   force =     0.00000000    0.00000000    0.00000000
     atom   26 type  1   force =     0.00000000    0.00000000    0.00000000
     atom   27 type  1   force =     0.00000000    0.00000000    0.00000000
     atom   28 type  1   force =     0.00000000    0.00000000    0.00000000
     atom   29 type  1   force =     0.00000000    0.00000000    0.00000000
     atom   30 type  1   force =     0.00000000    0.00000000    0.00000000
     atom   31 type  1   force =     0.00000000    0.00000000    0.00000000
     atom   32 type  1   force =     0.00000000    0.00000000    0.00000000
     atom   33 type  1   force =     0.00000000    0.00000000    0.00000000
     atom   34 type  1   force =     0.00000000    0.00000000    0.00000000
     atom   35 type  1   force =     0.00000000    0.00000000    0.00000000
     atom   36 type  1   force =     0.00000000    0.00000000    0.00000000
     atom   37 type  1   force =     0.00000000    0.00000000    0.00000000
     atom   38 type  1   force =     0.00000000    0.00000000    0.00000000
     atom   39 type  1   force =     0.00000000    0.00000000    0.00000000
     atom   40 type  1   force =     0.00000000    0.00000000    0.00000000
     atom   41 type  1   force =     0.00000000    0.00000000    0.00000000
     atom   42 type  1   force =     0.00000000    0.00000000    0.00000000
     atom   43 type  1   force =     0.00000000    0.00000000    0.00000000
     atom   44 type  1   force =     0.00000000    0.00000000    0.00000000
     atom   45 type  1   force =     0.00000000    0.00000000    0.00000000
     atom   46 type  1   force =     0.00000000    0.00000000    0.00000000
     atom   47 type  1   force =     0.00000000    0.00000000    0.00000000
     atom   48 type  1   force =     0.00000000    0.00000000    0.00000000
     atom   49 type  1   force =     0.00000000    0.00000000    0.00000000
     atom   50 type  1   force =     0.00000000    0.00000000    0.00000000
     atom   51 type  1   force =     0.00000000    0.00000000    0.00000000
     atom   52 type  1   force =     0.00000000    0.00000000    0.00000000
     atom   53 type  1   force =     0.00000000    0.00000000    0.00000000
     atom   54 type  1   force =     0.00000000    0.00000000    0.00000000
     atom   55 type  1   force =     0.00000000    0.00000000    0.00000000
     atom   56 type  1   force =     0.00000000    0.00000000    0.00000000
     atom   57 type  1   force =     0.00000000    0.00000000    0.00000000
     atom   58 type  1   force =     0.00000000    0.00000000    0.00000000
     atom   59 type  1   force =     0.00000000    0.00000000    0.00000000
     atom   60 type  1   force =     0.00000000    0.00000000    0.00000000
     atom   61 type  1   force =     0.00000000    0.00000000    0.00000000
     atom   62 type  1   force =     0.00000000    0.00000000    0.00000000
     atom   63 type  1   force =     0.00000000    0.00000000    0.00000000
     The SCF correction term to forces
     atom    1 type  1   force =     0.00001498   -0.00001498   -0.00001211
     atom    2 type  1   force =     0.00001498    0.00001211    0.00001498
     atom    3 type  1   force =     0.00001693    0.00001557   -0.00001557
     atom    4 type  1   force =    -0.00001211   -0.00001498    0.00001498
     atom    5 type  1   force =    -0.00001557   -0.00001693   -0.00001557
     atom    6 type  1   force =    -0.00001557    0.00001557    0.00001693
     atom    7 type  1   force =    -0.00001728    0.00001728   -0.00001728
     atom    8 type  1   force =    -0.00000071    0.00000975    0.00001295
     atom    9 type  1   force =     0.00001626    0.00001541   -0.00001296
     atom   10 type  1   force =     0.00000967   -0.00000967    0.00001163
     atom   11 type  1   force =     0.00001556   -0.00001556   -0.00001146
     atom   12 type  1   force =     0.00000071   -0.00000071    0.00000313
     atom   13 type  1   force =    -0.00001579    0.00001579   -0.00000328
     atom   14 type  1   force =    -0.00000975    0.00000071    0.00001295
     atom   15 type  1   force =    -0.00001541   -0.00001626   -0.00001296
     atom   16 type  1   force =    -0.00000882   -0.00000896    0.00000896
     atom   17 type  1   force =     0.00001891    0.00000078   -0.00000187
     atom   18 type  1   force =     0.00001891    0.00000187   -0.00000078
     atom   19 type  1   force =     0.00002198   -0.00000249    0.00000249
     atom   20 type  1   force =     0.00000272   -0.00000047    0.00000047
     atom   21 type  1   force =    -0.00002090    0.00000193    0.00000072
     atom   22 type  1   force =    -0.00002090   -0.00000072   -0.00000193
     atom   23 type  1   force =    -0.00002151   -0.00000200    0.00000200
     atom   24 type  1   force =     0.00000967   -0.00001163    0.00000967
     atom   25 type  1   force =    -0.00000071   -0.00001295   -0.00000975
     atom   26 type  1   force =     0.00001556    0.00001146    0.00001556
     atom   27 type  1   force =     0.00001626    0.00001296   -0.00001541
     atom   28 type  1   force =    -0.00000975   -0.00001295   -0.00000071
     atom   29 type  1   force =     0.00000071   -0.00000313    0.00000071
     atom   30 type  1   force =    -0.00001541    0.00001296    0.00001626
     atom   31 type  1   force =    -0.00001579    0.00000328   -0.00001579
     atom   32 type  1   force =     0.00000896    0.00000882    0.00000896
     atom   33 type  1   force =    -0.00000078   -0.00001891   -0.00000187
     atom   34 type  1   force =     0.00000047   -0.00000272    0.00000047
     atom   35 type  1   force =    -0.00000193    0.00002090    0.00000072
     atom   36 type  1   force =    -0.00000187   -0.00001891   -0.00000078
     atom   37 type  1   force =     0.00000249   -0.00002198    0.00000249
     atom   38 type  1   force =     0.00000072    0.00002090   -0.00000193
     atom   39 type  1   force =     0.00000200    0.00002151    0.00000200
     atom   40 type  1   force =     0.00001295    0.00000975   -0.00000071
     atom   41 type  1   force =     0.00000313   -0.00000071    0.00000071
     atom   42 type  1   force =     0.00001163   -0.00000967    0.00000967
     atom   43 type  1   force =     0.00001295    0.00000071   -0.00000975
     atom   44 type  1   force =    -0.00001296    0.00001541    0.00001626
     atom   45 type  1   force =    -0.00000328    0.00001579   -0.00001579
     atom   46 type  1   force =    -0.00001146   -0.00001556    0.00001556
     atom   47 type  1   force =    -0.00001296   -0.00001626   -0.00001541
     atom   48 type  1   force =     0.00000896   -0.00000896   -0.00000882
     atom   49 type  1   force =     0.00000047   -0.00000047    0.00000272
     atom   50 type  1   force =    -0.00000078    0.00000187    0.00001891
     atom   51 type  1   force =    -0.00000193   -0.00000072   -0.00002090
     atom   52 type  1   force =    -0.00000187    0.00000078    0.00001891
     atom   53 type  1   force =     0.00000072    0.00000193   -0.00002090
     atom   54 type  1   force =     0.00000249   -0.00000249    0.00002198
     atom   55 type  1   force =     0.00000200   -0.00000200   -0.00002151
     atom   56 type  1   force =     0.00000551   -0.00000551    0.00000551
     atom   57 type  1   force =     0.00001288   -0.00001288   -0.00000210
     atom   58 type  1   force =     0.00001288    0.00000210    0.00001288
     atom   59 type  1   force =     0.00001248    0.00001336   -0.00001336
     atom   60 type  1   force =    -0.00000210   -0.00001288    0.00001288
     atom   61 type  1   force =    -0.00001336   -0.00001248   -0.00001336
     atom   62 type  1   force =    -0.00001336    0.00001336    0.00001248
     atom   63 type  1   force =    -0.00001249    0.00001249   -0.00001249

     Total force =     0.002487     Total SCF correction =     0.000163


     Computing stress (Cartesian axis) and pressure



     -----------------------------------------------
     Non-local corr. energy    =       2.16645214 Ry
     -----------------------------------------------

          total   stress  (Ry/bohr**3)                   (kbar)     P=      163.82
   0.00111360  -0.00000010   0.00000010          163.82       -0.02        0.02
  -0.00000010   0.00111360  -0.00000010           -0.02      163.82       -0.02
   0.00000010  -0.00000010   0.00111360            0.02       -0.02      163.82

     kinetic stress (kbar)  18857.82      0.02     -0.02
                                0.02  18857.82      0.02
                               -0.02      0.02  18857.82

     local   stress (kbar)  -3775.72      0.12     -0.12
                                0.12  -3775.72      0.12
                               -0.12      0.12  -3775.72

     nonloc. stress (kbar)   4283.39      0.00     -0.00
                                0.00   4283.39      0.00
                               -0.00      0.00   4283.39

     hartree stress (kbar)   1373.90     -0.05      0.05
                               -0.05   1373.90     -0.05
                                0.05     -0.05   1373.90

     exc-cor stress (kbar)   -439.77      0.02     -0.02
                                0.02   -439.77      0.02
                               -0.02      0.02   -439.77

     corecor stress (kbar)  -4369.06     -0.02      0.02
                               -0.02  -4369.06     -0.02
                                0.02     -0.02  -4369.06

     ewald   stress (kbar) -15791.69     -0.11      0.11
                               -0.11 -15791.69     -0.11
                                0.11     -0.11 -15791.69

     hubbard stress (kbar)      0.00      0.00      0.00
                                0.00      0.00      0.00
                                0.00      0.00      0.00

     DFT-D   stress (kbar)      0.00      0.00      0.00
                                0.00      0.00      0.00
                                0.00      0.00      0.00

     XDM     stress (kbar)      0.00      0.00      0.00
                                0.00      0.00      0.00
                                0.00      0.00      0.00

     dft-nl  stress (kbar)     24.94      0.00     -0.00
                                0.00     24.94      0.00
                               -0.00      0.00     24.94

     TS-vdW  stress (kbar)      0.00      0.00      0.00
                                0.00      0.00      0.00
                                0.00      0.00      0.00

     MDB     stress (kbar)      0.00      0.00      0.00
                                0.00      0.00      0.00
                                0.00      0.00      0.00

     3D-RISM stress (kbar)      0.00      0.00      0.00
                                0.00      0.00      0.00
                                0.00      0.00      0.00


     BFGS Geometry Optimization
     Energy error            =      0.0E+00 Ry
     Gradient error          =      4.0E-04 Ry/Bohr

     bfgs converged in   1 scf cycles and   0 bfgs steps
     (criteria: energy <  1.0E-04 Ry, force <  1.0E-03 Ry/Bohr)

     End of BFGS Geometry Optimization

     Final energy             =   -1193.9071941282 Ry
Begin final coordinates

ATOMIC_POSITIONS (angstrom)
C             0.8931044257        2.6791983927        4.4653950477
C             0.8931044257        6.2515134083        0.8931044257
C             0.8930347005        6.2515187630        4.4653896930
C             4.4653950477        2.6791983927        0.8931044257
C             4.4653896930        2.6792681179        4.4653896930
C             4.4653896930        6.2515187630        0.8930347005
C             4.4654046321        6.2515038239        4.4654046321
C             0.0053157337        0.0089554201        1.7809398847
C             0.0051952338       -0.0060299230        5.3524939691
C            -0.0593324050        3.6316352238        1.8455535678
C             0.0053159505        3.5669868683        5.3673294245
C             3.5783577418       -0.0060549230        1.7809104340
C             3.5691662750        0.0031365438        5.3615140386
C             3.5633473987        3.5669870851        1.7809398847
C             3.5783327418        3.5671075850        5.3524939691
C             0.9084952583        0.9063375662        2.6659652522
C             0.8776795420        0.9065384998        6.2649555844
C             0.8776795420        4.4519528716        2.6657643186
C             0.9085748106        4.4520283012        6.2648801548
C             4.4690652025        0.8971034704        2.6751993480
C             4.4617430030        0.8971690152        6.2554341696
C             4.4617430030        4.4614742864        2.6751338032
C             4.4691099820        4.4614101781        6.2554982779
C            -0.0593324050        1.7267492506       -0.0593324050
C             0.0053157337        1.7913629337        3.5633473987
C             0.0053159505        5.3495790315        0.0053159505
C             0.0051952338        5.3644144869        3.5783327418
C             3.5633473987        1.7913629337        0.0053157337
C             3.5783577418        1.7913923844        3.5783577418
C             3.5783327418        5.3644144869        0.0051952338
C             3.5691662750        5.3553944174        3.5691662750
C             2.6659652522        2.6638075601        2.6659652522
C             2.6657643186        2.6946232764        6.2649555844
C             2.6751993480        6.2478432535        2.6751993480
C             2.6751338032        6.2551654530        6.2554341696
C             6.2649555844        2.6946232764        2.6657643186
C             6.2648801548        2.6637280078        6.2648801548
C             6.2554341696        6.2551654530        2.6751338032
C             6.2554982779        6.2477984740        6.2554982779
C             1.7809398847        0.0089554201        0.0053157337
C             1.7809104340       -0.0060549230        3.5783577418
C             1.8455535678        3.6316352238       -0.0593324050
C             1.7809398847        3.5669870851        3.5633473987
C             5.3524939691       -0.0060299230        0.0051952338
C             5.3615140386        0.0031365438        3.5691662750
C             5.3673294245        3.5669868683        0.0053159505
C             5.3524939691        3.5671075850        3.5783327418
C             2.6659652522        0.9063375662        0.9084952583
C             2.6751993480        0.8971034704        4.4690652025
C             2.6657643186        4.4519528716        0.8776795420
C             2.6751338032        4.4614742864        4.4617430030
C             6.2649555844        0.9065384998        0.8776795420
C             6.2554341696        0.8971690152        4.4617430030
C             6.2648801548        4.4520283012        0.9085748106
C             6.2554982779        4.4614101781        4.4691099820
C             1.8456243765        1.7266784419        1.8456243765
C             1.7807327928        1.7915700256        5.3675566304
C             1.7807327928        5.3493518256        1.7807327928
C             1.7808014445        5.3645853734        5.3523230826
C             5.3675566304        1.7915700256        1.7807327928
C             5.3523230826        1.7915013739        5.3523230826
C             5.3523230826        5.3645853734        1.7808014445
C             5.3616186933        5.3552897627        5.3616186933
End final coordinates



     Writing all to output data dir ./diamond.save/
 
     init_run     :      1.04s CPU      1.18s WALL (       1 calls)
     electrons    :     13.21s CPU     15.57s WALL (       1 calls)
     forces       :      0.31s CPU      0.32s WALL (       1 calls)
     stress       :      2.29s CPU      2.34s WALL (       1 calls)

     Called by init_run:
     wfcinit      :      0.38s CPU      0.41s WALL (       1 calls)
     wfcinit:atom :      0.00s CPU      0.00s WALL (       1 calls)
     wfcinit:wfcr :      0.34s CPU      0.36s WALL (       1 calls)
     potinit      :      0.43s CPU      0.49s WALL (       1 calls)
     hinit0       :      0.10s CPU      0.12s WALL (       1 calls)

     Called by electrons:
     c_bands      :     12.11s CPU     14.38s WALL (       4 calls)
     sum_band     :      0.39s CPU      0.41s WALL (       4 calls)
     v_of_rho     :      0.75s CPU      0.79s WALL (       4 calls)
     v_h          :      0.00s CPU      0.00s WALL (       4 calls)
     v_xc         :      0.98s CPU      1.03s WALL (       6 calls)
     newd         :      0.02s CPU      0.03s WALL (       4 calls)
     PAW_pot      :      0.16s CPU      0.17s WALL (       4 calls)
     mix_rho      :      0.01s CPU      0.01s WALL (       4 calls)
     vdW_kernel   :      0.25s CPU      0.26s WALL (       1 calls)

     Called by c_bands:
     init_us_2    :      0.03s CPU      0.04s WALL (       9 calls)
     init_us_2:cp :      0.03s CPU      0.04s WALL (       9 calls)
     cegterg      :     11.91s CPU     12.08s WALL (       4 calls)

     Called by sum_band:
     sum_band:wei :      0.00s CPU      0.00s WALL (       4 calls)
     sum_band:loo :      0.31s CPU      0.32s WALL (       4 calls)
     sum_band:buf :      0.00s CPU      0.00s WALL (       4 calls)
     sum_band:ini :      0.03s CPU      0.03s WALL (       4 calls)
     sum_band:cal :      0.10s CPU      0.10s WALL (       4 calls)
     sum_band:bec :      0.00s CPU      0.00s WALL (       4 calls)
     addusdens    :      0.02s CPU      0.02s WALL (       4 calls)
                                        0.00s GPU  (       4 calls)
     addusd:skk   :      0.01s CPU      0.01s WALL (       4 calls)
                                        0.00s GPU  (       4 calls)

     Called by *egterg:
     cdiaghg      :      6.46s CPU      6.51s WALL (      57 calls)
     cegterg:over :      0.88s CPU      0.90s WALL (      54 calls)
     cegterg:upda :      0.60s CPU      0.62s WALL (      54 calls)
     cegterg:last :      0.22s CPU      0.23s WALL (       6 calls)
     h_psi        :      3.16s CPU      3.24s WALL (      59 calls)
     s_psi        :      0.50s CPU      0.51s WALL (      59 calls)
     g_psi        :      0.00s CPU      0.00s WALL (      54 calls)

     Called by h_psi:
     h_psi:calbec :      0.74s CPU      0.75s WALL (      59 calls)
     vloc_psi     :      1.76s CPU      1.79s WALL (      59 calls)
     add_vuspsi   :      0.64s CPU      0.66s WALL (      59 calls)

     General routines
     calbec       :      0.97s CPU      0.98s WALL (      68 calls)
     fft          :      0.37s CPU      0.40s WALL (     420 calls)
     ffts         :      0.01s CPU      0.01s WALL (       8 calls)
     fftw         :      1.77s CPU      1.80s WALL (    6954 calls)
     interpolate  :      0.01s CPU      0.01s WALL (       4 calls)
 
     Parallel routines

     PAW routines
     PAW_pot      :      0.16s CPU      0.17s WALL (       4 calls)
     PAW_symme    :      0.00s CPU      0.00s WALL (       7 calls)
 
     PWSCF        :     17.12s CPU     21.18s WALL

 
   This run was terminated on:  10:47: 7  19Feb2024            

=------------------------------------------------------------------------------=
   JOB DONE.
=------------------------------------------------------------------------------=
