
     Program PWSCF v.7.1 starts on 20Feb2024 at  7:45:41 

     This program is part of the open-source Quantum ESPRESSO suite
     for quantum simulation of materials; please cite
         "P. Giannozzi et al., J. Phys.:Condens. Matter 21 395502 (2009);
         "P. Giannozzi et al., J. Phys.:Condens. Matter 29 465901 (2017);
         "P. Giannozzi et al., J. Chem. Phys. 152 154105 (2020);
          URL http://www.quantum-espresso.org", 
     in publications or presentations arising from this work. More details at
     http://www.quantum-espresso.org/quote

     Parallel version (MPI & OpenMP), running on     256 processor cores
     Number of MPI processes:               256
     Threads/MPI process:                     1

     MPI processes distributed on     2 nodes
     1838756 MiB available memory on the printing compute node when the environment starts
 
     Reading input from espresso.pwi
Warning: card &CELL ignored
Warning: card    CELL_DYNAMICS    = 'BFGS' ignored
Warning: card / ignored

     Current dimensions of program PWSCF are:
     Max number of different atomic species (ntypx) = 10
     Max number of k-points (npk) =  40000
     Max angular momentum in pseudopotentials (lmaxx) =  4
     file Ga.pbe-dn-kjpaw_psl.1.0.0.UPF: wavefunction(s)  4S renormalized
     file N.pbe-n-kjpaw_psl.1.0.0.UPF: wavefunction(s)  2S renormalized

     **************************************************************************
     Initializing libbeef V0.1.2 with the BEEF-vdW functional.
     Citation: Wellendorff et al., PRB 85, 235149 (2012).
     **************************************************************************


     IMPORTANT: XC functional enforced from input :
     Exchange-correlation= BEEF-VDW
                           (   1   4  43  14   2   0   0)
     Any further DFT definition will be discarded
     Please, verify this is what you really want

 
     K-points division:     npool     =       4
     R & G space division:  proc/nbgrp/npool/nimage =      64
     Subspace diagonalization in iterative solution of the eigenvalue problem:
     a serial algorithm will be used

 
     Parallelization info
     --------------------
     sticks:   dense  smooth     PW     G-vecs:    dense   smooth      PW
     Min         354     283     73                42160    30167    3987
     Max         356     285     74                42163    30170    3996
     Sum       22693   18145   4705              2698283  1930731  255309
 
     Using Slab Decomposition
 


     bravais-lattice index     =            4
     lattice parameter (alat)  =      30.6565  a.u.
     unit-cell volume          =   24400.9461 (a.u.)^3
     number of atoms/cell      =          299
     number of atomic types    =            2
     number of electrons       =      2687.00
     number of Kohn-Sham states=         1613
     kinetic-energy cutoff     =      70.0000  Ry
     charge density cutoff     =     350.0000  Ry
     scf convergence threshold =      1.0E-07
     mixing beta               =       0.7000
     number of iterations used =            8  plain     mixing
     Exchange-correlation= BEEF-VDW
                           (   1   4  43  14   2   0   0)

     celldm(1)=  30.656540  celldm(2)=   0.000000  celldm(3)=   0.977927
     celldm(4)=   0.000000  celldm(5)=   0.000000  celldm(6)=   0.000000

     crystal axes: (cart. coord. in units of alat)
               a(1) = (   1.000000   0.000000   0.000000 )  
               a(2) = (  -0.500000   0.866025   0.000000 )  
               a(3) = (   0.000000   0.000000   0.977927 )  

     reciprocal axes: (cart. coord. in units 2 pi/alat)
               b(1) = (  1.000000  0.577350 -0.000000 )  
               b(2) = (  0.000000  1.154701  0.000000 )  
               b(3) = (  0.000000 -0.000000  1.022571 )  


     PseudoPot. # 1 for Ga read from file:
     //group///packages/espresso/pseudo/psl_1.0.0/pslibrary.1.0.0/pbe/PSEUDOPOTENTIALS/Ga.pbe-dn-kjpaw_psl.1.0.0.UPF
     MD5 check sum: cd2a01e492f15b435d17032472d8505c
     Pseudo is Projector augmented-wave + core cor, Zval = 13.0
     Generated using 'atomic' code by A. Dal Corso  v.7.1
     Shape of augmentation charge: PSQ
     Using radial grid of 1205 points,  6 beta functions with: 
                l(1) =   0
                l(2) =   0
                l(3) =   1
                l(4) =   1
                l(5) =   2
                l(6) =   2
     Q(r) pseudized with 0 coefficients 


     PseudoPot. # 2 for N  read from file:
     //group///packages/espresso/pseudo/psl_1.0.0/pslibrary.1.0.0/pbe/PSEUDOPOTENTIALS/N.pbe-n-kjpaw_psl.1.0.0.UPF
     MD5 check sum: f77f775694dac7e2c3fe1c82443d1a16
     Pseudo is Projector augmented-wave + core cor, Zval =  5.0
     Generated using 'atomic' code by A. Dal Corso  v.7.1
     Shape of augmentation charge: PSQ
     Using radial grid of 1085 points,  4 beta functions with: 
                l(1) =   0
                l(2) =   0
                l(3) =   1
                l(4) =   1
     Q(r) pseudized with 0 coefficients 


     atomic species   valence    mass     pseudopotential
        Ga            13.00    69.72300     Ga( 1.00)
        N              5.00    14.00700     N ( 1.00)

      2 Sym. Ops. (no inversion) found


                                    s                        frac. trans.

      isym =  1     identity                                     

 cryst.   s( 1) = (     1          0          0      )
                  (     0          1          0      )
                  (     0          0          1      )

 cart.    s( 1) = (  1.0000000  0.0000000  0.0000000 )
                  (  0.0000000  1.0000000  0.0000000 )
                  (  0.0000000  0.0000000  1.0000000 )


      isym =  2     inv. 180 deg rotation - cryst. axis [0,1,0]  

 cryst.   s( 2) = (     1          1          0      )
                  (     0         -1          0      )
                  (     0          0          1      )

 cart.    s( 2) = (  0.5000000  0.8660254  0.0000000 )
                  (  0.8660254 -0.5000000  0.0000000 )
                  (  0.0000000  0.0000000  1.0000000 )


     point group C_s (m)    
     there are  2 classes
     the character table:

       E     s    
A'     1.00  1.00
A''    1.00 -1.00

     the symmetry operations in each class and the name of the first element:

     E        1
          identity                                               
     s        2
          inv. 180 deg rotation - cryst. axis [0,1,0]            

   Cartesian axes

     site n.     atom                  positions (alat units)
         1           Ga  tau(   1) = (   0.1000001   0.0577350   0.4886906  )
         2           Ga  tau(   2) = (   0.1000001   0.0577350   0.8146665  )
         3           Ga  tau(   3) = (   0.0000001   0.2309401   0.1627148  )
         4           Ga  tau(   4) = (   0.0000001   0.2309401   0.4886906  )
         5           Ga  tau(   5) = (   0.0000001   0.2309401   0.8146665  )
         6           Ga  tau(   6) = (  -0.0999999   0.4041451   0.1627148  )
         7           Ga  tau(   7) = (  -0.0999999   0.4041451   0.4886906  )
         8           Ga  tau(   8) = (  -0.0999999   0.4041451   0.8146665  )
         9           Ga  tau(   9) = (  -0.1999999   0.5773502   0.1627148  )
        10           Ga  tau(  10) = (  -0.1999999   0.5773502   0.4886906  )
        11           Ga  tau(  11) = (  -0.1999999   0.5773502   0.8146665  )
        12           Ga  tau(  12) = (  -0.2999999   0.7505553   0.1627148  )
        13           Ga  tau(  13) = (  -0.2999999   0.7505553   0.4886906  )
        14           Ga  tau(  14) = (  -0.2999999   0.7505553   0.8146665  )
        15           Ga  tau(  15) = (   0.3000001   0.0577350   0.1627148  )
        16           Ga  tau(  16) = (   0.3000001   0.0577350   0.4886906  )
        17           Ga  tau(  17) = (   0.3000001   0.0577350   0.8146665  )
        18           Ga  tau(  18) = (   0.2000001   0.2309401   0.1627148  )
        19           Ga  tau(  19) = (   0.2000001   0.2309401   0.4886906  )
        20           Ga  tau(  20) = (   0.2000001   0.2309401   0.8146665  )
        21           Ga  tau(  21) = (   0.1000001   0.4041451   0.1627148  )
        22           Ga  tau(  22) = (   0.1000001   0.4041451   0.4886906  )
        23           Ga  tau(  23) = (   0.1000001   0.4041451   0.8146665  )
        24           Ga  tau(  24) = (   0.0000001   0.5773502   0.1627148  )
        25           Ga  tau(  25) = (   0.0000001   0.5773502   0.4886906  )
        26           Ga  tau(  26) = (   0.0000001   0.5773502   0.8146665  )
        27           Ga  tau(  27) = (  -0.0999999   0.7505553   0.1627148  )
        28           Ga  tau(  28) = (  -0.0999999   0.7505553   0.4886906  )
        29           Ga  tau(  29) = (  -0.0999999   0.7505553   0.8146665  )
        30           Ga  tau(  30) = (   0.5000001   0.0577350   0.1627148  )
        31           Ga  tau(  31) = (   0.5000001   0.0577350   0.4886906  )
        32           Ga  tau(  32) = (   0.5000001   0.0577350   0.8146665  )
        33           Ga  tau(  33) = (   0.4000001   0.2309401   0.1627148  )
        34           Ga  tau(  34) = (   0.4000001   0.2309401   0.4886906  )
        35           Ga  tau(  35) = (   0.4000001   0.2309401   0.8146665  )
        36           Ga  tau(  36) = (   0.3000001   0.4041451   0.1627148  )
        37           Ga  tau(  37) = (   0.3000001   0.4041451   0.4886906  )
        38           Ga  tau(  38) = (   0.3000001   0.4041451   0.8146665  )
        39           Ga  tau(  39) = (   0.2000001   0.5773502   0.1627148  )
        40           Ga  tau(  40) = (   0.2000001   0.5773502   0.4886906  )
        41           Ga  tau(  41) = (   0.2000001   0.5773502   0.8146665  )
        42           Ga  tau(  42) = (   0.1000001   0.7505553   0.1627148  )
        43           Ga  tau(  43) = (   0.1000001   0.7505553   0.4886906  )
        44           Ga  tau(  44) = (   0.1000001   0.7505553   0.8146665  )
        45           Ga  tau(  45) = (   0.7000001   0.0577350   0.1627148  )
        46           Ga  tau(  46) = (   0.7000001   0.0577350   0.4886906  )
        47           Ga  tau(  47) = (   0.7000001   0.0577350   0.8146665  )
        48           Ga  tau(  48) = (   0.6000001   0.2309401   0.1627148  )
        49           Ga  tau(  49) = (   0.6000001   0.2309401   0.4886906  )
        50           Ga  tau(  50) = (   0.6000001   0.2309401   0.8146665  )
        51           Ga  tau(  51) = (   0.5000001   0.4041451   0.1627148  )
        52           Ga  tau(  52) = (   0.5000001   0.4041451   0.4886906  )
        53           Ga  tau(  53) = (   0.5000001   0.4041451   0.8146665  )
        54           Ga  tau(  54) = (   0.4000001   0.5773502   0.1627148  )
        55           Ga  tau(  55) = (   0.4000001   0.5773502   0.4886906  )
        56           Ga  tau(  56) = (   0.4000001   0.5773502   0.8146665  )
        57           Ga  tau(  57) = (   0.3000001   0.7505553   0.1627148  )
        58           Ga  tau(  58) = (   0.3000001   0.7505553   0.4886906  )
        59           Ga  tau(  59) = (   0.3000001   0.7505553   0.8146665  )
        60           Ga  tau(  60) = (   0.9000001   0.0577350   0.1627148  )
        61           Ga  tau(  61) = (   0.9000001   0.0577350   0.4886906  )
        62           Ga  tau(  62) = (   0.9000001   0.0577350   0.8146665  )
        63           Ga  tau(  63) = (   0.8000001   0.2309401   0.1627148  )
        64           Ga  tau(  64) = (   0.8000001   0.2309401   0.4886906  )
        65           Ga  tau(  65) = (   0.8000001   0.2309401   0.8146665  )
        66           Ga  tau(  66) = (   0.7000001   0.4041451   0.1627148  )
        67           Ga  tau(  67) = (   0.7000001   0.4041451   0.4886906  )
        68           Ga  tau(  68) = (   0.7000001   0.4041451   0.8146665  )
        69           Ga  tau(  69) = (   0.6000001   0.5773502   0.1627148  )
        70           Ga  tau(  70) = (   0.6000001   0.5773502   0.4886906  )
        71           Ga  tau(  71) = (   0.6000001   0.5773502   0.8146665  )
        72           Ga  tau(  72) = (   0.5000001   0.7505553   0.1627148  )
        73           Ga  tau(  73) = (   0.5000001   0.7505553   0.4886906  )
        74           Ga  tau(  74) = (   0.5000001   0.7505553   0.8146665  )
        75           Ga  tau(  75) = (  -0.0000001   0.1154701   0.3257027  )
        76           Ga  tau(  76) = (  -0.0000001   0.1154701   0.6516786  )
        77           Ga  tau(  77) = (  -0.0000001   0.1154701   0.9776544  )
        78           Ga  tau(  78) = (  -0.1000001   0.2886752   0.3257027  )
        79           Ga  tau(  79) = (  -0.1000001   0.2886752   0.6516786  )
        80           Ga  tau(  80) = (  -0.1000001   0.2886752   0.9776544  )
        81           Ga  tau(  81) = (  -0.2000001   0.4618803   0.3257027  )
        82           Ga  tau(  82) = (  -0.2000001   0.4618803   0.6516786  )
        83           Ga  tau(  83) = (  -0.2000001   0.4618803   0.9776544  )
        84           Ga  tau(  84) = (  -0.3000001   0.6350854   0.3257027  )
        85           Ga  tau(  85) = (  -0.3000001   0.6350854   0.6516786  )
        86           Ga  tau(  86) = (  -0.3000001   0.6350854   0.9776544  )
        87           Ga  tau(  87) = (  -0.4000001   0.8082905   0.3257027  )
        88           Ga  tau(  88) = (  -0.4000001   0.8082905   0.6516786  )
        89           Ga  tau(  89) = (  -0.4000001   0.8082905   0.9776544  )
        90           Ga  tau(  90) = (   0.1999999   0.1154701   0.3257027  )
        91           Ga  tau(  91) = (   0.1999999   0.1154701   0.6516786  )
        92           Ga  tau(  92) = (   0.1999999   0.1154701   0.9776544  )
        93           Ga  tau(  93) = (   0.0999999   0.2886752   0.3257027  )
        94           Ga  tau(  94) = (   0.0999999   0.2886752   0.6516786  )
        95           Ga  tau(  95) = (   0.0999999   0.2886752   0.9776544  )
        96           Ga  tau(  96) = (  -0.0000001   0.4618803   0.3257027  )
        97           Ga  tau(  97) = (  -0.0000001   0.4618803   0.6516786  )
        98           Ga  tau(  98) = (  -0.0000001   0.4618803   0.9776544  )
        99           Ga  tau(  99) = (  -0.1000001   0.6350854   0.3257027  )
       100           Ga  tau( 100) = (  -0.1000001   0.6350854   0.6516786  )
       101           Ga  tau( 101) = (  -0.1000001   0.6350854   0.9776544  )
       102           Ga  tau( 102) = (  -0.2000001   0.8082905   0.3257027  )
       103           Ga  tau( 103) = (  -0.2000001   0.8082905   0.6516786  )
       104           Ga  tau( 104) = (  -0.2000001   0.8082905   0.9776544  )
       105           Ga  tau( 105) = (   0.3999999   0.1154701   0.3257027  )
       106           Ga  tau( 106) = (   0.3999999   0.1154701   0.6516786  )
       107           Ga  tau( 107) = (   0.3999999   0.1154701   0.9776544  )
       108           Ga  tau( 108) = (   0.2999999   0.2886752   0.3257027  )
       109           Ga  tau( 109) = (   0.2999999   0.2886752   0.6516786  )
       110           Ga  tau( 110) = (   0.2999999   0.2886752   0.9776544  )
       111           Ga  tau( 111) = (   0.1999999   0.4618803   0.3257027  )
       112           Ga  tau( 112) = (   0.1999999   0.4618803   0.6516786  )
       113           Ga  tau( 113) = (   0.1999999   0.4618803   0.9776544  )
       114           Ga  tau( 114) = (   0.0999999   0.6350854   0.3257027  )
       115           Ga  tau( 115) = (   0.0999999   0.6350854   0.6516786  )
       116           Ga  tau( 116) = (   0.0999999   0.6350854   0.9776544  )
       117           Ga  tau( 117) = (  -0.0000001   0.8082905   0.3257027  )
       118           Ga  tau( 118) = (  -0.0000001   0.8082905   0.6516786  )
       119           Ga  tau( 119) = (  -0.0000001   0.8082905   0.9776544  )
       120           Ga  tau( 120) = (   0.5999999   0.1154701   0.3257027  )
       121           Ga  tau( 121) = (   0.5999999   0.1154701   0.6516786  )
       122           Ga  tau( 122) = (   0.5999999   0.1154701   0.9776544  )
       123           Ga  tau( 123) = (   0.4999999   0.2886752   0.3257027  )
       124           Ga  tau( 124) = (   0.4999999   0.2886752   0.6516786  )
       125           Ga  tau( 125) = (   0.4999999   0.2886752   0.9776544  )
       126           Ga  tau( 126) = (   0.3999999   0.4618803   0.3257027  )
       127           Ga  tau( 127) = (   0.3999999   0.4618803   0.6516786  )
       128           Ga  tau( 128) = (   0.3999999   0.4618803   0.9776544  )
       129           Ga  tau( 129) = (   0.2999999   0.6350854   0.3257027  )
       130           Ga  tau( 130) = (   0.2999999   0.6350854   0.6516786  )
       131           Ga  tau( 131) = (   0.2999999   0.6350854   0.9776544  )
       132           Ga  tau( 132) = (   0.1999999   0.8082905   0.3257027  )
       133           Ga  tau( 133) = (   0.1999999   0.8082905   0.6516786  )
       134           Ga  tau( 134) = (   0.1999999   0.8082905   0.9776544  )
       135           Ga  tau( 135) = (   0.7999999   0.1154701   0.3257027  )
       136           Ga  tau( 136) = (   0.7999999   0.1154701   0.6516786  )
       137           Ga  tau( 137) = (   0.7999999   0.1154701   0.9776544  )
       138           Ga  tau( 138) = (   0.6999999   0.2886752   0.3257027  )
       139           Ga  tau( 139) = (   0.6999999   0.2886752   0.6516786  )
       140           Ga  tau( 140) = (   0.6999999   0.2886752   0.9776544  )
       141           Ga  tau( 141) = (   0.5999999   0.4618803   0.3257027  )
       142           Ga  tau( 142) = (   0.5999999   0.4618803   0.6516786  )
       143           Ga  tau( 143) = (   0.5999999   0.4618803   0.9776544  )
       144           Ga  tau( 144) = (   0.4999999   0.6350854   0.3257027  )
       145           Ga  tau( 145) = (   0.4999999   0.6350854   0.6516786  )
       146           Ga  tau( 146) = (   0.4999999   0.6350854   0.9776544  )
       147           Ga  tau( 147) = (   0.3999999   0.8082905   0.3257027  )
       148           Ga  tau( 148) = (   0.3999999   0.8082905   0.6516786  )
       149           Ga  tau( 149) = (   0.3999999   0.8082905   0.9776544  )
       150           N   tau( 150) = (   0.1000001   0.0577350   0.2855019  )
       151           N   tau( 151) = (   0.1000001   0.0577350   0.6114777  )
       152           N   tau( 152) = (   0.1000001   0.0577350   0.9374535  )
       153           N   tau( 153) = (   0.0000001   0.2309401   0.2855019  )
       154           N   tau( 154) = (   0.0000001   0.2309401   0.6114777  )
       155           N   tau( 155) = (   0.0000001   0.2309401   0.9374535  )
       156           N   tau( 156) = (  -0.0999999   0.4041451   0.2855019  )
       157           N   tau( 157) = (  -0.0999999   0.4041451   0.6114777  )
       158           N   tau( 158) = (  -0.0999999   0.4041451   0.9374535  )
       159           N   tau( 159) = (  -0.1999999   0.5773502   0.2855019  )
       160           N   tau( 160) = (  -0.1999999   0.5773502   0.6114777  )
       161           N   tau( 161) = (  -0.1999999   0.5773502   0.9374535  )
       162           N   tau( 162) = (  -0.2999999   0.7505553   0.2855019  )
       163           N   tau( 163) = (  -0.2999999   0.7505553   0.6114777  )
       164           N   tau( 164) = (  -0.2999999   0.7505553   0.9374535  )
       165           N   tau( 165) = (   0.3000001   0.0577350   0.2855019  )
       166           N   tau( 166) = (   0.3000001   0.0577350   0.6114777  )
       167           N   tau( 167) = (   0.3000001   0.0577350   0.9374535  )
       168           N   tau( 168) = (   0.2000001   0.2309401   0.2855019  )
       169           N   tau( 169) = (   0.2000001   0.2309401   0.6114777  )
       170           N   tau( 170) = (   0.2000001   0.2309401   0.9374535  )
       171           N   tau( 171) = (   0.1000001   0.4041451   0.2855019  )
       172           N   tau( 172) = (   0.1000001   0.4041451   0.6114777  )
       173           N   tau( 173) = (   0.1000001   0.4041451   0.9374535  )
       174           N   tau( 174) = (   0.0000001   0.5773502   0.2855019  )
       175           N   tau( 175) = (   0.0000001   0.5773502   0.6114777  )
       176           N   tau( 176) = (   0.0000001   0.5773502   0.9374535  )
       177           N   tau( 177) = (  -0.0999999   0.7505553   0.2855019  )
       178           N   tau( 178) = (  -0.0999999   0.7505553   0.6114777  )
       179           N   tau( 179) = (  -0.0999999   0.7505553   0.9374535  )
       180           N   tau( 180) = (   0.5000001   0.0577350   0.2855019  )
       181           N   tau( 181) = (   0.5000001   0.0577350   0.6114777  )
       182           N   tau( 182) = (   0.5000001   0.0577350   0.9374535  )
       183           N   tau( 183) = (   0.4000001   0.2309401   0.2855019  )
       184           N   tau( 184) = (   0.4000001   0.2309401   0.6114777  )
       185           N   tau( 185) = (   0.4000001   0.2309401   0.9374535  )
       186           N   tau( 186) = (   0.3000001   0.4041451   0.2855019  )
       187           N   tau( 187) = (   0.3000001   0.4041451   0.6114777  )
       188           N   tau( 188) = (   0.3000001   0.4041451   0.9374535  )
       189           N   tau( 189) = (   0.2000001   0.5773502   0.2855019  )
       190           N   tau( 190) = (   0.2000001   0.5773502   0.6114777  )
       191           N   tau( 191) = (   0.2000001   0.5773502   0.9374535  )
       192           N   tau( 192) = (   0.1000001   0.7505553   0.2855019  )
       193           N   tau( 193) = (   0.1000001   0.7505553   0.6114777  )
       194           N   tau( 194) = (   0.1000001   0.7505553   0.9374535  )
       195           N   tau( 195) = (   0.7000001   0.0577350   0.2855019  )
       196           N   tau( 196) = (   0.7000001   0.0577350   0.6114777  )
       197           N   tau( 197) = (   0.7000001   0.0577350   0.9374535  )
       198           N   tau( 198) = (   0.6000001   0.2309401   0.2855019  )
       199           N   tau( 199) = (   0.6000001   0.2309401   0.6114777  )
       200           N   tau( 200) = (   0.6000001   0.2309401   0.9374535  )
       201           N   tau( 201) = (   0.5000001   0.4041451   0.2855019  )
       202           N   tau( 202) = (   0.5000001   0.4041451   0.6114777  )
       203           N   tau( 203) = (   0.5000001   0.4041451   0.9374535  )
       204           N   tau( 204) = (   0.4000001   0.5773502   0.2855019  )
       205           N   tau( 205) = (   0.4000001   0.5773502   0.6114777  )
       206           N   tau( 206) = (   0.4000001   0.5773502   0.9374535  )
       207           N   tau( 207) = (   0.3000001   0.7505553   0.2855019  )
       208           N   tau( 208) = (   0.3000001   0.7505553   0.6114777  )
       209           N   tau( 209) = (   0.3000001   0.7505553   0.9374535  )
       210           N   tau( 210) = (   0.9000001   0.0577350   0.2855019  )
       211           N   tau( 211) = (   0.9000001   0.0577350   0.6114777  )
       212           N   tau( 212) = (   0.9000001   0.0577350   0.9374535  )
       213           N   tau( 213) = (   0.8000001   0.2309401   0.2855019  )
       214           N   tau( 214) = (   0.8000001   0.2309401   0.6114777  )
       215           N   tau( 215) = (   0.8000001   0.2309401   0.9374535  )
       216           N   tau( 216) = (   0.7000001   0.4041451   0.2855019  )
       217           N   tau( 217) = (   0.7000001   0.4041451   0.6114777  )
       218           N   tau( 218) = (   0.7000001   0.4041451   0.9374535  )
       219           N   tau( 219) = (   0.6000001   0.5773502   0.2855019  )
       220           N   tau( 220) = (   0.6000001   0.5773502   0.6114777  )
       221           N   tau( 221) = (   0.6000001   0.5773502   0.9374535  )
       222           N   tau( 222) = (   0.5000001   0.7505553   0.2855019  )
       223           N   tau( 223) = (   0.5000001   0.7505553   0.6114777  )
       224           N   tau( 224) = (   0.5000001   0.7505553   0.9374535  )
       225           N   tau( 225) = (  -0.0000001   0.1154701   0.1225140  )
       226           N   tau( 226) = (  -0.0000001   0.1154701   0.4484898  )
       227           N   tau( 227) = (  -0.0000001   0.1154701   0.7744656  )
       228           N   tau( 228) = (  -0.1000001   0.2886752   0.1225140  )
       229           N   tau( 229) = (  -0.1000001   0.2886752   0.4484898  )
       230           N   tau( 230) = (  -0.1000001   0.2886752   0.7744656  )
       231           N   tau( 231) = (  -0.2000001   0.4618803   0.1225140  )
       232           N   tau( 232) = (  -0.2000001   0.4618803   0.4484898  )
       233           N   tau( 233) = (  -0.2000001   0.4618803   0.7744656  )
       234           N   tau( 234) = (  -0.3000001   0.6350854   0.1225140  )
       235           N   tau( 235) = (  -0.3000001   0.6350854   0.4484898  )
       236           N   tau( 236) = (  -0.3000001   0.6350854   0.7744656  )
       237           N   tau( 237) = (  -0.4000001   0.8082905   0.1225140  )
       238           N   tau( 238) = (  -0.4000001   0.8082905   0.4484898  )
       239           N   tau( 239) = (  -0.4000001   0.8082905   0.7744656  )
       240           N   tau( 240) = (   0.1999999   0.1154701   0.1225140  )
       241           N   tau( 241) = (   0.1999999   0.1154701   0.4484898  )
       242           N   tau( 242) = (   0.1999999   0.1154701   0.7744656  )
       243           N   tau( 243) = (   0.0999999   0.2886752   0.1225140  )
       244           N   tau( 244) = (   0.0999999   0.2886752   0.4484898  )
       245           N   tau( 245) = (   0.0999999   0.2886752   0.7744656  )
       246           N   tau( 246) = (  -0.0000001   0.4618803   0.1225140  )
       247           N   tau( 247) = (  -0.0000001   0.4618803   0.4484898  )
       248           N   tau( 248) = (  -0.0000001   0.4618803   0.7744656  )
       249           N   tau( 249) = (  -0.1000001   0.6350854   0.1225140  )
       250           N   tau( 250) = (  -0.1000001   0.6350854   0.4484898  )
       251           N   tau( 251) = (  -0.1000001   0.6350854   0.7744656  )
       252           N   tau( 252) = (  -0.2000001   0.8082905   0.1225140  )
       253           N   tau( 253) = (  -0.2000001   0.8082905   0.4484898  )
       254           N   tau( 254) = (  -0.2000001   0.8082905   0.7744656  )
       255           N   tau( 255) = (   0.3999999   0.1154701   0.1225140  )
       256           N   tau( 256) = (   0.3999999   0.1154701   0.4484898  )
       257           N   tau( 257) = (   0.3999999   0.1154701   0.7744656  )
       258           N   tau( 258) = (   0.2999999   0.2886752   0.1225140  )
       259           N   tau( 259) = (   0.2999999   0.2886752   0.4484898  )
       260           N   tau( 260) = (   0.2999999   0.2886752   0.7744656  )
       261           N   tau( 261) = (   0.1999999   0.4618803   0.1225140  )
       262           N   tau( 262) = (   0.1999999   0.4618803   0.4484898  )
       263           N   tau( 263) = (   0.1999999   0.4618803   0.7744656  )
       264           N   tau( 264) = (   0.0999999   0.6350854   0.1225140  )
       265           N   tau( 265) = (   0.0999999   0.6350854   0.4484898  )
       266           N   tau( 266) = (   0.0999999   0.6350854   0.7744656  )
       267           N   tau( 267) = (  -0.0000001   0.8082905   0.1225140  )
       268           N   tau( 268) = (  -0.0000001   0.8082905   0.4484898  )
       269           N   tau( 269) = (  -0.0000001   0.8082905   0.7744656  )
       270           N   tau( 270) = (   0.5999999   0.1154701   0.1225140  )
       271           N   tau( 271) = (   0.5999999   0.1154701   0.4484898  )
       272           N   tau( 272) = (   0.5999999   0.1154701   0.7744656  )
       273           N   tau( 273) = (   0.4999999   0.2886752   0.1225140  )
       274           N   tau( 274) = (   0.4999999   0.2886752   0.4484898  )
       275           N   tau( 275) = (   0.4999999   0.2886752   0.7744656  )
       276           N   tau( 276) = (   0.3999999   0.4618803   0.1225140  )
       277           N   tau( 277) = (   0.3999999   0.4618803   0.4484898  )
       278           N   tau( 278) = (   0.3999999   0.4618803   0.7744656  )
       279           N   tau( 279) = (   0.2999999   0.6350854   0.1225140  )
       280           N   tau( 280) = (   0.2999999   0.6350854   0.4484898  )
       281           N   tau( 281) = (   0.2999999   0.6350854   0.7744656  )
       282           N   tau( 282) = (   0.1999999   0.8082905   0.1225140  )
       283           N   tau( 283) = (   0.1999999   0.8082905   0.4484898  )
       284           N   tau( 284) = (   0.1999999   0.8082905   0.7744656  )
       285           N   tau( 285) = (   0.7999999   0.1154701   0.1225140  )
       286           N   tau( 286) = (   0.7999999   0.1154701   0.4484898  )
       287           N   tau( 287) = (   0.7999999   0.1154701   0.7744656  )
       288           N   tau( 288) = (   0.6999999   0.2886752   0.1225140  )
       289           N   tau( 289) = (   0.6999999   0.2886752   0.4484898  )
       290           N   tau( 290) = (   0.6999999   0.2886752   0.7744656  )
       291           N   tau( 291) = (   0.5999999   0.4618803   0.1225140  )
       292           N   tau( 292) = (   0.5999999   0.4618803   0.4484898  )
       293           N   tau( 293) = (   0.5999999   0.4618803   0.7744656  )
       294           N   tau( 294) = (   0.4999999   0.6350854   0.1225140  )
       295           N   tau( 295) = (   0.4999999   0.6350854   0.4484898  )
       296           N   tau( 296) = (   0.4999999   0.6350854   0.7744656  )
       297           N   tau( 297) = (   0.3999999   0.8082905   0.1225140  )
       298           N   tau( 298) = (   0.3999999   0.8082905   0.4484898  )
       299           N   tau( 299) = (   0.3999999   0.8082905   0.7744656  )

   Crystallographic axes

     site n.     atom                  positions (cryst. coord.)
         1           Ga  tau(   1) = (  0.1333334  0.0666666  0.4997208  )
         2           Ga  tau(   2) = (  0.1333334  0.0666666  0.8330541  )
         3           Ga  tau(   3) = (  0.1333334  0.2666666  0.1663874  )
         4           Ga  tau(   4) = (  0.1333334  0.2666666  0.4997208  )
         5           Ga  tau(   5) = (  0.1333334  0.2666666  0.8330541  )
         6           Ga  tau(   6) = (  0.1333334  0.4666666  0.1663874  )
         7           Ga  tau(   7) = (  0.1333334  0.4666666  0.4997208  )
         8           Ga  tau(   8) = (  0.1333334  0.4666666  0.8330541  )
         9           Ga  tau(   9) = (  0.1333334  0.6666666  0.1663874  )
        10           Ga  tau(  10) = (  0.1333334  0.6666666  0.4997208  )
        11           Ga  tau(  11) = (  0.1333334  0.6666666  0.8330541  )
        12           Ga  tau(  12) = (  0.1333334  0.8666666  0.1663874  )
        13           Ga  tau(  13) = (  0.1333334  0.8666666  0.4997208  )
        14           Ga  tau(  14) = (  0.1333334  0.8666666  0.8330541  )
        15           Ga  tau(  15) = (  0.3333334  0.0666666  0.1663874  )
        16           Ga  tau(  16) = (  0.3333334  0.0666666  0.4997208  )
        17           Ga  tau(  17) = (  0.3333334  0.0666666  0.8330541  )
        18           Ga  tau(  18) = (  0.3333334  0.2666666  0.1663874  )
        19           Ga  tau(  19) = (  0.3333334  0.2666666  0.4997208  )
        20           Ga  tau(  20) = (  0.3333334  0.2666666  0.8330541  )
        21           Ga  tau(  21) = (  0.3333334  0.4666666  0.1663874  )
        22           Ga  tau(  22) = (  0.3333334  0.4666666  0.4997208  )
        23           Ga  tau(  23) = (  0.3333334  0.4666666  0.8330541  )
        24           Ga  tau(  24) = (  0.3333334  0.6666666  0.1663874  )
        25           Ga  tau(  25) = (  0.3333334  0.6666666  0.4997208  )
        26           Ga  tau(  26) = (  0.3333334  0.6666666  0.8330541  )
        27           Ga  tau(  27) = (  0.3333334  0.8666666  0.1663874  )
        28           Ga  tau(  28) = (  0.3333334  0.8666666  0.4997208  )
        29           Ga  tau(  29) = (  0.3333334  0.8666666  0.8330541  )
        30           Ga  tau(  30) = (  0.5333334  0.0666666  0.1663874  )
        31           Ga  tau(  31) = (  0.5333334  0.0666666  0.4997208  )
        32           Ga  tau(  32) = (  0.5333334  0.0666666  0.8330541  )
        33           Ga  tau(  33) = (  0.5333334  0.2666666  0.1663874  )
        34           Ga  tau(  34) = (  0.5333334  0.2666666  0.4997208  )
        35           Ga  tau(  35) = (  0.5333334  0.2666666  0.8330541  )
        36           Ga  tau(  36) = (  0.5333334  0.4666666  0.1663874  )
        37           Ga  tau(  37) = (  0.5333334  0.4666666  0.4997208  )
        38           Ga  tau(  38) = (  0.5333334  0.4666666  0.8330541  )
        39           Ga  tau(  39) = (  0.5333334  0.6666666  0.1663874  )
        40           Ga  tau(  40) = (  0.5333334  0.6666666  0.4997208  )
        41           Ga  tau(  41) = (  0.5333334  0.6666666  0.8330541  )
        42           Ga  tau(  42) = (  0.5333334  0.8666666  0.1663874  )
        43           Ga  tau(  43) = (  0.5333334  0.8666666  0.4997208  )
        44           Ga  tau(  44) = (  0.5333334  0.8666666  0.8330541  )
        45           Ga  tau(  45) = (  0.7333334  0.0666666  0.1663874  )
        46           Ga  tau(  46) = (  0.7333334  0.0666666  0.4997208  )
        47           Ga  tau(  47) = (  0.7333334  0.0666666  0.8330541  )
        48           Ga  tau(  48) = (  0.7333334  0.2666666  0.1663874  )
        49           Ga  tau(  49) = (  0.7333334  0.2666666  0.4997208  )
        50           Ga  tau(  50) = (  0.7333334  0.2666666  0.8330541  )
        51           Ga  tau(  51) = (  0.7333334  0.4666666  0.1663874  )
        52           Ga  tau(  52) = (  0.7333334  0.4666666  0.4997208  )
        53           Ga  tau(  53) = (  0.7333334  0.4666666  0.8330541  )
        54           Ga  tau(  54) = (  0.7333334  0.6666666  0.1663874  )
        55           Ga  tau(  55) = (  0.7333334  0.6666666  0.4997208  )
        56           Ga  tau(  56) = (  0.7333334  0.6666666  0.8330541  )
        57           Ga  tau(  57) = (  0.7333334  0.8666666  0.1663874  )
        58           Ga  tau(  58) = (  0.7333334  0.8666666  0.4997208  )
        59           Ga  tau(  59) = (  0.7333334  0.8666666  0.8330541  )
        60           Ga  tau(  60) = (  0.9333334  0.0666666  0.1663874  )
        61           Ga  tau(  61) = (  0.9333334  0.0666666  0.4997208  )
        62           Ga  tau(  62) = (  0.9333334  0.0666666  0.8330541  )
        63           Ga  tau(  63) = (  0.9333334  0.2666666  0.1663874  )
        64           Ga  tau(  64) = (  0.9333334  0.2666666  0.4997208  )
        65           Ga  tau(  65) = (  0.9333334  0.2666666  0.8330541  )
        66           Ga  tau(  66) = (  0.9333334  0.4666666  0.1663874  )
        67           Ga  tau(  67) = (  0.9333334  0.4666666  0.4997208  )
        68           Ga  tau(  68) = (  0.9333334  0.4666666  0.8330541  )
        69           Ga  tau(  69) = (  0.9333334  0.6666666  0.1663874  )
        70           Ga  tau(  70) = (  0.9333334  0.6666666  0.4997208  )
        71           Ga  tau(  71) = (  0.9333334  0.6666666  0.8330541  )
        72           Ga  tau(  72) = (  0.9333334  0.8666666  0.1663874  )
        73           Ga  tau(  73) = (  0.9333334  0.8666666  0.4997208  )
        74           Ga  tau(  74) = (  0.9333334  0.8666666  0.8330541  )
        75           Ga  tau(  75) = (  0.0666666  0.1333334  0.3330541  )
        76           Ga  tau(  76) = (  0.0666666  0.1333334  0.6663874  )
        77           Ga  tau(  77) = (  0.0666666  0.1333334  0.9997208  )
        78           Ga  tau(  78) = (  0.0666666  0.3333334  0.3330541  )
        79           Ga  tau(  79) = (  0.0666666  0.3333334  0.6663874  )
        80           Ga  tau(  80) = (  0.0666666  0.3333334  0.9997208  )
        81           Ga  tau(  81) = (  0.0666666  0.5333334  0.3330541  )
        82           Ga  tau(  82) = (  0.0666666  0.5333334  0.6663874  )
        83           Ga  tau(  83) = (  0.0666666  0.5333334  0.9997208  )
        84           Ga  tau(  84) = (  0.0666666  0.7333334  0.3330541  )
        85           Ga  tau(  85) = (  0.0666666  0.7333334  0.6663874  )
        86           Ga  tau(  86) = (  0.0666666  0.7333334  0.9997208  )
        87           Ga  tau(  87) = (  0.0666666  0.9333334  0.3330541  )
        88           Ga  tau(  88) = (  0.0666666  0.9333334  0.6663874  )
        89           Ga  tau(  89) = (  0.0666666  0.9333334  0.9997208  )
        90           Ga  tau(  90) = (  0.2666666  0.1333334  0.3330541  )
        91           Ga  tau(  91) = (  0.2666666  0.1333334  0.6663874  )
        92           Ga  tau(  92) = (  0.2666666  0.1333334  0.9997208  )
        93           Ga  tau(  93) = (  0.2666666  0.3333334  0.3330541  )
        94           Ga  tau(  94) = (  0.2666666  0.3333334  0.6663874  )
        95           Ga  tau(  95) = (  0.2666666  0.3333334  0.9997208  )
        96           Ga  tau(  96) = (  0.2666666  0.5333334  0.3330541  )
        97           Ga  tau(  97) = (  0.2666666  0.5333334  0.6663874  )
        98           Ga  tau(  98) = (  0.2666666  0.5333334  0.9997208  )
        99           Ga  tau(  99) = (  0.2666666  0.7333334  0.3330541  )
       100           Ga  tau( 100) = (  0.2666666  0.7333334  0.6663874  )
       101           Ga  tau( 101) = (  0.2666666  0.7333334  0.9997208  )
       102           Ga  tau( 102) = (  0.2666666  0.9333334  0.3330541  )
       103           Ga  tau( 103) = (  0.2666666  0.9333334  0.6663874  )
       104           Ga  tau( 104) = (  0.2666666  0.9333334  0.9997208  )
       105           Ga  tau( 105) = (  0.4666666  0.1333334  0.3330541  )
       106           Ga  tau( 106) = (  0.4666666  0.1333334  0.6663874  )
       107           Ga  tau( 107) = (  0.4666666  0.1333334  0.9997208  )
       108           Ga  tau( 108) = (  0.4666666  0.3333334  0.3330541  )
       109           Ga  tau( 109) = (  0.4666666  0.3333334  0.6663874  )
       110           Ga  tau( 110) = (  0.4666666  0.3333334  0.9997208  )
       111           Ga  tau( 111) = (  0.4666666  0.5333334  0.3330541  )
       112           Ga  tau( 112) = (  0.4666666  0.5333334  0.6663874  )
       113           Ga  tau( 113) = (  0.4666666  0.5333334  0.9997208  )
       114           Ga  tau( 114) = (  0.4666666  0.7333334  0.3330541  )
       115           Ga  tau( 115) = (  0.4666666  0.7333334  0.6663874  )
       116           Ga  tau( 116) = (  0.4666666  0.7333334  0.9997208  )
       117           Ga  tau( 117) = (  0.4666666  0.9333334  0.3330541  )
       118           Ga  tau( 118) = (  0.4666666  0.9333334  0.6663874  )
       119           Ga  tau( 119) = (  0.4666666  0.9333334  0.9997208  )
       120           Ga  tau( 120) = (  0.6666666  0.1333334  0.3330541  )
       121           Ga  tau( 121) = (  0.6666666  0.1333334  0.6663874  )
       122           Ga  tau( 122) = (  0.6666666  0.1333334  0.9997208  )
       123           Ga  tau( 123) = (  0.6666666  0.3333334  0.3330541  )
       124           Ga  tau( 124) = (  0.6666666  0.3333334  0.6663874  )
       125           Ga  tau( 125) = (  0.6666666  0.3333334  0.9997208  )
       126           Ga  tau( 126) = (  0.6666666  0.5333334  0.3330541  )
       127           Ga  tau( 127) = (  0.6666666  0.5333334  0.6663874  )
       128           Ga  tau( 128) = (  0.6666666  0.5333334  0.9997208  )
       129           Ga  tau( 129) = (  0.6666666  0.7333334  0.3330541  )
       130           Ga  tau( 130) = (  0.6666666  0.7333334  0.6663874  )
       131           Ga  tau( 131) = (  0.6666666  0.7333334  0.9997208  )
       132           Ga  tau( 132) = (  0.6666666  0.9333334  0.3330541  )
       133           Ga  tau( 133) = (  0.6666666  0.9333334  0.6663874  )
       134           Ga  tau( 134) = (  0.6666666  0.9333334  0.9997208  )
       135           Ga  tau( 135) = (  0.8666666  0.1333334  0.3330541  )
       136           Ga  tau( 136) = (  0.8666666  0.1333334  0.6663874  )
       137           Ga  tau( 137) = (  0.8666666  0.1333334  0.9997208  )
       138           Ga  tau( 138) = (  0.8666666  0.3333334  0.3330541  )
       139           Ga  tau( 139) = (  0.8666666  0.3333334  0.6663874  )
       140           Ga  tau( 140) = (  0.8666666  0.3333334  0.9997208  )
       141           Ga  tau( 141) = (  0.8666666  0.5333334  0.3330541  )
       142           Ga  tau( 142) = (  0.8666666  0.5333334  0.6663874  )
       143           Ga  tau( 143) = (  0.8666666  0.5333334  0.9997208  )
       144           Ga  tau( 144) = (  0.8666666  0.7333334  0.3330541  )
       145           Ga  tau( 145) = (  0.8666666  0.7333334  0.6663874  )
       146           Ga  tau( 146) = (  0.8666666  0.7333334  0.9997208  )
       147           Ga  tau( 147) = (  0.8666666  0.9333334  0.3330541  )
       148           Ga  tau( 148) = (  0.8666666  0.9333334  0.6663874  )
       149           Ga  tau( 149) = (  0.8666666  0.9333334  0.9997208  )
       150           N   tau( 150) = (  0.1333334  0.0666666  0.2919459  )
       151           N   tau( 151) = (  0.1333334  0.0666666  0.6252792  )
       152           N   tau( 152) = (  0.1333334  0.0666666  0.9586126  )
       153           N   tau( 153) = (  0.1333334  0.2666666  0.2919459  )
       154           N   tau( 154) = (  0.1333334  0.2666666  0.6252792  )
       155           N   tau( 155) = (  0.1333334  0.2666666  0.9586126  )
       156           N   tau( 156) = (  0.1333334  0.4666666  0.2919459  )
       157           N   tau( 157) = (  0.1333334  0.4666666  0.6252792  )
       158           N   tau( 158) = (  0.1333334  0.4666666  0.9586126  )
       159           N   tau( 159) = (  0.1333334  0.6666666  0.2919459  )
       160           N   tau( 160) = (  0.1333334  0.6666666  0.6252792  )
       161           N   tau( 161) = (  0.1333334  0.6666666  0.9586126  )
       162           N   tau( 162) = (  0.1333334  0.8666666  0.2919459  )
       163           N   tau( 163) = (  0.1333334  0.8666666  0.6252792  )
       164           N   tau( 164) = (  0.1333334  0.8666666  0.9586126  )
       165           N   tau( 165) = (  0.3333334  0.0666666  0.2919459  )
       166           N   tau( 166) = (  0.3333334  0.0666666  0.6252792  )
       167           N   tau( 167) = (  0.3333334  0.0666666  0.9586126  )
       168           N   tau( 168) = (  0.3333334  0.2666666  0.2919459  )
       169           N   tau( 169) = (  0.3333334  0.2666666  0.6252792  )
       170           N   tau( 170) = (  0.3333334  0.2666666  0.9586126  )
       171           N   tau( 171) = (  0.3333334  0.4666666  0.2919459  )
       172           N   tau( 172) = (  0.3333334  0.4666666  0.6252792  )
       173           N   tau( 173) = (  0.3333334  0.4666666  0.9586126  )
       174           N   tau( 174) = (  0.3333334  0.6666666  0.2919459  )
       175           N   tau( 175) = (  0.3333334  0.6666666  0.6252792  )
       176           N   tau( 176) = (  0.3333334  0.6666666  0.9586126  )
       177           N   tau( 177) = (  0.3333334  0.8666666  0.2919459  )
       178           N   tau( 178) = (  0.3333334  0.8666666  0.6252792  )
       179           N   tau( 179) = (  0.3333334  0.8666666  0.9586126  )
       180           N   tau( 180) = (  0.5333334  0.0666666  0.2919459  )
       181           N   tau( 181) = (  0.5333334  0.0666666  0.6252792  )
       182           N   tau( 182) = (  0.5333334  0.0666666  0.9586126  )
       183           N   tau( 183) = (  0.5333334  0.2666666  0.2919459  )
       184           N   tau( 184) = (  0.5333334  0.2666666  0.6252792  )
       185           N   tau( 185) = (  0.5333334  0.2666666  0.9586126  )
       186           N   tau( 186) = (  0.5333334  0.4666666  0.2919459  )
       187           N   tau( 187) = (  0.5333334  0.4666666  0.6252792  )
       188           N   tau( 188) = (  0.5333334  0.4666666  0.9586126  )
       189           N   tau( 189) = (  0.5333334  0.6666666  0.2919459  )
       190           N   tau( 190) = (  0.5333334  0.6666666  0.6252792  )
       191           N   tau( 191) = (  0.5333334  0.6666666  0.9586126  )
       192           N   tau( 192) = (  0.5333334  0.8666666  0.2919459  )
       193           N   tau( 193) = (  0.5333334  0.8666666  0.6252792  )
       194           N   tau( 194) = (  0.5333334  0.8666666  0.9586126  )
       195           N   tau( 195) = (  0.7333334  0.0666666  0.2919459  )
       196           N   tau( 196) = (  0.7333334  0.0666666  0.6252792  )
       197           N   tau( 197) = (  0.7333334  0.0666666  0.9586126  )
       198           N   tau( 198) = (  0.7333334  0.2666666  0.2919459  )
       199           N   tau( 199) = (  0.7333334  0.2666666  0.6252792  )
       200           N   tau( 200) = (  0.7333334  0.2666666  0.9586126  )
       201           N   tau( 201) = (  0.7333334  0.4666666  0.2919459  )
       202           N   tau( 202) = (  0.7333334  0.4666666  0.6252792  )
       203           N   tau( 203) = (  0.7333334  0.4666666  0.9586126  )
       204           N   tau( 204) = (  0.7333334  0.6666666  0.2919459  )
       205           N   tau( 205) = (  0.7333334  0.6666666  0.6252792  )
       206           N   tau( 206) = (  0.7333334  0.6666666  0.9586126  )
       207           N   tau( 207) = (  0.7333334  0.8666666  0.2919459  )
       208           N   tau( 208) = (  0.7333334  0.8666666  0.6252792  )
       209           N   tau( 209) = (  0.7333334  0.8666666  0.9586126  )
       210           N   tau( 210) = (  0.9333334  0.0666666  0.2919459  )
       211           N   tau( 211) = (  0.9333334  0.0666666  0.6252792  )
       212           N   tau( 212) = (  0.9333334  0.0666666  0.9586126  )
       213           N   tau( 213) = (  0.9333334  0.2666666  0.2919459  )
       214           N   tau( 214) = (  0.9333334  0.2666666  0.6252792  )
       215           N   tau( 215) = (  0.9333334  0.2666666  0.9586126  )
       216           N   tau( 216) = (  0.9333334  0.4666666  0.2919459  )
       217           N   tau( 217) = (  0.9333334  0.4666666  0.6252792  )
       218           N   tau( 218) = (  0.9333334  0.4666666  0.9586126  )
       219           N   tau( 219) = (  0.9333334  0.6666666  0.2919459  )
       220           N   tau( 220) = (  0.9333334  0.6666666  0.6252792  )
       221           N   tau( 221) = (  0.9333334  0.6666666  0.9586126  )
       222           N   tau( 222) = (  0.9333334  0.8666666  0.2919459  )
       223           N   tau( 223) = (  0.9333334  0.8666666  0.6252792  )
       224           N   tau( 224) = (  0.9333334  0.8666666  0.9586126  )
       225           N   tau( 225) = (  0.0666666  0.1333334  0.1252792  )
       226           N   tau( 226) = (  0.0666666  0.1333334  0.4586126  )
       227           N   tau( 227) = (  0.0666666  0.1333334  0.7919459  )
       228           N   tau( 228) = (  0.0666666  0.3333334  0.1252792  )
       229           N   tau( 229) = (  0.0666666  0.3333334  0.4586126  )
       230           N   tau( 230) = (  0.0666666  0.3333334  0.7919459  )
       231           N   tau( 231) = (  0.0666666  0.5333334  0.1252792  )
       232           N   tau( 232) = (  0.0666666  0.5333334  0.4586126  )
       233           N   tau( 233) = (  0.0666666  0.5333334  0.7919459  )
       234           N   tau( 234) = (  0.0666666  0.7333334  0.1252792  )
       235           N   tau( 235) = (  0.0666666  0.7333334  0.4586126  )
       236           N   tau( 236) = (  0.0666666  0.7333334  0.7919459  )
       237           N   tau( 237) = (  0.0666666  0.9333334  0.1252792  )
       238           N   tau( 238) = (  0.0666666  0.9333334  0.4586126  )
       239           N   tau( 239) = (  0.0666666  0.9333334  0.7919459  )
       240           N   tau( 240) = (  0.2666666  0.1333334  0.1252792  )
       241           N   tau( 241) = (  0.2666666  0.1333334  0.4586126  )
       242           N   tau( 242) = (  0.2666666  0.1333334  0.7919459  )
       243           N   tau( 243) = (  0.2666666  0.3333334  0.1252792  )
       244           N   tau( 244) = (  0.2666666  0.3333334  0.4586126  )
       245           N   tau( 245) = (  0.2666666  0.3333334  0.7919459  )
       246           N   tau( 246) = (  0.2666666  0.5333334  0.1252792  )
       247           N   tau( 247) = (  0.2666666  0.5333334  0.4586126  )
       248           N   tau( 248) = (  0.2666666  0.5333334  0.7919459  )
       249           N   tau( 249) = (  0.2666666  0.7333334  0.1252792  )
       250           N   tau( 250) = (  0.2666666  0.7333334  0.4586126  )
       251           N   tau( 251) = (  0.2666666  0.7333334  0.7919459  )
       252           N   tau( 252) = (  0.2666666  0.9333334  0.1252792  )
       253           N   tau( 253) = (  0.2666666  0.9333334  0.4586126  )
       254           N   tau( 254) = (  0.2666666  0.9333334  0.7919459  )
       255           N   tau( 255) = (  0.4666666  0.1333334  0.1252792  )
       256           N   tau( 256) = (  0.4666666  0.1333334  0.4586126  )
       257           N   tau( 257) = (  0.4666666  0.1333334  0.7919459  )
       258           N   tau( 258) = (  0.4666666  0.3333334  0.1252792  )
       259           N   tau( 259) = (  0.4666666  0.3333334  0.4586126  )
       260           N   tau( 260) = (  0.4666666  0.3333334  0.7919459  )
       261           N   tau( 261) = (  0.4666666  0.5333334  0.1252792  )
       262           N   tau( 262) = (  0.4666666  0.5333334  0.4586126  )
       263           N   tau( 263) = (  0.4666666  0.5333334  0.7919459  )
       264           N   tau( 264) = (  0.4666666  0.7333334  0.1252792  )
       265           N   tau( 265) = (  0.4666666  0.7333334  0.4586126  )
       266           N   tau( 266) = (  0.4666666  0.7333334  0.7919459  )
       267           N   tau( 267) = (  0.4666666  0.9333334  0.1252792  )
       268           N   tau( 268) = (  0.4666666  0.9333334  0.4586126  )
       269           N   tau( 269) = (  0.4666666  0.9333334  0.7919459  )
       270           N   tau( 270) = (  0.6666666  0.1333334  0.1252792  )
       271           N   tau( 271) = (  0.6666666  0.1333334  0.4586126  )
       272           N   tau( 272) = (  0.6666666  0.1333334  0.7919459  )
       273           N   tau( 273) = (  0.6666666  0.3333334  0.1252792  )
       274           N   tau( 274) = (  0.6666666  0.3333334  0.4586126  )
       275           N   tau( 275) = (  0.6666666  0.3333334  0.7919459  )
       276           N   tau( 276) = (  0.6666666  0.5333334  0.1252792  )
       277           N   tau( 277) = (  0.6666666  0.5333334  0.4586126  )
       278           N   tau( 278) = (  0.6666666  0.5333334  0.7919459  )
       279           N   tau( 279) = (  0.6666666  0.7333334  0.1252792  )
       280           N   tau( 280) = (  0.6666666  0.7333334  0.4586126  )
       281           N   tau( 281) = (  0.6666666  0.7333334  0.7919459  )
       282           N   tau( 282) = (  0.6666666  0.9333334  0.1252792  )
       283           N   tau( 283) = (  0.6666666  0.9333334  0.4586126  )
       284           N   tau( 284) = (  0.6666666  0.9333334  0.7919459  )
       285           N   tau( 285) = (  0.8666666  0.1333334  0.1252792  )
       286           N   tau( 286) = (  0.8666666  0.1333334  0.4586126  )
       287           N   tau( 287) = (  0.8666666  0.1333334  0.7919459  )
       288           N   tau( 288) = (  0.8666666  0.3333334  0.1252792  )
       289           N   tau( 289) = (  0.8666666  0.3333334  0.4586126  )
       290           N   tau( 290) = (  0.8666666  0.3333334  0.7919459  )
       291           N   tau( 291) = (  0.8666666  0.5333334  0.1252792  )
       292           N   tau( 292) = (  0.8666666  0.5333334  0.4586126  )
       293           N   tau( 293) = (  0.8666666  0.5333334  0.7919459  )
       294           N   tau( 294) = (  0.8666666  0.7333334  0.1252792  )
       295           N   tau( 295) = (  0.8666666  0.7333334  0.4586126  )
       296           N   tau( 296) = (  0.8666666  0.7333334  0.7919459  )
       297           N   tau( 297) = (  0.8666666  0.9333334  0.1252792  )
       298           N   tau( 298) = (  0.8666666  0.9333334  0.4586126  )
       299           N   tau( 299) = (  0.8666666  0.9333334  0.7919459  )

     number of k points=     6  Gaussian smearing, width (Ry)=  0.0100
                       cart. coord. in units 2pi/alat
        k(    1) = (   0.0000000   0.0000000   0.0000000), wk =   0.2500000
        k(    2) = (   0.0000000   0.0000000  -0.5112854), wk =   0.2500000
        k(    3) = (   0.0000000  -0.5773503   0.0000000), wk =   0.5000000
        k(    4) = (   0.0000000  -0.5773503  -0.5112854), wk =   0.5000000
        k(    5) = (  -0.5000000  -0.2886751   0.0000000), wk =   0.2500000
        k(    6) = (  -0.5000000  -0.2886751  -0.5112854), wk =   0.2500000

                       cryst. coord.
        k(    1) = (   0.0000000   0.0000000   0.0000000), wk =   0.2500000
        k(    2) = (   0.0000000   0.0000000  -0.5000000), wk =   0.2500000
        k(    3) = (   0.0000000  -0.5000000   0.0000000), wk =   0.5000000
        k(    4) = (   0.0000000  -0.5000000  -0.5000000), wk =   0.5000000
        k(    5) = (  -0.5000000  -0.0000000   0.0000000), wk =   0.2500000
        k(    6) = (  -0.5000000  -0.0000000  -0.5000000), wk =   0.2500000

     Dense  grid:  2698283 G-vectors     FFT dimensions: ( 192, 192, 180)

     Smooth grid:  1930731 G-vectors     FFT dimensions: ( 180, 180, 160)

     Dynamical RAM for                 wfc:      92.79 MB

     Dynamical RAM for     wfc (w. buffer):     278.37 MB

     Dynamical RAM for           str. fact:       1.29 MB

     Dynamical RAM for           local pot:       0.00 MB

     Dynamical RAM for          nlocal pot:     223.31 MB

     Dynamical RAM for                qrad:       3.00 MB

     Dynamical RAM for          rho,v,vnew:       4.46 MB

     Dynamical RAM for               rhoin:       1.49 MB

     Dynamical RAM for            rho*nmix:      10.29 MB

     Dynamical RAM for           G-vectors:       2.64 MB

     Dynamical RAM for          h,s,v(r/c):    1905.59 MB

     Dynamical RAM for          <psi|beta>:      95.55 MB

     Dynamical RAM for                 psi:     371.16 MB

     Dynamical RAM for                hpsi:     371.16 MB

     Dynamical RAM for                spsi:     371.16 MB

     Dynamical RAM for      wfcinit/wfcrot:     245.14 MB

     Dynamical RAM for           addusdens:      54.52 MB

     Dynamical RAM for          addusforce:     102.87 MB

     Dynamical RAM for         addusstress:      32.57 MB

     Estimated static dynamical RAM per process >     520.71 MB

     Estimated max dynamical RAM per process >       3.56 GB

     Estimated total dynamical RAM >     909.47 GB

     Atomic positions and unit cell read from directory:
     ./GaN.save/
     Atomic positions from file used, from input discarded
 

     Check: negative core charge=   -0.000003

     The initial density is read from file :
     ./GaN.save/charge-density



     %%%%%%%%%%%%%%%%%%%%%%%%%%%%%%%%%%%%%%%%%%%%%%%%%%%%%%%%%%%%%%%%%%%%%%%%
     %                                                                      %
     % You are using vdW-DF, which was implemented by the Thonhauser group. %
     % Please cite the following two papers that made this development      %
     % possible and the two reviews that describe the various versions:     %
     %                                                                      %
     %   T. Thonhauser et al., PRL 115, 136402 (2015).                      %
     %   T. Thonhauser et al., PRB 76, 125112 (2007).                       %
     %   K. Berland et al., Rep. Prog. Phys. 78, 066501 (2015).             %
     %   D.C. Langreth et al., J. Phys.: Condens. Matter 21, 084203 (2009). %
     %                                                                      %
     % If you are calculating stress with vdW-DF, please also cite:         %
     %                                                                      %
     %   R. Sabatini et al., J. Phys.: Condens. Matter 24, 424209 (2012).   %
     %                                                                      %
     %%%%%%%%%%%%%%%%%%%%%%%%%%%%%%%%%%%%%%%%%%%%%%%%%%%%%%%%%%%%%%%%%%%%%%%%

     %%%%%%%%%%%%%%%%%%%%%%%%%%%%%%%%%%%%%%%%%%%%%%%%%%%%%%%%%%%%%%%%%%%%%%%%
     %                                                                      %
     %  vdW-DF NEWS:                                                        %
     %                                                                      %
     %  * vdW-DF3 is now available. DOI: 10.1021/acs.jctc.0c00471           %
     %    use with input_dft = 'vdW-DF3-opt1' or 'vdW-DF3-opt2'             %
     %                                                                      %
     %  * Unscreened and range-separated vdW-DF hybrid functionals          %
     %    DOI: 10.1063/1.4986522 and 10.1088/1361-648X/ac2ad2               %
     %    use with input_dft = 'vdW-DF-cx0' (etc) and 'vdW-DF-ahcx'         %
     %                                                                      %
     %%%%%%%%%%%%%%%%%%%%%%%%%%%%%%%%%%%%%%%%%%%%%%%%%%%%%%%%%%%%%%%%%%%%%%%%


     Carrying out vdW-DF run using the following parameters:
     Nqs    =  20  Npoints =  1024  r_max =  100.000
     q_mesh =  0.00001000  0.04494208  0.09755937  0.15916263
               0.23128650  0.31572767  0.41458969  0.53033537
               0.66584808  0.82450364  1.01025438  1.22772762
               1.48234092  1.78043706  2.12944203  2.53805004
               3.01644009  3.57652955  4.23227104  5.00000000


     -----------------------------------------------
     Non-local corr. energy    =      81.30792707 Ry
     -----------------------------------------------

     Wavefunctions not found or not readable, recomputing them from scratch
     Starting wfcs are 1941 randomized atomic wfcs
     Checking if some PAW data can be deallocated... 
       PAW data deallocated on  150 nodes for type:  1
       PAW data deallocated on  106 nodes for type:  2

     total cpu time spent up to now is      117.1 secs

     Self-consistent Calculation

     iteration #  1     ecut=    70.00 Ry     beta= 0.70
     Davidson diagonalization with overlap

---- Real-time Memory Report at c_bands before calling an iterative solver
          1243 MiB given to the printing process from OS
             0 MiB allocation reported by mallinfo(arena+hblkhd)
       1755910 MiB available memory on the node where the printing process lives
------------------
     ethr =  1.00E-05,  avg # of iterations = 30.5

     Threshold (ethr) on eigenvalues was too large:
     Diagonalizing with lowered threshold

     Davidson diagonalization with overlap

---- Real-time Memory Report at c_bands before calling an iterative solver
          3583 MiB given to the printing process from OS
             0 MiB allocation reported by mallinfo(arena+hblkhd)
       1759110 MiB available memory on the node where the printing process lives
------------------
     c_bands:  5 eigenvalues not converged
     c_bands:  3 eigenvalues not converged
     ethr =  2.63E-08,  avg # of iterations = 48.5


     -----------------------------------------------
     Non-local corr. energy    =      81.30785745 Ry
     -----------------------------------------------


     total cpu time spent up to now is     8763.2 secs

     total energy              =  -46559.69049321 Ry
     estimated scf accuracy    <       0.00007687 Ry

     iteration #  2     ecut=    70.00 Ry     beta= 0.70
     Davidson diagonalization with overlap

---- Real-time Memory Report at c_bands before calling an iterative solver
          3583 MiB given to the printing process from OS
             0 MiB allocation reported by mallinfo(arena+hblkhd)
       1736024 MiB available memory on the node where the printing process lives
------------------
     ethr =  2.86E-09,  avg # of iterations = 19.0


     -----------------------------------------------
     Non-local corr. energy    =      81.30785648 Ry
     -----------------------------------------------


     total cpu time spent up to now is    12628.8 secs

     total energy              =  -46559.68973987 Ry
     estimated scf accuracy    <       0.02756427 Ry

     iteration #  3     ecut=    70.00 Ry     beta= 0.70
     Davidson diagonalization with overlap

---- Real-time Memory Report at c_bands before calling an iterative solver
          3583 MiB given to the printing process from OS
             0 MiB allocation reported by mallinfo(arena+hblkhd)
       1735882 MiB available memory on the node where the printing process lives
------------------
     ethr =  2.86E-09,  avg # of iterations = 16.7


     -----------------------------------------------
     Non-local corr. energy    =      81.30785770 Ry
     -----------------------------------------------


     total cpu time spent up to now is    15978.2 secs

     total energy              =  -46559.69055508 Ry
     estimated scf accuracy    <       0.00000252 Ry

     iteration #  4     ecut=    70.00 Ry     beta= 0.70
     Davidson diagonalization with overlap

---- Real-time Memory Report at c_bands before calling an iterative solver
          3583 MiB given to the printing process from OS
             0 MiB allocation reported by mallinfo(arena+hblkhd)
       1735733 MiB available memory on the node where the printing process lives
------------------
     c_bands:  1 eigenvalues not converged
     c_bands:  1 eigenvalues not converged
     ethr =  9.38E-11,  avg # of iterations = 18.5


     -----------------------------------------------
     Non-local corr. energy    =      81.30786040 Ry
     -----------------------------------------------


     total cpu time spent up to now is    17631.1 secs

     total energy              =  -46559.69055515 Ry
     estimated scf accuracy    <       0.00000194 Ry

     iteration #  5     ecut=    70.00 Ry     beta= 0.70
     Davidson diagonalization with overlap

---- Real-time Memory Report at c_bands before calling an iterative solver
          3583 MiB given to the printing process from OS
             0 MiB allocation reported by mallinfo(arena+hblkhd)
       1735594 MiB available memory on the node where the printing process lives
------------------
     c_bands:  1 eigenvalues not converged
     c_bands:  1 eigenvalues not converged
     ethr =  7.21E-11,  avg # of iterations = 18.7


     -----------------------------------------------
     Non-local corr. energy    =      81.30786543 Ry
     -----------------------------------------------


     total cpu time spent up to now is    19101.9 secs

     total energy              =  -46559.69055523 Ry
     estimated scf accuracy    <       0.00000067 Ry

     iteration #  6     ecut=    70.00 Ry     beta= 0.70
     Davidson diagonalization with overlap

---- Real-time Memory Report at c_bands before calling an iterative solver
          3583 MiB given to the printing process from OS
             0 MiB allocation reported by mallinfo(arena+hblkhd)
       1735430 MiB available memory on the node where the printing process lives
------------------
     ethr =  2.48E-11,  avg # of iterations = 17.5


     -----------------------------------------------
     Non-local corr. energy    =      81.30787477 Ry
     -----------------------------------------------


     total cpu time spent up to now is    20813.8 secs

     total energy              =  -46559.69055526 Ry
     estimated scf accuracy    <       0.00000022 Ry

     iteration #  7     ecut=    70.00 Ry     beta= 0.70
     Davidson diagonalization with overlap

---- Real-time Memory Report at c_bands before calling an iterative solver
          3583 MiB given to the printing process from OS
             0 MiB allocation reported by mallinfo(arena+hblkhd)
       1735286 MiB available memory on the node where the printing process lives
------------------
     ethr =  8.36E-12,  avg # of iterations =  4.2


     -----------------------------------------------
     Non-local corr. energy    =      81.30790533 Ry
     -----------------------------------------------


     total cpu time spent up to now is    21260.5 secs

     End of self-consistent calculation

          k = 0.0000 0.0000 0.0000 (241213 PWs)   bands (ev):

    -6.9308  -6.7287  -6.7240  -6.7062  -6.7049  -6.7046  -6.6930  -6.6929
    -6.6655  -6.5721  -6.5708  -6.5706  -6.5703  -6.5682  -6.5680  -6.5615
    -6.5615  -6.5536  -6.5534  -6.5469  -6.5316  -6.5037  -6.5035  -6.5033
    -6.5021  -6.5015  -6.5014  -6.5011  -6.4988  -6.4877  -6.4873  -6.4866
    -6.4773  -6.4771  -6.4733  -6.4705  -6.4503  -6.4500  -6.4498  -6.4484
    -6.4475  -6.4473  -6.4461  -6.4459  -6.4457  -6.4448  -6.4446  -6.4440
    -6.4437  -6.4436  -6.4430  -6.4429  -6.4428  -6.4421  -6.4417  -6.4415
    -6.4414  -6.4408  -6.4405  -6.4401  -6.4400  -6.4382  -6.4378  -6.4368
    -6.4358  -6.4350  -6.4348  -6.4346  -6.4318  -6.4310  -6.4310  -6.4304
    -6.4304  -6.4285  -6.4279  -6.4265  -6.4262  -6.4254  -6.4250  -6.4217
    -6.4195  -6.4191  -6.4159  -6.4150  -6.4148  -6.4146  -6.4139  -6.4136
    -6.4135  -6.4104  -6.4100  -6.4096  -6.4090  -6.4078  -6.4076  -6.4071
    -6.4067  -6.4066  -6.4062  -6.4061  -6.4060  -6.4054  -6.4052  -6.4044
    -6.4040  -6.4037  -6.4035  -6.4035  -6.4024  -6.4011  -6.4010  -6.4007
    -6.4006  -6.4000  -6.3999  -6.3988  -6.3981  -6.3980  -6.3978  -6.3970
    -6.3959  -6.3957  -6.3946  -6.3942  -6.3938  -6.3907  -6.3904  -6.3903
    -6.3880  -6.3879  -6.3864  -6.3808  -6.3806  -6.3769  -6.3740  -6.3723
    -6.3712  -6.3689  -6.3680  -6.3642  -6.3639  -6.3633  -6.3622  -6.3562
    -6.3498  -6.3483  -6.1653  -6.1422  -6.1365  -6.1363  -5.3512  -5.3391
    -5.3391  -5.3311  -5.3311  -5.3301  -5.3297  -5.3294  -5.3294  -5.3276
    -5.3276  -5.3230  -5.3209  -5.3208  -5.3198  -5.3198  -5.3144  -5.3144
    -5.3123  -5.3122  -5.3121  -5.3111  -5.3107  -5.3107  -5.3093  -5.3085
    -5.3084  -5.3083  -5.3074  -5.3074  -5.3069  -5.3069  -5.3065  -5.3064
    -5.3064  -5.3059  -5.3049  -5.3044  -5.3043  -5.3038  -5.3027  -5.3027
    -5.3022  -5.3022  -5.3011  -5.3011  -5.2998  -5.2994  -5.2993  -5.2993
    -5.2979  -5.2979  -5.2971  -5.2968  -5.2959  -5.2959  -5.2955  -5.2954
    -5.2949  -5.2945  -5.2945  -5.2927  -5.2913  -5.2898  -5.2898  -5.2891
    -5.2887  -5.2886  -5.2877  -5.2876  -5.2859  -5.2854  -5.2853  -5.2849
    -5.2849  -5.2841  -5.2836  -5.2836  -5.2831  -5.2831  -5.2820  -5.2819
    -5.2816  -5.2816  -5.2811  -5.2811  -5.2811  -5.2792  -5.2792  -5.2778
    -5.2777  -5.2776  -5.2775  -5.2773  -5.2766  -5.2766  -5.2762  -5.2762
    -5.2737  -5.2736  -5.2730  -5.2723  -5.2722  -5.2722  -5.2716  -5.2715
    -5.2715  -5.2708  -5.2708  -5.2704  -5.2699  -5.2699  -5.2696  -5.2690
    -5.2689  -5.2680  -5.2680  -5.2677  -5.2665  -5.2663  -5.2663  -5.2656
    -5.2647  -5.2647  -5.2633  -5.2620  -5.2620  -5.2616  -5.2613  -5.2612
    -5.2611  -5.2601  -5.2601  -5.2589  -5.2585  -5.2583  -5.2583  -5.2581
    -5.2579  -5.2579  -5.2575  -5.2573  -5.2569  -5.2569  -5.2558  -5.2555
    -5.2555  -5.2543  -5.2543  -5.2534  -5.2533  -5.2526  -5.2524  -5.2523
    -5.2523  -5.2520  -5.2518  -5.2518  -5.2511  -5.2504  -5.2504  -5.2503
    -5.2494  -5.2494  -5.2493  -5.2484  -5.2484  -5.2479  -5.2478  -5.2471
    -5.2457  -5.2456  -5.2455  -5.2448  -5.2447  -5.2447  -5.2424  -5.2423
    -5.2412  -5.2411  -5.2398  -5.2393  -5.2383  -5.2383  -5.2373  -5.2370
    -5.2370  -5.2368  -5.2362  -5.2362  -5.2353  -5.2353  -5.2338  -5.2336
    -5.2336  -5.2324  -5.2324  -5.2324  -5.2311  -5.2299  -5.2299  -5.2298
    -5.2271  -5.2263  -5.2262  -5.2258  -5.2245  -5.2232  -5.2232  -5.2228
    -5.2221  -5.2220  -5.2206  -5.2205  -5.2191  -5.2164  -5.2163  -5.2151
    -5.2151  -5.2123  -5.2123  -5.2118  -5.2110  -5.2108  -5.2104  -5.2096
    -5.2096  -5.2087  -5.2081  -5.2070  -5.2070  -5.2038  -5.2037  -5.2032
    -5.2019  -5.2019  -5.1985  -5.1983  -5.1982  -5.1981  -5.1954  -5.1954
    -5.1933  -5.1906  -5.1906  -5.1903  -5.1882  -5.1881  -5.1874  -5.1872
    -5.1851  -5.1850  -5.1850  -5.1849  -5.1849  -5.1841  -5.1841  -5.1836
    -5.1825  -5.1818  -5.1816  -5.1815  -5.1805  -5.1805  -5.1788  -5.1785
    -5.1774  -5.1774  -5.1771  -5.1764  -5.1764  -5.1760  -5.1760  -5.1741
    -5.1741  -5.1734  -5.1730  -5.1730  -5.1725  -5.1722  -5.1722  -5.1720
    -5.1720  -5.1715  -5.1715  -5.1711  -5.1705  -5.1705  -5.1701  -5.1701
    -5.1696  -5.1685  -5.1684  -5.1683  -5.1675  -5.1672  -5.1672  -5.1667
    -5.1666  -5.1664  -5.1659  -5.1659  -5.1646  -5.1640  -5.1640  -5.1635
    -5.1635  -5.1633  -5.1625  -5.1620  -5.1619  -5.1619  -5.1616  -5.1616
    -5.1606  -5.1606  -5.1604  -5.1603  -5.1603  -5.1596  -5.1585  -5.1585
    -5.1583  -5.1577  -5.1575  -5.1575  -5.1573  -5.1567  -5.1567  -5.1564
    -5.1561  -5.1561  -5.1550  -5.1535  -5.1528  -5.1527  -5.1524  -5.1523
    -5.1520  -5.1516  -5.1515  -5.1515  -5.1513  -5.1504  -5.1503  -5.1491
    -5.1491  -5.1489  -5.1486  -5.1485  -5.1473  -5.1472  -5.1467  -5.1461
    -5.1460  -5.1458  -5.1457  -5.1453  -5.1453  -5.1447  -5.1439  -5.1439
    -5.1435  -5.1433  -5.1433  -5.1430  -5.1430  -5.1425  -5.1421  -5.1411
    -5.1410  -5.1409  -5.1389  -5.1389  -5.1388  -5.1379  -5.1375  -5.1375
    -5.1370  -5.1369  -5.1368  -5.1368  -5.1358  -5.1358  -5.1357  -5.1355
    -5.1355  -5.1350  -5.1349  -5.1331  -5.1328  -5.1327  -5.1327  -5.1324
    -5.1324  -5.1307  -5.1307  -5.1305  -5.1288  -5.1287  -5.1287  -5.1277
    -5.1269  -5.1269  -5.1263  -5.1260  -5.1260  -5.1247  -5.1247  -5.1242
    -5.1242  -5.1234  -5.1222  -5.1222  -5.1219  -5.1208  -5.1208  -5.1191
    -5.1190  -5.1187  -5.1182  -5.1177  -5.1177  -5.1169  -5.1169  -5.1165
    -5.1162  -5.1155  -5.1155  -5.1144  -5.1142  -5.1141  -5.1138  -5.1134
    -5.1134  -5.1124  -5.1114  -5.1109  -5.1094  -5.1094  -5.1089  -5.1089
    -5.1089  -5.1078  -5.1077  -5.1077  -5.1067  -5.1066  -5.1051  -5.1049
    -5.1048  -5.1034  -5.1034  -5.1034  -5.1020  -5.1020  -5.1011  -5.1008
    -5.1008  -5.1007  -5.0997  -5.0997  -5.0985  -5.0985  -5.0981  -5.0980
    -5.0979  -5.0977  -5.0969  -5.0956  -5.0956  -5.0953  -5.0953  -5.0947
    -5.0942  -5.0942  -5.0940  -5.0939  -5.0935  -5.0931  -5.0930  -5.0924
    -5.0924  -5.0921  -5.0916  -5.0915  -5.0915  -5.0909  -5.0906  -5.0900
    -5.0899  -5.0897  -5.0896  -5.0896  -5.0890  -5.0890  -5.0886  -5.0885
    -5.0885  -5.0872  -5.0869  -5.0868  -5.0865  -5.0863  -5.0862  -5.0855
    -5.0855  -5.0846  -5.0846  -5.0843  -5.0837  -5.0836  -5.0836  -5.0829
    -5.0828  -5.0824  -5.0820  -5.0812  -5.0812  -5.0809  -5.0806  -5.0795
    -5.0795  -5.0790  -5.0790  -5.0783  -5.0781  -5.0774  -5.0774  -5.0771
    -5.0763  -5.0763  -5.0760  -5.0756  -5.0755  -5.0741  -5.0741  -5.0726
    -5.0725  -5.0725  -5.0724  -5.0714  -5.0713  -5.0706  -5.0705  -5.0703
    -5.0697  -5.0696  -5.0687  -5.0686  -5.0686  -5.0671  -5.0671  -5.0663
    -5.0663  -5.0662  -5.0648  -5.0643  -5.0640  -5.0640  -5.0603  -5.0603
    -5.0591  -5.0590  -5.0569  -5.0553  -5.0553  -5.0550  -5.0544  -5.0544
    -5.0517  -5.0516  -5.0490  -5.0486  -5.0484  -5.0474  -5.0462  -5.0386
    -5.0357  -5.0356  -5.0274  -5.0215  -5.0194  -5.0193  -5.0138  -5.0095
    -5.0094  -5.0020  -5.0019  -5.0010  -4.9953  -4.9953  -4.9873  -4.9872
    -4.9856  -4.9788  -4.9787  -4.9750  -4.9724  -4.9722  -4.9666  -4.9663
    -4.9636  -4.9539  -4.8491  -4.8482  -4.8460  -4.8459  -4.8430  -4.8429
    -4.8334  -4.8333  -4.8277  -4.8277  -4.8197  -4.7485  -4.3967  -4.3965
    -4.3944  -4.3876  -4.3875  -4.3769  -4.3516  -4.3416  -4.1569  -4.1567
    -4.1541  -4.1513  -4.1509  -4.1505  -4.1493  -4.1491  -4.1451  -4.1426
    -4.1424  -4.1250  -4.0838  -4.0798  -4.0798  -4.0724  -4.0723  -4.0601
    -4.0271  -4.0256  -4.0255  -4.0252  -4.0222  -4.0220  -4.0105  -4.0105
    -4.0077  -4.0077  -3.9734  -3.9431  -3.8843  -3.8828  -3.8828  -3.8818
    -3.8816  -3.8789  -3.8744  -3.8742  -3.8690  -3.8606  -3.8605  -3.7257
    -3.5756  -3.4626  -3.4623  -3.4620  -3.4595  -3.4591  -3.4586  -3.4579
    -3.4576  -3.4541  -3.4540  -3.4530  -3.4515  -3.4514  -3.4448  -3.4439
    -3.4400  -3.4399  -3.4072  -3.3597  -3.3597  -3.3578  -3.3578  -3.3527
    -3.3527  -3.3524  -3.3490  -3.3485  -3.3468  -3.3468  -3.3438  -3.3401
    -3.3397  -3.3396  -3.3366  -3.3365  -3.3363  -3.3281  -3.3274  -3.3274
    -3.3247  -3.3246  -3.3224  -3.3132  -3.3130  -3.2833  -3.2832  -3.2514
    -3.1416  -3.1335  -3.1335  -3.1331  -3.1331  -3.1305  -3.1281  -3.1280
    -3.1258  -3.1166  -3.0875  -3.0874  -3.0600  -3.0169  -3.0169  -3.0084
    -3.0043  -3.0039  -2.9959  -2.9910  -2.9909  -2.9876  -2.9820  -2.9819
    -2.9716  -2.9672  -2.9671  -2.9228  -2.8858  -2.8752  -2.8750   2.0199
     2.4859   2.4861   2.4865   2.4991   2.4993   2.5478   2.5480   2.5482
     2.5503   2.5504   2.5508   2.5523   2.5535   2.5535   2.5542   2.5545
     2.5549   2.5570   2.5586   2.5586   2.5604   2.5612   2.5641   2.5749
     2.5831   2.5838   2.5839   2.6117   2.6123   2.6572   2.7160   2.7176
     2.7187   2.7358   2.7363   2.7740   2.8753   2.8753   2.8781   2.8861
     2.8861   2.8967   2.9235   2.9236   2.9261   2.9267   2.9269   2.9292
     2.9352   2.9363   2.9364   2.9575   2.9576   3.0322   3.0656   3.0661
     3.0661   3.0708   3.0710   3.1170   3.1695   3.1695   3.1711   3.1713
     3.1714   3.1748   3.1802   3.1802   3.1870   3.1883   3.1884   3.2063
     3.2171   3.2194   3.2199   3.2217   3.2240   3.2246   3.2334   3.2368
     3.2374   3.2856   3.2861   3.5178   3.5340   3.5398   3.6319   3.6321
     3.6328   3.6328   3.6343   3.6345   3.6348   3.6365   3.6368   3.6428
     3.6429   3.6519   3.6519   3.6638   3.6638   3.6815   3.7352   3.8307
     3.8707   3.8716   3.8839   3.8862   3.8870   3.9058   3.9202   3.9202
     3.9205   3.9242   3.9243   3.9252   3.9372   3.9373   3.9618   3.9759
     3.9760   4.4124   4.4689   4.4711   4.4716   4.4885   4.4886   4.4976
     4.5193   4.5196   4.5200   4.5412   4.5442   4.5451   4.5571   4.5576
     4.5776   4.5889   4.5897   4.6447   4.6449   4.6500   4.6879   4.6880
     4.7425   4.8963   4.9344   4.9354   4.9357   4.9357   4.9362   4.9383
     4.9383   4.9473   4.9474   5.0386   5.0386   5.2833   5.4062   5.4062
     5.4093   5.4123   5.4138   5.4138   5.4148   5.4165   5.4165   5.4251
     5.4252   5.4357   5.4358   5.4427   5.4573   5.4574   5.4705   5.5750
     5.6135   5.6189   5.6191   5.6395   5.6400   5.7224   5.7959   5.8008
     5.8011   5.8221   5.8222   5.8355   5.8479   5.8483   5.8500   5.8509
     5.8512   5.8552   5.8631   5.8632   5.8662   5.8665   5.8777   5.8992
     5.9274   5.9275   5.9296   5.9299   5.9306   5.9330   5.9332   5.9345
     5.9380   5.9395   5.9400   5.9435   5.9439   5.9478   5.9482   5.9518
     5.9518   5.9530   5.9533   5.9583   5.9686   5.9689   5.9722   5.9729
     5.9785   5.9785   5.9800   5.9852   5.9913   5.9914   5.9990   5.9993
     6.0789   6.1270   6.1273   6.2180   6.2379   6.2396   6.2404   6.2637
     6.2641   6.2701   6.2801   6.2807   6.2836   6.2837   6.2849   6.2850
     6.2887   6.2888   6.3490   6.3561   6.3563   6.4140   6.4191   6.4194
     6.4249   6.4249   6.4450   6.4610   6.4610   6.4865   6.4892   6.4900
     6.4900   6.5118   6.5121   6.5808   6.5810   6.5812   6.5847   6.5861
     6.5862   6.5880   6.5884   6.5910   6.5910   6.5914   6.5939   6.5943
     6.5947   6.5960   6.6081   6.6082   6.6129   6.6210   6.6212   6.6404
     6.6610   6.6613   6.6686   6.6868   6.6918   6.6918   6.7300   6.7301
     6.7628   6.7923   6.8033   6.8053   6.8053   6.8076   6.8165   6.8166
     6.8247   6.8308   6.8308   6.9403   6.9406   7.0584   7.0641   7.0642
     7.0717   7.0795   7.0797   7.0811   7.0811   7.0908   7.0909   7.1459
     7.1460   7.2197   7.2296   7.2296   7.2317   7.2318   7.2323   7.2358
     7.2467   7.2468   7.2559   7.2563   7.2812   7.3204   7.3298   7.3299
     7.3309   7.3311   7.3323   7.3332   7.3342   7.3343   7.3354   7.3376
     7.3425   7.3428   7.3518   7.3520   7.3639   7.3670   7.3673   7.3697
     7.3709   7.3724   7.3727   7.3728   7.3730   7.3741   7.3764   7.3771
     7.3772   7.3813   7.3834   7.3839   7.3928   7.3930   7.3942   7.3965
     7.3970   7.4025   7.4026   7.4283   7.4418   7.5039   7.5043   7.5047
     7.5093   7.5263   7.5265   7.5635   7.5638   7.5662   7.5681   7.5682
     7.5731   7.5777   7.5778   7.5801   7.5875   7.5875   7.6193   7.6359
     7.6361   7.6521   7.6526   7.6533   7.6534   7.6620   7.6621   7.6644
     7.6644   7.6824   7.7135   7.7139   7.7639   7.7646   7.8257   7.8268
     7.8274   7.8654   7.9089   7.9092   7.9531   7.9532   7.9713   7.9714
     8.0152   8.0161   8.0194   8.0195   8.0212   8.0290   8.0291   8.0301
     8.0309   8.0310   8.0665   8.2034   8.2438   8.2439   8.2634   8.2634
     8.2647   8.3165   8.3166   8.3741   8.3768   8.3792   8.3793   8.4228
     8.4228   8.4500   8.4501   8.6043   8.6643   8.6644   8.8317   8.8858
     8.8861  10.2521  11.9468  11.9746  12.1474  12.1567  12.1569  12.1735
    12.1737  12.2455  12.6292  12.7393  12.7803  12.8447  12.8469  12.8470
    12.8506  12.8508  12.8520  12.8731  12.8731  12.8850  12.8960  12.8960
    12.9090  12.9211  12.9220  12.9222  12.9293  12.9297  12.9348  12.9403
    12.9405  12.9737  12.9951  12.9955  13.1033  13.6079  13.6088  13.6195
    13.6348  13.6362  13.6373  13.8022  13.8028  13.8028  13.8053  13.8054
    13.8076  13.8117  13.8121  13.8147  13.8257  13.8275  13.8278  13.8310
    13.8317  13.8318  13.8426  13.8428  13.8432  13.8520  13.8526  13.8576
    13.8857  13.8860  13.9146  13.9249  13.9251  13.9313  13.9417  13.9418
    13.9657  13.9841  13.9843  13.9923  13.9932  13.9986  13.9989  14.0040
    14.0042  14.0081  14.0416  14.0502  14.0502  14.0541  14.0543  14.0908
    14.0942  14.0945  14.1164  14.1217  14.1217  14.1235  14.1250  14.1251
    14.1300  14.1301  14.1346  14.1440  14.1441  14.1476  14.1619  14.1798
    14.1800  14.2602  14.2761  14.2764  14.4342  14.4381  14.4383  14.4489
    14.5274  14.5281  14.6470  14.8366  14.8375  14.8408  14.8412  14.8524
    14.8529  14.8559  14.8675  14.8675  14.8719  14.8723  14.8952  15.0058
    15.0061  15.0068  15.0140  15.0142  15.0196  15.0376  15.0376  15.0517
    15.0538  15.0540  15.0668  15.0756  15.0757  15.0774  15.1232  15.1234
    15.1379  15.1495  15.1500  15.1541  15.1662  15.1664  15.3023  15.3287
    15.3540  15.3546  15.4030  15.4034  15.4260  15.6546  15.6548  15.6682
    15.6683  15.6688  15.6713  15.7778  15.7781  15.8012  15.8046  15.8054
    15.8055  15.8918  15.8944  15.8946  15.8997  15.8997  15.9046  15.9113
    15.9114  15.9228  15.9372  15.9374  15.9649  16.0664  16.0665  16.0667
    16.0730  16.0732  16.0735  16.0770  16.0775  16.0779  16.0821  16.0825
    16.0854  16.0867  16.0872  16.0890  16.0890  16.0931  16.1011  16.1013
    16.1119  16.1132  16.1192  16.1193  16.1233  16.1312  16.1319  16.1391
    16.1410  16.1410  16.1410  16.1617  16.1737  16.1740  16.1949  16.1952
    16.2057  16.2134  16.2234  16.2236  16.2339  16.2458  16.2462  16.2878
    16.2880  16.2969  16.2973  16.3009  16.3030  16.3045  16.3047  16.3166
    16.3167  16.3169  16.3257  16.3261  16.3304  16.3318  16.3367  16.3368
    16.3413  16.3496  16.3497  16.3778  16.3855  16.3858  16.3874  16.4029
    16.4030  16.4032  16.4097  16.4098  16.4141  16.4224  16.4227  16.4394
    16.4508  16.4510  16.4856  16.4858  16.4983  16.5112  16.5236  16.5239
    16.5727  16.6078  16.6159  16.6235  16.6237

     occupation numbers 
     1.0000   1.0000   1.0000   1.0000   1.0000   1.0000   1.0000   1.0000
     1.0000   1.0000   1.0000   1.0000   1.0000   1.0000   1.0000   1.0000
     1.0000   1.0000   1.0000   1.0000   1.0000   1.0000   1.0000   1.0000
     1.0000   1.0000   1.0000   1.0000   1.0000   1.0000   1.0000   1.0000
[...]
             -0.116239693380390E+03
              0.453483028898199E+02
             -0.106871727185430E+03
              0.626305051664254E+03
             -0.381474580897452E+01
              0.119773653031222E+03
              0.434856927738671E+03
              0.116666369191225E+03
             -0.330326446459546E+03
             -0.535613671443967E+03
              0.301448301356154E+02
             -0.609369915932013E+03
              0.204320528814654E+03
             -0.105745036941318E+03
             -0.234679461544950E+03
              0.237806576859786E+03
              0.823112144128818E+02
              0.228804680330605E+03
              0.992062860250803E+01
              0.339654360213383E+03
             -0.576759388214867E+03
             -0.410513102301106E+02
             -0.506325022255931E+03
              0.112929525727773E+03
              0.277693179338824E+03
             -0.281508841637956E+02
             -0.184973260358145E+03
              0.415292972260526E+03
             -0.192169989138129E+03
              0.142092984188354E+03
             -0.122102663194721E+03
              0.328742902049047E+03
              0.345944427936911E+03
             -0.149727335581946E+03
              0.296627930763632E+03
              0.111367338304932E+03
             -0.299364835747138E+03
             -0.195565603243311E+03
              0.480975301320559E+03
              0.235946613544708E+03
             -0.203758285390882E+02
             -0.510034539271483E+02
              0.740738608617997E+03
              0.436790320702468E+03
              0.155338082004498E+03
             -0.466538464959817E+03
              0.747494677556361E+03
             -0.349019193973091E+03
             -0.431042763894854E+03
             -0.649526790987154E+03
              0.289585621546254E+03
             -0.583815152980318E+03
              0.263975115960660E+03
              0.426676812614082E+03
              0.303807406654496E+03
              0.773291699201244E+02
              0.201258377044736E+03
             -0.481121238784156E+03
             -0.172327659824987E+03
             -0.130868554929417E+03
              0.246896236710083E+03
              0.489272631407230E+03
              0.505667210261135E+03
              0.389931137767023E+03
             -0.894172763969864E+02
              0.124324008484421E+03
              0.692723565436654E+01
             -0.160397441039367E+03
              0.206170949926867E+03
              0.224470822290977E+03
             -0.284310737605204E+03
             -0.338081496688530E+03
             -0.133410341901591E+03
              0.351153969344130E+03
              0.168262803803088E+03
             -0.240952078018610E+03
             -0.369091154611602E+03
             -0.537395108945296E+03
              0.110728158152310E+02
              0.144234138523409E+03
             -0.202982425610080E+03
              0.751661610182747E+03
              0.364619294273307E+02
             -0.851775197533867E+03
              0.188527137625167E+03
              0.373445758825335E+03
             -0.171143348575577E+03
              0.206449427066747E+02
             -0.237137097989842E+03
              0.348363106541798E+03
              0.161112390020337E+03
             -0.445766480047228E+03
              0.530882672522107E+03
              0.149808081514386E+02
             -0.227802771968727E+03
             -0.270351469991670E+03
              0.105703932491222E+04
              0.470947252242212E+03
             -0.131263750696050E+03
              0.259322367508059E+03
             -0.462140916690084E+03
             -0.826772284784793E+02
             -0.468790407203242E+03
              0.187809547678702E+03
              0.319193035116251E+03
              0.379005364631724E+03
             -0.150963988475801E+03
              0.446017903945412E+02
              0.432769207290525E+03
              0.160213049562983E+03
              0.271276221595241E+03
              0.115490174272188E+03
             -0.778914771272005E+02
              0.116568145335086E+02
             -0.714281953426480E+02
              0.110190654703733E+03
              0.243497721181852E+02
             -0.394257289058420E+03
              0.600237540253399E+03
              0.240070898008383E+03
             -0.431252962087250E+03
             -0.320003435944162E+03
             -0.463712723250465E+03
             -0.219526008482348E+03
             -0.161496470864173E+03
             -0.358634141172300E+03
             -0.351088735762324E+03
              0.442608886510006E+03
              0.349078171231384E+03
             -0.435345395302124E+02
              0.508998058405411E+03
              0.964017619182914E+02
             -0.821603718174853E+03
              0.463471839849966E+03
              0.107071405689340E+03
              0.357402085141842E+03
              0.797842160748844E+02
              0.597634447032717E+02
              0.707931751281799E+02
              0.186099110580115E+03
             -0.340687422348078E+03
             -0.170095896754778E+03
             -0.312854656112414E+03
             -0.259776928576726E+03
              0.118368116893918E+03
             -0.297453261928725E+03
              0.139086714663547E+03
              0.184045371575214E+03
             -0.195858788962930E+03
             -0.103268854087088E+03
             -0.907773611832772E+01
              0.508581280075300E+03
              0.808381661979811E+02
              0.504251003988873E+03
              0.179416967423889E+03
             -0.651370077154347E+03
             -0.221749078519307E+03
              0.222628991118661E+03
              0.501062197590129E+03
              0.963969698539676E+02
              0.195787168116331E+03
              0.472470157624089E+03
             -0.274902586619294E+03
             -0.446280951728393E+03
              0.579714437588463E+03
              0.958992277635252E+01
             -0.614758910894864E+03
              0.206075493354411E+03
              0.406844365493312E+03
             -0.940023967864772E+02
             -0.384777484002594E+03
              0.684134689428797E+02
              0.251558858095586E+02
             -0.210580576303063E+03
              0.764276940006093E+02
             -0.656656109062747E+02
              0.905873858904622E+03
              0.249801124692179E+03
             -0.415688566806189E+03
              0.125787829870842E+03
              0.581705133126876E+03
             -0.372761995576540E+03
             -0.994065064734493E+02
             -0.329877038193356E+03
              0.263369216783090E+03
              0.111946252865463E+03
              0.174894220044409E+03
              0.134532715429673E+02
              0.653195382568537E+03
             -0.365319666821171E+03
             -0.277313353978839E+03
             -0.306032859579185E+03
              0.263114363387751E+03
              0.628375361741674E+03
             -0.794931216961970E+02
              0.259577670380829E+03
             -0.351327300196988E+03
              0.352427498505899E+02
             -0.104069349264371E+03
             -0.349671432823156E+02
             -0.149591619581061E+03
             -0.137677054734110E+03
             -0.101567584940999E+03
              0.108595359413426E+03
              0.183091803377599E+03
             -0.421620074752100E+03
              0.306405925239505E+03
             -0.495223365167215E+03
              0.369842282647338E+03
             -0.429380825237525E+03
              0.649683077846031E+03
              0.346371283002515E+03
              0.386497671207697E+03
              0.885056058208211E+02
              0.993240001681779E+02
             -0.871794887270538E+03
              0.149532913127493E+03
              0.396292172206140E+02
              0.684963779665104E+02
             -0.130026527779149E+03
              0.678408033314298E+03
             -0.206249602025708E+03
             -0.267946157092159E+03
             -0.672640273973230E+03
             -0.223859151395889E+03
             -0.305487820012687E+03
             -0.270907162639873E+03
             -0.742230977847826E+02
             -0.141805855971415E+03
             -0.187901647932616E+03
             -0.282525546966643E+03
              0.210566998232667E+03
              0.696003560802181E+03
              0.593516276037291E+03
             -0.118054435831190E+03
             -0.728328880458843E+03
             -0.306258815788231E+03
              0.140401972243253E+03
              0.155535325005932E+03
              0.225159117767968E+03
              0.175239862220194E+03
              0.570859364087592E+02
              0.673951030969627E+03
             -0.167196829011121E+03
              0.341982607852992E+03
              0.156995151814860E+03
             -0.220676123710391E+03
             -0.138792431187306E+03
              0.311577127598485E+03
             -0.180469500012735E+03
             -0.128106735005394E+03
             -0.831102332553983E+02
              0.389336259334574E+03
             -0.521756686887484E+03
             -0.574394887360527E+02
             -0.427232514856300E+03
             -0.923752802932325E+03
              0.342954051206289E+01
             -0.114372868333009E+03
              0.317250552043805E+03
              0.377163162402765E+03
              0.517368414926999E+03
             -0.340311924298484E+03
              0.553564927029481E+03
              0.144764960876169E+03
             -0.165118323185180E+03
              0.999667553323004E+02
             -0.175775367602686E+03
             -0.122994639664435E+03
              0.281896519543421E+03
             -0.274808664508630E+03
              0.668579712570609E+03
             -0.170969716950760E+03
             -0.357588341868478E+03
              0.680481588954184E+03
             -0.382342012116077E+03
             -0.566374437501390E+02
              0.694845062072454E+02
              0.211055441244844E+03
             -0.311718687066401E+03
             -0.233497122316789E+03
              0.354849234470851E+03
             -0.575547663467696E+03
              0.422666355602015E+03
              0.552814032250881E+02
              0.330171861039730E+03
              0.457732605427479E+03
              0.115292931526284E+03
             -0.602453503277112E+03
             -0.266058979571490E+03
             -0.445318258259336E+03
             -0.279218527046225E+03
             -0.918715734206271E+02
              0.109473994003985E+03
             -0.208924618219648E+03
              0.146768106530390E+02
             -0.677352251537714E+03
              0.167825152299001E+02
             -0.428121777734427E+03
              0.420532945222972E+03
             -0.226082439332082E+03
             -0.444393423850353E+02
              0.302668960970998E+03
              0.324943523157945E+02
              0.301285746079781E+03
             -0.539955981902345E+03
              0.118433649725423E+03
              0.372553534837460E+02
              0.217072381902603E+03
              0.389768839503034E+03
             -0.681508256103552E+02
             -0.427481873525289E+03
             -0.244651666281431E+03
             -0.168966329458816E+03
             -0.822232878983386E+02
              0.403178673477018E+03
              0.248232790976344E+03
             -0.259326830149538E+03
             -0.236468273714953E+03
              0.195373488940078E+03
              0.191258994989304E+03
             -0.530065026896813E+03
              0.148451132370341E+03
              0.388945668315874E+03
             -0.191220118570506E+02
              0.455726020086853E+03
              0.231148040861550E+03
              0.364221066546633E+03
              0.553118074406337E+03
              0.907361324771185E+02
             -0.773432853832609E+03
              0.794386178894114E+02
              0.857879085385058E+03
              0.617241902743394E+03
             -0.413843988470852E+03
              0.412517941087241E+02
              0.537103069266572E+03
              0.488218540475858E+03
              0.232251553612472E+03
             -0.123085832457747E+03
              0.222519059975027E+03
              0.467489059409277E+03
             -0.208944310707417E+03
             -0.149622940266258E+03
              0.291794885194903E+03
             -0.209513873523117E+02
              0.273860729032745E+03
             -0.684464492988485E+02
              0.564723970059737E+03
             -0.215243642088672E+03
              0.128858563303234E+03
             -0.263161763618273E+03
              0.266749342173090E+03
             -0.352733322249783E+02
              0.421497794986292E+03
              0.294839470733082E+02
              0.166454303006104E+03
             -0.279706791765985E+03
             -0.172068542618376E+03
             -0.812027185270651E+02
             -0.699341259076214E+02
              0.442561432133417E+03
              0.183384964799184E+03
              0.568103223393166E+03
              0.472627593002297E+03
              0.105705942032479E+03
              0.406823591916299E+01
              0.555071580038077E+03
              0.292161336598856E+03
              0.790717657534879E+01
              0.493143973784004E+03
             -0.442488247470278E+03
              0.145206721879598E+03
             -0.278252881385483E+03
             -0.111439849667191E+03
              0.710127152160635E+03
             -0.108748259379439E+03
             -0.525056309448610E+01
             -0.935193009349430E+02
              0.590223087749983E+03
             -0.137683142673677E+03
             -0.163740193962199E+02
              0.119153167292082E+04
             -0.385003796619478E+03
             -0.411159880979235E+03
             -0.431451381728527E+03
             -0.252938089160712E+03
              0.251801402476928E+03
             -0.107623514560137E+03
              0.697185807617388E+02
             -0.218181297903438E+02
              0.150815104250795E+03
              0.245811946622568E+03
              0.283238381663334E+03
              0.416768126331847E+03
              0.230141334721006E+03
              0.292510950744975E+03
             -0.472674499238085E+03
             -0.452395021177028E+03
             -0.114517512389857E+03
             -0.443496180815002E+03
              0.710120417056157E+03
              0.608610307507656E+03
              0.290823284411140E+03
              0.787482867006786E+03
             -0.409858266769445E+03
             -0.167046798838729E+03
             -0.232335898640764E+03
              0.651341821024248E+03
 
 BEEF-vdW xc energy contributions
            1 :    -5969.517772814334     
            2 :     5376.490559313450     
            3 :    -4383.036260304867     
            4 :     3280.044401050942     
            5 :    -2323.394936179107     
            6 :     1636.636350683670     
            7 :    -1197.259816447724     
            8 :     899.9814906416341     
            9 :    -646.0471368413546     
           10 :     400.5030524253052     
           11 :    -190.0195278772208     
           12 :     57.39796041756836     
           13 :    -14.58924439771545     
           14 :     28.98307724923870     
           15 :    -47.51106298062587     
           16 :     34.41088369868703     
           17 :     8.220839287732815     
           18 :    -50.73173935382692     
           19 :     65.40866933795223     
           20 :    -50.12542546531949     
           21 :     28.45182103502884     
           22 :    -28.72424249980668     
           23 :     60.73960708683353     
           24 :    -108.7758573520587     
           25 :     145.0906537801293     
           26 :    -151.6074848844437     
           27 :     132.1773465673959     
           28 :    -106.7718770077618     
           29 :     93.92470902645346     
           30 :    -96.40549182030099     
           31 :    -511.6808922220653     
           32 :    -350.5737410712381     

     Writing all to output data dir ./GaN.save/
 
     init_run     :    110.04s CPU    115.32s WALL (       1 calls)
     electrons    :  20963.79s CPU  21145.65s WALL (       1 calls)
     forces       :     63.79s CPU     64.77s WALL (       1 calls)
     stress       :   1246.16s CPU   1258.78s WALL (       1 calls)

     Called by init_run:
     wfcinit      :    105.37s CPU    110.17s WALL (       1 calls)
     wfcinit:atom :      0.22s CPU      0.40s WALL (       2 calls)
     wfcinit:wfcr :    103.61s CPU    107.66s WALL (       2 calls)
     potinit      :      1.63s CPU      1.90s WALL (       1 calls)
     hinit0       :      1.23s CPU      1.31s WALL (       1 calls)

     Called by electrons:
     c_bands      :  20779.36s CPU  20958.31s WALL (       8 calls)
     sum_band     :    167.23s CPU    169.28s WALL (       8 calls)
     v_of_rho     :      7.26s CPU      7.66s WALL (       8 calls)
     v_h          :      0.07s CPU      0.07s WALL (       8 calls)
     v_xc         :     37.88s CPU     40.53s WALL (      44 calls)
     newd         :      1.52s CPU      1.61s WALL (       8 calls)
     PAW_pot      :      4.32s CPU      4.36s WALL (       8 calls)
     mix_rho      :      0.29s CPU      0.30s WALL (       8 calls)
     vdW_kernel   :      0.16s CPU      0.16s WALL (       1 calls)

     Called by c_bands:
     init_us_2    :      8.77s CPU      9.12s WALL (      38 calls)
     init_us_2:cp :      8.77s CPU      9.12s WALL (      38 calls)
     cegterg      :  16471.11s CPU  16624.33s WALL (      18 calls)

     Called by sum_band:
     sum_band:wei :      0.04s CPU      0.04s WALL (       8 calls)
     sum_band:loo :    164.68s CPU    165.97s WALL (       8 calls)
     sum_band:buf :      1.97s CPU      2.01s WALL (      16 calls)
     sum_band:ini :      4.02s CPU      4.08s WALL (      16 calls)
     sum_band:cal :    113.27s CPU    114.01s WALL (      16 calls)
     sum_band:bec :      0.96s CPU      0.97s WALL (      16 calls)
     addusdens    :      1.68s CPU      1.74s WALL (       8 calls)
     addusd:skk   :      0.32s CPU      0.33s WALL (      16 calls)
     addusd:dgemm :      0.76s CPU      0.80s WALL (      16 calls)
     addusd:qvan2 :      0.19s CPU      0.19s WALL (      16 calls)

     Called by *egterg:
     cdiaghg      :  13209.24s CPU  13296.69s WALL (     299 calls)
     cegterg:over :    708.71s CPU    725.71s WALL (     285 calls)
     cegterg:upda :    441.85s CPU    447.70s WALL (     285 calls)
     cegterg:last :    317.97s CPU    320.15s WALL (      24 calls)
     h_psi        :   1274.57s CPU   1292.83s WALL (     305 calls)
     s_psi        :    452.32s CPU    459.62s WALL (     305 calls)
     g_psi        :      1.22s CPU      1.24s WALL (     285 calls)

     Called by h_psi:
     h_psi:calbec :    477.58s CPU    481.18s WALL (     305 calls)
     vloc_psi     :    338.55s CPU    341.89s WALL (     305 calls)
     add_vuspsi   :    452.94s CPU    460.86s WALL (     305 calls)

     General routines
     calbec       :    703.38s CPU    708.43s WALL (     331 calls)
     fft          :     15.41s CPU     15.59s WALL (    2610 calls)
     ffts         :      0.13s CPU      0.13s WALL (      16 calls)
     fftw         :    353.27s CPU    356.81s WALL (  232028 calls)
     interpolate  :      0.10s CPU      0.10s WALL (       8 calls)
 
     Parallel routines

     PAW routines
     PAW_pot      :      4.32s CPU      4.36s WALL (       8 calls)
     PAW_symme    :      0.05s CPU      0.06s WALL (      15 calls)
 
     PWSCF        :      6h13m CPU      6h17m WALL

 
   This run was terminated on:  14: 3: 4  20Feb2024            

=------------------------------------------------------------------------------=
   JOB DONE.
=------------------------------------------------------------------------------=
