
     Program PWSCF v.7.1 starts on 12Feb2024 at  9:20:33 

     This program is part of the open-source Quantum ESPRESSO suite
     for quantum simulation of materials; please cite
         "P. Giannozzi et al., J. Phys.:Condens. Matter 21 395502 (2009);
         "P. Giannozzi et al., J. Phys.:Condens. Matter 29 465901 (2017);
         "P. Giannozzi et al., J. Chem. Phys. 152 154105 (2020);
          URL http://www.quantum-espresso.org", 
     in publications or presentations arising from this work. More details at
     http://www.quantum-espresso.org/quote

     Parallel version (MPI & OpenMP), running on     256 processor cores
     Number of MPI processes:               256
     Threads/MPI process:                     1

     MPI processes distributed on     2 nodes
     1996498 MiB available memory on the printing compute node when the environment starts
 
     Reading input from espresso.pwi
Warning: card &CELL ignored
Warning: card    CELL_DYNAMICS    = 'BFGS' ignored
Warning: card / ignored

     Current dimensions of program PWSCF are:
     Max number of different atomic species (ntypx) = 10
     Max number of k-points (npk) =  40000
     Max angular momentum in pseudopotentials (lmaxx) =  4
     file Ga.pbe-dn-kjpaw_psl.1.0.0.UPF: wavefunction(s)  4S renormalized
     file N.pbe-n-kjpaw_psl.1.0.0.UPF: wavefunction(s)  2S renormalized

     **************************************************************************
     Initializing libbeef V0.1.2 with the BEEF-vdW functional.
     Citation: Wellendorff et al., PRB 85, 235149 (2012).
     **************************************************************************


     IMPORTANT: XC functional enforced from input :
     Exchange-correlation= BEEF-VDW
                           (   1   4  43  14   2   0   0)
     Any further DFT definition will be discarded
     Please, verify this is what you really want

 
     K-points division:     npool     =       4
     R & G space division:  proc/nbgrp/npool/nimage =      64
     Subspace diagonalization in iterative solution of the eigenvalue problem:
     a serial algorithm will be used

 
     Parallelization info
     --------------------
     sticks:   dense  smooth     PW     G-vecs:    dense   smooth      PW
     Min         354     283     73                42160    30167    3987
     Max         356     285     74                42163    30170    3996
     Sum       22693   18145   4705              2698283  1930731  255309
 
     Using Slab Decomposition
 


     bravais-lattice index     =            4
     lattice parameter (alat)  =      30.6565  a.u.
     unit-cell volume          =   24400.9461 (a.u.)^3
     number of atoms/cell      =          299
     number of atomic types    =            2
     number of electrons       =      2687.00
     number of Kohn-Sham states=         1613
     kinetic-energy cutoff     =      70.0000  Ry
     charge density cutoff     =     350.0000  Ry
     scf convergence threshold =      1.0E-07
     mixing beta               =       0.7000
     number of iterations used =            8  plain     mixing
     energy convergence thresh.=      1.0E-04
     force convergence thresh. =      1.0E-03
     Exchange-correlation= BEEF-VDW
                           (   1   4  43  14   2   0   0)
     nstep                     =           50


     celldm(1)=  30.656540  celldm(2)=   0.000000  celldm(3)=   0.977927
     celldm(4)=   0.000000  celldm(5)=   0.000000  celldm(6)=   0.000000

     crystal axes: (cart. coord. in units of alat)
               a(1) = (   1.000000   0.000000   0.000000 )  
               a(2) = (  -0.500000   0.866025   0.000000 )  
               a(3) = (   0.000000   0.000000   0.977927 )  

     reciprocal axes: (cart. coord. in units 2 pi/alat)
               b(1) = (  1.000000  0.577350 -0.000000 )  
               b(2) = (  0.000000  1.154701  0.000000 )  
               b(3) = (  0.000000 -0.000000  1.022571 )  


     PseudoPot. # 1 for Ga read from file:
     //group///packages/espresso/pseudo/psl_1.0.0/pslibrary.1.0.0/pbe/PSEUDOPOTENTIALS/Ga.pbe-dn-kjpaw_psl.1.0.0.UPF
     MD5 check sum: cd2a01e492f15b435d17032472d8505c
     Pseudo is Projector augmented-wave + core cor, Zval = 13.0
     Generated using 'atomic' code by A. Dal Corso  v.7.1
     Shape of augmentation charge: PSQ
     Using radial grid of 1205 points,  6 beta functions with: 
                l(1) =   0
                l(2) =   0
                l(3) =   1
                l(4) =   1
                l(5) =   2
                l(6) =   2
     Q(r) pseudized with 0 coefficients 


     PseudoPot. # 2 for N  read from file:
     //group///packages/espresso/pseudo/psl_1.0.0/pslibrary.1.0.0/pbe/PSEUDOPOTENTIALS/N.pbe-n-kjpaw_psl.1.0.0.UPF
     MD5 check sum: f77f775694dac7e2c3fe1c82443d1a16
     Pseudo is Projector augmented-wave + core cor, Zval =  5.0
     Generated using 'atomic' code by A. Dal Corso  v.7.1
     Shape of augmentation charge: PSQ
     Using radial grid of 1085 points,  4 beta functions with: 
                l(1) =   0
                l(2) =   0
                l(3) =   1
                l(4) =   1
     Q(r) pseudized with 0 coefficients 


     atomic species   valence    mass     pseudopotential
        Ga            13.00    69.72300     Ga( 1.00)
        N              5.00    14.00700     N ( 1.00)

      2 Sym. Ops. (no inversion) found


                                    s                        frac. trans.

      isym =  1     identity                                     

 cryst.   s( 1) = (     1          0          0      )
                  (     0          1          0      )
                  (     0          0          1      )

 cart.    s( 1) = (  1.0000000  0.0000000  0.0000000 )
                  (  0.0000000  1.0000000  0.0000000 )
                  (  0.0000000  0.0000000  1.0000000 )


      isym =  2     inv. 180 deg rotation - cryst. axis [0,1,0]  

 cryst.   s( 2) = (     1          1          0      )
                  (     0         -1          0      )
                  (     0          0          1      )

 cart.    s( 2) = (  0.5000000  0.8660254  0.0000000 )
                  (  0.8660254 -0.5000000  0.0000000 )
                  (  0.0000000  0.0000000  1.0000000 )


     point group C_s (m)    
     there are  2 classes
     the character table:

       E     s    
A'     1.00  1.00
A''    1.00 -1.00

     the symmetry operations in each class and the name of the first element:

     E        1
          identity                                               
     s        2
          inv. 180 deg rotation - cryst. axis [0,1,0]            

   Cartesian axes

     site n.     atom                  positions (alat units)
         1           Ga  tau(   1) = (   0.1000001   0.0577350   0.4886906  )
         2           Ga  tau(   2) = (   0.1000001   0.0577350   0.8146665  )
         3           Ga  tau(   3) = (   0.0000001   0.2309401   0.1627148  )
         4           Ga  tau(   4) = (   0.0000001   0.2309401   0.4886906  )
         5           Ga  tau(   5) = (   0.0000001   0.2309401   0.8146665  )
         6           Ga  tau(   6) = (  -0.0999999   0.4041451   0.1627148  )
         7           Ga  tau(   7) = (  -0.0999999   0.4041451   0.4886906  )
         8           Ga  tau(   8) = (  -0.0999999   0.4041451   0.8146665  )
         9           Ga  tau(   9) = (  -0.1999999   0.5773502   0.1627148  )
        10           Ga  tau(  10) = (  -0.1999999   0.5773502   0.4886906  )
        11           Ga  tau(  11) = (  -0.1999999   0.5773502   0.8146665  )
        12           Ga  tau(  12) = (  -0.2999999   0.7505553   0.1627148  )
        13           Ga  tau(  13) = (  -0.2999999   0.7505553   0.4886906  )
        14           Ga  tau(  14) = (  -0.2999999   0.7505553   0.8146665  )
        15           Ga  tau(  15) = (   0.3000001   0.0577350   0.1627148  )
        16           Ga  tau(  16) = (   0.3000001   0.0577350   0.4886906  )
        17           Ga  tau(  17) = (   0.3000001   0.0577350   0.8146665  )
        18           Ga  tau(  18) = (   0.2000001   0.2309401   0.1627148  )
        19           Ga  tau(  19) = (   0.2000001   0.2309401   0.4886906  )
        20           Ga  tau(  20) = (   0.2000001   0.2309401   0.8146665  )
        21           Ga  tau(  21) = (   0.1000001   0.4041451   0.1627148  )
        22           Ga  tau(  22) = (   0.1000001   0.4041451   0.4886906  )
        23           Ga  tau(  23) = (   0.1000001   0.4041451   0.8146665  )
        24           Ga  tau(  24) = (   0.0000001   0.5773502   0.1627148  )
        25           Ga  tau(  25) = (   0.0000001   0.5773502   0.4886906  )
        26           Ga  tau(  26) = (   0.0000001   0.5773502   0.8146665  )
        27           Ga  tau(  27) = (  -0.0999999   0.7505553   0.1627148  )
        28           Ga  tau(  28) = (  -0.0999999   0.7505553   0.4886906  )
        29           Ga  tau(  29) = (  -0.0999999   0.7505553   0.8146665  )
        30           Ga  tau(  30) = (   0.5000001   0.0577350   0.1627148  )
        31           Ga  tau(  31) = (   0.5000001   0.0577350   0.4886906  )
        32           Ga  tau(  32) = (   0.5000001   0.0577350   0.8146665  )
        33           Ga  tau(  33) = (   0.4000001   0.2309401   0.1627148  )
        34           Ga  tau(  34) = (   0.4000001   0.2309401   0.4886906  )
        35           Ga  tau(  35) = (   0.4000001   0.2309401   0.8146665  )
        36           Ga  tau(  36) = (   0.3000001   0.4041451   0.1627148  )
        37           Ga  tau(  37) = (   0.3000001   0.4041451   0.4886906  )
        38           Ga  tau(  38) = (   0.3000001   0.4041451   0.8146665  )
        39           Ga  tau(  39) = (   0.2000001   0.5773502   0.1627148  )
        40           Ga  tau(  40) = (   0.2000001   0.5773502   0.4886906  )
        41           Ga  tau(  41) = (   0.2000001   0.5773502   0.8146665  )
        42           Ga  tau(  42) = (   0.1000001   0.7505553   0.1627148  )
        43           Ga  tau(  43) = (   0.1000001   0.7505553   0.4886906  )
        44           Ga  tau(  44) = (   0.1000001   0.7505553   0.8146665  )
        45           Ga  tau(  45) = (   0.7000001   0.0577350   0.1627148  )
        46           Ga  tau(  46) = (   0.7000001   0.0577350   0.4886906  )
        47           Ga  tau(  47) = (   0.7000001   0.0577350   0.8146665  )
        48           Ga  tau(  48) = (   0.6000001   0.2309401   0.1627148  )
        49           Ga  tau(  49) = (   0.6000001   0.2309401   0.4886906  )
        50           Ga  tau(  50) = (   0.6000001   0.2309401   0.8146665  )
        51           Ga  tau(  51) = (   0.5000001   0.4041451   0.1627148  )
        52           Ga  tau(  52) = (   0.5000001   0.4041451   0.4886906  )
        53           Ga  tau(  53) = (   0.5000001   0.4041451   0.8146665  )
        54           Ga  tau(  54) = (   0.4000001   0.5773502   0.1627148  )
        55           Ga  tau(  55) = (   0.4000001   0.5773502   0.4886906  )
        56           Ga  tau(  56) = (   0.4000001   0.5773502   0.8146665  )
        57           Ga  tau(  57) = (   0.3000001   0.7505553   0.1627148  )
        58           Ga  tau(  58) = (   0.3000001   0.7505553   0.4886906  )
        59           Ga  tau(  59) = (   0.3000001   0.7505553   0.8146665  )
        60           Ga  tau(  60) = (   0.9000001   0.0577350   0.1627148  )
        61           Ga  tau(  61) = (   0.9000001   0.0577350   0.4886906  )
        62           Ga  tau(  62) = (   0.9000001   0.0577350   0.8146665  )
        63           Ga  tau(  63) = (   0.8000001   0.2309401   0.1627148  )
        64           Ga  tau(  64) = (   0.8000001   0.2309401   0.4886906  )
        65           Ga  tau(  65) = (   0.8000001   0.2309401   0.8146665  )
        66           Ga  tau(  66) = (   0.7000001   0.4041451   0.1627148  )
        67           Ga  tau(  67) = (   0.7000001   0.4041451   0.4886906  )
        68           Ga  tau(  68) = (   0.7000001   0.4041451   0.8146665  )
        69           Ga  tau(  69) = (   0.6000001   0.5773502   0.1627148  )
        70           Ga  tau(  70) = (   0.6000001   0.5773502   0.4886906  )
        71           Ga  tau(  71) = (   0.6000001   0.5773502   0.8146665  )
        72           Ga  tau(  72) = (   0.5000001   0.7505553   0.1627148  )
        73           Ga  tau(  73) = (   0.5000001   0.7505553   0.4886906  )
        74           Ga  tau(  74) = (   0.5000001   0.7505553   0.8146665  )
        75           Ga  tau(  75) = (  -0.0000001   0.1154701   0.3257027  )
        76           Ga  tau(  76) = (  -0.0000001   0.1154701   0.6516786  )
        77           Ga  tau(  77) = (  -0.0000001   0.1154701   0.9776544  )
        78           Ga  tau(  78) = (  -0.1000001   0.2886752   0.3257027  )
        79           Ga  tau(  79) = (  -0.1000001   0.2886752   0.6516786  )
        80           Ga  tau(  80) = (  -0.1000001   0.2886752   0.9776544  )
        81           Ga  tau(  81) = (  -0.2000001   0.4618803   0.3257027  )
        82           Ga  tau(  82) = (  -0.2000001   0.4618803   0.6516786  )
        83           Ga  tau(  83) = (  -0.2000001   0.4618803   0.9776544  )
        84           Ga  tau(  84) = (  -0.3000001   0.6350854   0.3257027  )
        85           Ga  tau(  85) = (  -0.3000001   0.6350854   0.6516786  )
        86           Ga  tau(  86) = (  -0.3000001   0.6350854   0.9776544  )
        87           Ga  tau(  87) = (  -0.4000001   0.8082905   0.3257027  )
        88           Ga  tau(  88) = (  -0.4000001   0.8082905   0.6516786  )
        89           Ga  tau(  89) = (  -0.4000001   0.8082905   0.9776544  )
        90           Ga  tau(  90) = (   0.1999999   0.1154701   0.3257027  )
        91           Ga  tau(  91) = (   0.1999999   0.1154701   0.6516786  )
        92           Ga  tau(  92) = (   0.1999999   0.1154701   0.9776544  )
        93           Ga  tau(  93) = (   0.0999999   0.2886752   0.3257027  )
        94           Ga  tau(  94) = (   0.0999999   0.2886752   0.6516786  )
        95           Ga  tau(  95) = (   0.0999999   0.2886752   0.9776544  )
        96           Ga  tau(  96) = (  -0.0000001   0.4618803   0.3257027  )
        97           Ga  tau(  97) = (  -0.0000001   0.4618803   0.6516786  )
        98           Ga  tau(  98) = (  -0.0000001   0.4618803   0.9776544  )
        99           Ga  tau(  99) = (  -0.1000001   0.6350854   0.3257027  )
       100           Ga  tau( 100) = (  -0.1000001   0.6350854   0.6516786  )
       101           Ga  tau( 101) = (  -0.1000001   0.6350854   0.9776544  )
       102           Ga  tau( 102) = (  -0.2000001   0.8082905   0.3257027  )
       103           Ga  tau( 103) = (  -0.2000001   0.8082905   0.6516786  )
       104           Ga  tau( 104) = (  -0.2000001   0.8082905   0.9776544  )
       105           Ga  tau( 105) = (   0.3999999   0.1154701   0.3257027  )
       106           Ga  tau( 106) = (   0.3999999   0.1154701   0.6516786  )
       107           Ga  tau( 107) = (   0.3999999   0.1154701   0.9776544  )
       108           Ga  tau( 108) = (   0.2999999   0.2886752   0.3257027  )
       109           Ga  tau( 109) = (   0.2999999   0.2886752   0.6516786  )
       110           Ga  tau( 110) = (   0.2999999   0.2886752   0.9776544  )
       111           Ga  tau( 111) = (   0.1999999   0.4618803   0.3257027  )
       112           Ga  tau( 112) = (   0.1999999   0.4618803   0.6516786  )
       113           Ga  tau( 113) = (   0.1999999   0.4618803   0.9776544  )
       114           Ga  tau( 114) = (   0.0999999   0.6350854   0.3257027  )
       115           Ga  tau( 115) = (   0.0999999   0.6350854   0.6516786  )
       116           Ga  tau( 116) = (   0.0999999   0.6350854   0.9776544  )
       117           Ga  tau( 117) = (  -0.0000001   0.8082905   0.3257027  )
       118           Ga  tau( 118) = (  -0.0000001   0.8082905   0.6516786  )
       119           Ga  tau( 119) = (  -0.0000001   0.8082905   0.9776544  )
       120           Ga  tau( 120) = (   0.5999999   0.1154701   0.3257027  )
       121           Ga  tau( 121) = (   0.5999999   0.1154701   0.6516786  )
       122           Ga  tau( 122) = (   0.5999999   0.1154701   0.9776544  )
       123           Ga  tau( 123) = (   0.4999999   0.2886752   0.3257027  )
       124           Ga  tau( 124) = (   0.4999999   0.2886752   0.6516786  )
       125           Ga  tau( 125) = (   0.4999999   0.2886752   0.9776544  )
       126           Ga  tau( 126) = (   0.3999999   0.4618803   0.3257027  )
       127           Ga  tau( 127) = (   0.3999999   0.4618803   0.6516786  )
       128           Ga  tau( 128) = (   0.3999999   0.4618803   0.9776544  )
       129           Ga  tau( 129) = (   0.2999999   0.6350854   0.3257027  )
       130           Ga  tau( 130) = (   0.2999999   0.6350854   0.6516786  )
       131           Ga  tau( 131) = (   0.2999999   0.6350854   0.9776544  )
       132           Ga  tau( 132) = (   0.1999999   0.8082905   0.3257027  )
       133           Ga  tau( 133) = (   0.1999999   0.8082905   0.6516786  )
       134           Ga  tau( 134) = (   0.1999999   0.8082905   0.9776544  )
       135           Ga  tau( 135) = (   0.7999999   0.1154701   0.3257027  )
       136           Ga  tau( 136) = (   0.7999999   0.1154701   0.6516786  )
       137           Ga  tau( 137) = (   0.7999999   0.1154701   0.9776544  )
       138           Ga  tau( 138) = (   0.6999999   0.2886752   0.3257027  )
       139           Ga  tau( 139) = (   0.6999999   0.2886752   0.6516786  )
       140           Ga  tau( 140) = (   0.6999999   0.2886752   0.9776544  )
       141           Ga  tau( 141) = (   0.5999999   0.4618803   0.3257027  )
       142           Ga  tau( 142) = (   0.5999999   0.4618803   0.6516786  )
       143           Ga  tau( 143) = (   0.5999999   0.4618803   0.9776544  )
       144           Ga  tau( 144) = (   0.4999999   0.6350854   0.3257027  )
       145           Ga  tau( 145) = (   0.4999999   0.6350854   0.6516786  )
       146           Ga  tau( 146) = (   0.4999999   0.6350854   0.9776544  )
       147           Ga  tau( 147) = (   0.3999999   0.8082905   0.3257027  )
       148           Ga  tau( 148) = (   0.3999999   0.8082905   0.6516786  )
       149           Ga  tau( 149) = (   0.3999999   0.8082905   0.9776544  )
       150           N   tau( 150) = (   0.1000001   0.0577350   0.2855019  )
       151           N   tau( 151) = (   0.1000001   0.0577350   0.6114777  )
       152           N   tau( 152) = (   0.1000001   0.0577350   0.9374535  )
       153           N   tau( 153) = (   0.0000001   0.2309401   0.2855019  )
       154           N   tau( 154) = (   0.0000001   0.2309401   0.6114777  )
       155           N   tau( 155) = (   0.0000001   0.2309401   0.9374535  )
       156           N   tau( 156) = (  -0.0999999   0.4041451   0.2855019  )
       157           N   tau( 157) = (  -0.0999999   0.4041451   0.6114777  )
       158           N   tau( 158) = (  -0.0999999   0.4041451   0.9374535  )
       159           N   tau( 159) = (  -0.1999999   0.5773502   0.2855019  )
       160           N   tau( 160) = (  -0.1999999   0.5773502   0.6114777  )
       161           N   tau( 161) = (  -0.1999999   0.5773502   0.9374535  )
       162           N   tau( 162) = (  -0.2999999   0.7505553   0.2855019  )
       163           N   tau( 163) = (  -0.2999999   0.7505553   0.6114777  )
       164           N   tau( 164) = (  -0.2999999   0.7505553   0.9374535  )
       165           N   tau( 165) = (   0.3000001   0.0577350   0.2855019  )
       166           N   tau( 166) = (   0.3000001   0.0577350   0.6114777  )
       167           N   tau( 167) = (   0.3000001   0.0577350   0.9374535  )
       168           N   tau( 168) = (   0.2000001   0.2309401   0.2855019  )
       169           N   tau( 169) = (   0.2000001   0.2309401   0.6114777  )
       170           N   tau( 170) = (   0.2000001   0.2309401   0.9374535  )
       171           N   tau( 171) = (   0.1000001   0.4041451   0.2855019  )
       172           N   tau( 172) = (   0.1000001   0.4041451   0.6114777  )
       173           N   tau( 173) = (   0.1000001   0.4041451   0.9374535  )
       174           N   tau( 174) = (   0.0000001   0.5773502   0.2855019  )
       175           N   tau( 175) = (   0.0000001   0.5773502   0.6114777  )
       176           N   tau( 176) = (   0.0000001   0.5773502   0.9374535  )
       177           N   tau( 177) = (  -0.0999999   0.7505553   0.2855019  )
       178           N   tau( 178) = (  -0.0999999   0.7505553   0.6114777  )
       179           N   tau( 179) = (  -0.0999999   0.7505553   0.9374535  )
       180           N   tau( 180) = (   0.5000001   0.0577350   0.2855019  )
       181           N   tau( 181) = (   0.5000001   0.0577350   0.6114777  )
       182           N   tau( 182) = (   0.5000001   0.0577350   0.9374535  )
       183           N   tau( 183) = (   0.4000001   0.2309401   0.2855019  )
       184           N   tau( 184) = (   0.4000001   0.2309401   0.6114777  )
       185           N   tau( 185) = (   0.4000001   0.2309401   0.9374535  )
       186           N   tau( 186) = (   0.3000001   0.4041451   0.2855019  )
       187           N   tau( 187) = (   0.3000001   0.4041451   0.6114777  )
       188           N   tau( 188) = (   0.3000001   0.4041451   0.9374535  )
       189           N   tau( 189) = (   0.2000001   0.5773502   0.2855019  )
       190           N   tau( 190) = (   0.2000001   0.5773502   0.6114777  )
       191           N   tau( 191) = (   0.2000001   0.5773502   0.9374535  )
       192           N   tau( 192) = (   0.1000001   0.7505553   0.2855019  )
       193           N   tau( 193) = (   0.1000001   0.7505553   0.6114777  )
       194           N   tau( 194) = (   0.1000001   0.7505553   0.9374535  )
       195           N   tau( 195) = (   0.7000001   0.0577350   0.2855019  )
       196           N   tau( 196) = (   0.7000001   0.0577350   0.6114777  )
       197           N   tau( 197) = (   0.7000001   0.0577350   0.9374535  )
       198           N   tau( 198) = (   0.6000001   0.2309401   0.2855019  )
       199           N   tau( 199) = (   0.6000001   0.2309401   0.6114777  )
       200           N   tau( 200) = (   0.6000001   0.2309401   0.9374535  )
       201           N   tau( 201) = (   0.5000001   0.4041451   0.2855019  )
       202           N   tau( 202) = (   0.5000001   0.4041451   0.6114777  )
       203           N   tau( 203) = (   0.5000001   0.4041451   0.9374535  )
       204           N   tau( 204) = (   0.4000001   0.5773502   0.2855019  )
       205           N   tau( 205) = (   0.4000001   0.5773502   0.6114777  )
       206           N   tau( 206) = (   0.4000001   0.5773502   0.9374535  )
       207           N   tau( 207) = (   0.3000001   0.7505553   0.2855019  )
       208           N   tau( 208) = (   0.3000001   0.7505553   0.6114777  )
       209           N   tau( 209) = (   0.3000001   0.7505553   0.9374535  )
       210           N   tau( 210) = (   0.9000001   0.0577350   0.2855019  )
       211           N   tau( 211) = (   0.9000001   0.0577350   0.6114777  )
       212           N   tau( 212) = (   0.9000001   0.0577350   0.9374535  )
       213           N   tau( 213) = (   0.8000001   0.2309401   0.2855019  )
       214           N   tau( 214) = (   0.8000001   0.2309401   0.6114777  )
       215           N   tau( 215) = (   0.8000001   0.2309401   0.9374535  )
       216           N   tau( 216) = (   0.7000001   0.4041451   0.2855019  )
       217           N   tau( 217) = (   0.7000001   0.4041451   0.6114777  )
       218           N   tau( 218) = (   0.7000001   0.4041451   0.9374535  )
       219           N   tau( 219) = (   0.6000001   0.5773502   0.2855019  )
       220           N   tau( 220) = (   0.6000001   0.5773502   0.6114777  )
       221           N   tau( 221) = (   0.6000001   0.5773502   0.9374535  )
       222           N   tau( 222) = (   0.5000001   0.7505553   0.2855019  )
       223           N   tau( 223) = (   0.5000001   0.7505553   0.6114777  )
       224           N   tau( 224) = (   0.5000001   0.7505553   0.9374535  )
       225           N   tau( 225) = (  -0.0000001   0.1154701   0.1225140  )
       226           N   tau( 226) = (  -0.0000001   0.1154701   0.4484898  )
       227           N   tau( 227) = (  -0.0000001   0.1154701   0.7744656  )
       228           N   tau( 228) = (  -0.1000001   0.2886752   0.1225140  )
       229           N   tau( 229) = (  -0.1000001   0.2886752   0.4484898  )
       230           N   tau( 230) = (  -0.1000001   0.2886752   0.7744656  )
       231           N   tau( 231) = (  -0.2000001   0.4618803   0.1225140  )
       232           N   tau( 232) = (  -0.2000001   0.4618803   0.4484898  )
       233           N   tau( 233) = (  -0.2000001   0.4618803   0.7744656  )
       234           N   tau( 234) = (  -0.3000001   0.6350854   0.1225140  )
       235           N   tau( 235) = (  -0.3000001   0.6350854   0.4484898  )
       236           N   tau( 236) = (  -0.3000001   0.6350854   0.7744656  )
       237           N   tau( 237) = (  -0.4000001   0.8082905   0.1225140  )
       238           N   tau( 238) = (  -0.4000001   0.8082905   0.4484898  )
       239           N   tau( 239) = (  -0.4000001   0.8082905   0.7744656  )
       240           N   tau( 240) = (   0.1999999   0.1154701   0.1225140  )
       241           N   tau( 241) = (   0.1999999   0.1154701   0.4484898  )
       242           N   tau( 242) = (   0.1999999   0.1154701   0.7744656  )
       243           N   tau( 243) = (   0.0999999   0.2886752   0.1225140  )
       244           N   tau( 244) = (   0.0999999   0.2886752   0.4484898  )
       245           N   tau( 245) = (   0.0999999   0.2886752   0.7744656  )
       246           N   tau( 246) = (  -0.0000001   0.4618803   0.1225140  )
       247           N   tau( 247) = (  -0.0000001   0.4618803   0.4484898  )
       248           N   tau( 248) = (  -0.0000001   0.4618803   0.7744656  )
       249           N   tau( 249) = (  -0.1000001   0.6350854   0.1225140  )
       250           N   tau( 250) = (  -0.1000001   0.6350854   0.4484898  )
       251           N   tau( 251) = (  -0.1000001   0.6350854   0.7744656  )
       252           N   tau( 252) = (  -0.2000001   0.8082905   0.1225140  )
       253           N   tau( 253) = (  -0.2000001   0.8082905   0.4484898  )
       254           N   tau( 254) = (  -0.2000001   0.8082905   0.7744656  )
       255           N   tau( 255) = (   0.3999999   0.1154701   0.1225140  )
       256           N   tau( 256) = (   0.3999999   0.1154701   0.4484898  )
       257           N   tau( 257) = (   0.3999999   0.1154701   0.7744656  )
       258           N   tau( 258) = (   0.2999999   0.2886752   0.1225140  )
       259           N   tau( 259) = (   0.2999999   0.2886752   0.4484898  )
       260           N   tau( 260) = (   0.2999999   0.2886752   0.7744656  )
       261           N   tau( 261) = (   0.1999999   0.4618803   0.1225140  )
       262           N   tau( 262) = (   0.1999999   0.4618803   0.4484898  )
       263           N   tau( 263) = (   0.1999999   0.4618803   0.7744656  )
       264           N   tau( 264) = (   0.0999999   0.6350854   0.1225140  )
       265           N   tau( 265) = (   0.0999999   0.6350854   0.4484898  )
       266           N   tau( 266) = (   0.0999999   0.6350854   0.7744656  )
       267           N   tau( 267) = (  -0.0000001   0.8082905   0.1225140  )
       268           N   tau( 268) = (  -0.0000001   0.8082905   0.4484898  )
       269           N   tau( 269) = (  -0.0000001   0.8082905   0.7744656  )
       270           N   tau( 270) = (   0.5999999   0.1154701   0.1225140  )
       271           N   tau( 271) = (   0.5999999   0.1154701   0.4484898  )
       272           N   tau( 272) = (   0.5999999   0.1154701   0.7744656  )
       273           N   tau( 273) = (   0.4999999   0.2886752   0.1225140  )
       274           N   tau( 274) = (   0.4999999   0.2886752   0.4484898  )
       275           N   tau( 275) = (   0.4999999   0.2886752   0.7744656  )
       276           N   tau( 276) = (   0.3999999   0.4618803   0.1225140  )
       277           N   tau( 277) = (   0.3999999   0.4618803   0.4484898  )
       278           N   tau( 278) = (   0.3999999   0.4618803   0.7744656  )
       279           N   tau( 279) = (   0.2999999   0.6350854   0.1225140  )
       280           N   tau( 280) = (   0.2999999   0.6350854   0.4484898  )
       281           N   tau( 281) = (   0.2999999   0.6350854   0.7744656  )
       282           N   tau( 282) = (   0.1999999   0.8082905   0.1225140  )
       283           N   tau( 283) = (   0.1999999   0.8082905   0.4484898  )
       284           N   tau( 284) = (   0.1999999   0.8082905   0.7744656  )
       285           N   tau( 285) = (   0.7999999   0.1154701   0.1225140  )
       286           N   tau( 286) = (   0.7999999   0.1154701   0.4484898  )
       287           N   tau( 287) = (   0.7999999   0.1154701   0.7744656  )
       288           N   tau( 288) = (   0.6999999   0.2886752   0.1225140  )
       289           N   tau( 289) = (   0.6999999   0.2886752   0.4484898  )
       290           N   tau( 290) = (   0.6999999   0.2886752   0.7744656  )
       291           N   tau( 291) = (   0.5999999   0.4618803   0.1225140  )
       292           N   tau( 292) = (   0.5999999   0.4618803   0.4484898  )
       293           N   tau( 293) = (   0.5999999   0.4618803   0.7744656  )
       294           N   tau( 294) = (   0.4999999   0.6350854   0.1225140  )
       295           N   tau( 295) = (   0.4999999   0.6350854   0.4484898  )
       296           N   tau( 296) = (   0.4999999   0.6350854   0.7744656  )
       297           N   tau( 297) = (   0.3999999   0.8082905   0.1225140  )
       298           N   tau( 298) = (   0.3999999   0.8082905   0.4484898  )
       299           N   tau( 299) = (   0.3999999   0.8082905   0.7744656  )

   Crystallographic axes

     site n.     atom                  positions (cryst. coord.)
         1           Ga  tau(   1) = (  0.1333334  0.0666666  0.4997208  )
         2           Ga  tau(   2) = (  0.1333334  0.0666666  0.8330541  )
         3           Ga  tau(   3) = (  0.1333334  0.2666666  0.1663874  )
         4           Ga  tau(   4) = (  0.1333334  0.2666666  0.4997208  )
         5           Ga  tau(   5) = (  0.1333334  0.2666666  0.8330541  )
         6           Ga  tau(   6) = (  0.1333334  0.4666666  0.1663874  )
         7           Ga  tau(   7) = (  0.1333334  0.4666666  0.4997208  )
         8           Ga  tau(   8) = (  0.1333334  0.4666666  0.8330541  )
         9           Ga  tau(   9) = (  0.1333334  0.6666666  0.1663874  )
        10           Ga  tau(  10) = (  0.1333334  0.6666666  0.4997208  )
        11           Ga  tau(  11) = (  0.1333334  0.6666666  0.8330541  )
        12           Ga  tau(  12) = (  0.1333334  0.8666666  0.1663874  )
        13           Ga  tau(  13) = (  0.1333334  0.8666666  0.4997208  )
        14           Ga  tau(  14) = (  0.1333334  0.8666666  0.8330541  )
        15           Ga  tau(  15) = (  0.3333334  0.0666666  0.1663874  )
        16           Ga  tau(  16) = (  0.3333334  0.0666666  0.4997208  )
        17           Ga  tau(  17) = (  0.3333334  0.0666666  0.8330541  )
        18           Ga  tau(  18) = (  0.3333334  0.2666666  0.1663874  )
        19           Ga  tau(  19) = (  0.3333334  0.2666666  0.4997208  )
        20           Ga  tau(  20) = (  0.3333334  0.2666666  0.8330541  )
        21           Ga  tau(  21) = (  0.3333334  0.4666666  0.1663874  )
        22           Ga  tau(  22) = (  0.3333334  0.4666666  0.4997208  )
        23           Ga  tau(  23) = (  0.3333334  0.4666666  0.8330541  )
        24           Ga  tau(  24) = (  0.3333334  0.6666666  0.1663874  )
        25           Ga  tau(  25) = (  0.3333334  0.6666666  0.4997208  )
        26           Ga  tau(  26) = (  0.3333334  0.6666666  0.8330541  )
        27           Ga  tau(  27) = (  0.3333334  0.8666666  0.1663874  )
        28           Ga  tau(  28) = (  0.3333334  0.8666666  0.4997208  )
        29           Ga  tau(  29) = (  0.3333334  0.8666666  0.8330541  )
        30           Ga  tau(  30) = (  0.5333334  0.0666666  0.1663874  )
        31           Ga  tau(  31) = (  0.5333334  0.0666666  0.4997208  )
        32           Ga  tau(  32) = (  0.5333334  0.0666666  0.8330541  )
        33           Ga  tau(  33) = (  0.5333334  0.2666666  0.1663874  )
        34           Ga  tau(  34) = (  0.5333334  0.2666666  0.4997208  )
        35           Ga  tau(  35) = (  0.5333334  0.2666666  0.8330541  )
        36           Ga  tau(  36) = (  0.5333334  0.4666666  0.1663874  )
        37           Ga  tau(  37) = (  0.5333334  0.4666666  0.4997208  )
        38           Ga  tau(  38) = (  0.5333334  0.4666666  0.8330541  )
        39           Ga  tau(  39) = (  0.5333334  0.6666666  0.1663874  )
        40           Ga  tau(  40) = (  0.5333334  0.6666666  0.4997208  )
        41           Ga  tau(  41) = (  0.5333334  0.6666666  0.8330541  )
        42           Ga  tau(  42) = (  0.5333334  0.8666666  0.1663874  )
        43           Ga  tau(  43) = (  0.5333334  0.8666666  0.4997208  )
        44           Ga  tau(  44) = (  0.5333334  0.8666666  0.8330541  )
        45           Ga  tau(  45) = (  0.7333334  0.0666666  0.1663874  )
        46           Ga  tau(  46) = (  0.7333334  0.0666666  0.4997208  )
        47           Ga  tau(  47) = (  0.7333334  0.0666666  0.8330541  )
        48           Ga  tau(  48) = (  0.7333334  0.2666666  0.1663874  )
        49           Ga  tau(  49) = (  0.7333334  0.2666666  0.4997208  )
        50           Ga  tau(  50) = (  0.7333334  0.2666666  0.8330541  )
        51           Ga  tau(  51) = (  0.7333334  0.4666666  0.1663874  )
        52           Ga  tau(  52) = (  0.7333334  0.4666666  0.4997208  )
        53           Ga  tau(  53) = (  0.7333334  0.4666666  0.8330541  )
        54           Ga  tau(  54) = (  0.7333334  0.6666666  0.1663874  )
        55           Ga  tau(  55) = (  0.7333334  0.6666666  0.4997208  )
        56           Ga  tau(  56) = (  0.7333334  0.6666666  0.8330541  )
        57           Ga  tau(  57) = (  0.7333334  0.8666666  0.1663874  )
        58           Ga  tau(  58) = (  0.7333334  0.8666666  0.4997208  )
        59           Ga  tau(  59) = (  0.7333334  0.8666666  0.8330541  )
        60           Ga  tau(  60) = (  0.9333334  0.0666666  0.1663874  )
        61           Ga  tau(  61) = (  0.9333334  0.0666666  0.4997208  )
        62           Ga  tau(  62) = (  0.9333334  0.0666666  0.8330541  )
        63           Ga  tau(  63) = (  0.9333334  0.2666666  0.1663874  )
        64           Ga  tau(  64) = (  0.9333334  0.2666666  0.4997208  )
        65           Ga  tau(  65) = (  0.9333334  0.2666666  0.8330541  )
        66           Ga  tau(  66) = (  0.9333334  0.4666666  0.1663874  )
        67           Ga  tau(  67) = (  0.9333334  0.4666666  0.4997208  )
        68           Ga  tau(  68) = (  0.9333334  0.4666666  0.8330541  )
        69           Ga  tau(  69) = (  0.9333334  0.6666666  0.1663874  )
        70           Ga  tau(  70) = (  0.9333334  0.6666666  0.4997208  )
        71           Ga  tau(  71) = (  0.9333334  0.6666666  0.8330541  )
        72           Ga  tau(  72) = (  0.9333334  0.8666666  0.1663874  )
        73           Ga  tau(  73) = (  0.9333334  0.8666666  0.4997208  )
        74           Ga  tau(  74) = (  0.9333334  0.8666666  0.8330541  )
        75           Ga  tau(  75) = (  0.0666666  0.1333334  0.3330541  )
        76           Ga  tau(  76) = (  0.0666666  0.1333334  0.6663874  )
        77           Ga  tau(  77) = (  0.0666666  0.1333334  0.9997208  )
        78           Ga  tau(  78) = (  0.0666666  0.3333334  0.3330541  )
        79           Ga  tau(  79) = (  0.0666666  0.3333334  0.6663874  )
        80           Ga  tau(  80) = (  0.0666666  0.3333334  0.9997208  )
        81           Ga  tau(  81) = (  0.0666666  0.5333334  0.3330541  )
        82           Ga  tau(  82) = (  0.0666666  0.5333334  0.6663874  )
        83           Ga  tau(  83) = (  0.0666666  0.5333334  0.9997208  )
        84           Ga  tau(  84) = (  0.0666666  0.7333334  0.3330541  )
        85           Ga  tau(  85) = (  0.0666666  0.7333334  0.6663874  )
        86           Ga  tau(  86) = (  0.0666666  0.7333334  0.9997208  )
        87           Ga  tau(  87) = (  0.0666666  0.9333334  0.3330541  )
        88           Ga  tau(  88) = (  0.0666666  0.9333334  0.6663874  )
        89           Ga  tau(  89) = (  0.0666666  0.9333334  0.9997208  )
        90           Ga  tau(  90) = (  0.2666666  0.1333334  0.3330541  )
        91           Ga  tau(  91) = (  0.2666666  0.1333334  0.6663874  )
        92           Ga  tau(  92) = (  0.2666666  0.1333334  0.9997208  )
        93           Ga  tau(  93) = (  0.2666666  0.3333334  0.3330541  )
        94           Ga  tau(  94) = (  0.2666666  0.3333334  0.6663874  )
        95           Ga  tau(  95) = (  0.2666666  0.3333334  0.9997208  )
        96           Ga  tau(  96) = (  0.2666666  0.5333334  0.3330541  )
        97           Ga  tau(  97) = (  0.2666666  0.5333334  0.6663874  )
        98           Ga  tau(  98) = (  0.2666666  0.5333334  0.9997208  )
        99           Ga  tau(  99) = (  0.2666666  0.7333334  0.3330541  )
       100           Ga  tau( 100) = (  0.2666666  0.7333334  0.6663874  )
       101           Ga  tau( 101) = (  0.2666666  0.7333334  0.9997208  )
       102           Ga  tau( 102) = (  0.2666666  0.9333334  0.3330541  )
       103           Ga  tau( 103) = (  0.2666666  0.9333334  0.6663874  )
       104           Ga  tau( 104) = (  0.2666666  0.9333334  0.9997208  )
       105           Ga  tau( 105) = (  0.4666666  0.1333334  0.3330541  )
       106           Ga  tau( 106) = (  0.4666666  0.1333334  0.6663874  )
       107           Ga  tau( 107) = (  0.4666666  0.1333334  0.9997208  )
       108           Ga  tau( 108) = (  0.4666666  0.3333334  0.3330541  )
       109           Ga  tau( 109) = (  0.4666666  0.3333334  0.6663874  )
       110           Ga  tau( 110) = (  0.4666666  0.3333334  0.9997208  )
       111           Ga  tau( 111) = (  0.4666666  0.5333334  0.3330541  )
       112           Ga  tau( 112) = (  0.4666666  0.5333334  0.6663874  )
       113           Ga  tau( 113) = (  0.4666666  0.5333334  0.9997208  )
       114           Ga  tau( 114) = (  0.4666666  0.7333334  0.3330541  )
       115           Ga  tau( 115) = (  0.4666666  0.7333334  0.6663874  )
       116           Ga  tau( 116) = (  0.4666666  0.7333334  0.9997208  )
       117           Ga  tau( 117) = (  0.4666666  0.9333334  0.3330541  )
       118           Ga  tau( 118) = (  0.4666666  0.9333334  0.6663874  )
       119           Ga  tau( 119) = (  0.4666666  0.9333334  0.9997208  )
       120           Ga  tau( 120) = (  0.6666666  0.1333334  0.3330541  )
       121           Ga  tau( 121) = (  0.6666666  0.1333334  0.6663874  )
       122           Ga  tau( 122) = (  0.6666666  0.1333334  0.9997208  )
       123           Ga  tau( 123) = (  0.6666666  0.3333334  0.3330541  )
       124           Ga  tau( 124) = (  0.6666666  0.3333334  0.6663874  )
       125           Ga  tau( 125) = (  0.6666666  0.3333334  0.9997208  )
       126           Ga  tau( 126) = (  0.6666666  0.5333334  0.3330541  )
       127           Ga  tau( 127) = (  0.6666666  0.5333334  0.6663874  )
       128           Ga  tau( 128) = (  0.6666666  0.5333334  0.9997208  )
       129           Ga  tau( 129) = (  0.6666666  0.7333334  0.3330541  )
       130           Ga  tau( 130) = (  0.6666666  0.7333334  0.6663874  )
       131           Ga  tau( 131) = (  0.6666666  0.7333334  0.9997208  )
       132           Ga  tau( 132) = (  0.6666666  0.9333334  0.3330541  )
       133           Ga  tau( 133) = (  0.6666666  0.9333334  0.6663874  )
       134           Ga  tau( 134) = (  0.6666666  0.9333334  0.9997208  )
       135           Ga  tau( 135) = (  0.8666666  0.1333334  0.3330541  )
       136           Ga  tau( 136) = (  0.8666666  0.1333334  0.6663874  )
       137           Ga  tau( 137) = (  0.8666666  0.1333334  0.9997208  )
       138           Ga  tau( 138) = (  0.8666666  0.3333334  0.3330541  )
       139           Ga  tau( 139) = (  0.8666666  0.3333334  0.6663874  )
       140           Ga  tau( 140) = (  0.8666666  0.3333334  0.9997208  )
       141           Ga  tau( 141) = (  0.8666666  0.5333334  0.3330541  )
       142           Ga  tau( 142) = (  0.8666666  0.5333334  0.6663874  )
       143           Ga  tau( 143) = (  0.8666666  0.5333334  0.9997208  )
       144           Ga  tau( 144) = (  0.8666666  0.7333334  0.3330541  )
       145           Ga  tau( 145) = (  0.8666666  0.7333334  0.6663874  )
       146           Ga  tau( 146) = (  0.8666666  0.7333334  0.9997208  )
       147           Ga  tau( 147) = (  0.8666666  0.9333334  0.3330541  )
       148           Ga  tau( 148) = (  0.8666666  0.9333334  0.6663874  )
       149           Ga  tau( 149) = (  0.8666666  0.9333334  0.9997208  )
       150           N   tau( 150) = (  0.1333334  0.0666666  0.2919459  )
       151           N   tau( 151) = (  0.1333334  0.0666666  0.6252792  )
       152           N   tau( 152) = (  0.1333334  0.0666666  0.9586126  )
       153           N   tau( 153) = (  0.1333334  0.2666666  0.2919459  )
       154           N   tau( 154) = (  0.1333334  0.2666666  0.6252792  )
       155           N   tau( 155) = (  0.1333334  0.2666666  0.9586126  )
       156           N   tau( 156) = (  0.1333334  0.4666666  0.2919459  )
       157           N   tau( 157) = (  0.1333334  0.4666666  0.6252792  )
       158           N   tau( 158) = (  0.1333334  0.4666666  0.9586126  )
       159           N   tau( 159) = (  0.1333334  0.6666666  0.2919459  )
       160           N   tau( 160) = (  0.1333334  0.6666666  0.6252792  )
       161           N   tau( 161) = (  0.1333334  0.6666666  0.9586126  )
       162           N   tau( 162) = (  0.1333334  0.8666666  0.2919459  )
       163           N   tau( 163) = (  0.1333334  0.8666666  0.6252792  )
       164           N   tau( 164) = (  0.1333334  0.8666666  0.9586126  )
       165           N   tau( 165) = (  0.3333334  0.0666666  0.2919459  )
       166           N   tau( 166) = (  0.3333334  0.0666666  0.6252792  )
       167           N   tau( 167) = (  0.3333334  0.0666666  0.9586126  )
       168           N   tau( 168) = (  0.3333334  0.2666666  0.2919459  )
       169           N   tau( 169) = (  0.3333334  0.2666666  0.6252792  )
       170           N   tau( 170) = (  0.3333334  0.2666666  0.9586126  )
       171           N   tau( 171) = (  0.3333334  0.4666666  0.2919459  )
       172           N   tau( 172) = (  0.3333334  0.4666666  0.6252792  )
       173           N   tau( 173) = (  0.3333334  0.4666666  0.9586126  )
       174           N   tau( 174) = (  0.3333334  0.6666666  0.2919459  )
       175           N   tau( 175) = (  0.3333334  0.6666666  0.6252792  )
       176           N   tau( 176) = (  0.3333334  0.6666666  0.9586126  )
       177           N   tau( 177) = (  0.3333334  0.8666666  0.2919459  )
       178           N   tau( 178) = (  0.3333334  0.8666666  0.6252792  )
       179           N   tau( 179) = (  0.3333334  0.8666666  0.9586126  )
       180           N   tau( 180) = (  0.5333334  0.0666666  0.2919459  )
       181           N   tau( 181) = (  0.5333334  0.0666666  0.6252792  )
       182           N   tau( 182) = (  0.5333334  0.0666666  0.9586126  )
       183           N   tau( 183) = (  0.5333334  0.2666666  0.2919459  )
       184           N   tau( 184) = (  0.5333334  0.2666666  0.6252792  )
       185           N   tau( 185) = (  0.5333334  0.2666666  0.9586126  )
       186           N   tau( 186) = (  0.5333334  0.4666666  0.2919459  )
       187           N   tau( 187) = (  0.5333334  0.4666666  0.6252792  )
       188           N   tau( 188) = (  0.5333334  0.4666666  0.9586126  )
       189           N   tau( 189) = (  0.5333334  0.6666666  0.2919459  )
       190           N   tau( 190) = (  0.5333334  0.6666666  0.6252792  )
       191           N   tau( 191) = (  0.5333334  0.6666666  0.9586126  )
       192           N   tau( 192) = (  0.5333334  0.8666666  0.2919459  )
       193           N   tau( 193) = (  0.5333334  0.8666666  0.6252792  )
       194           N   tau( 194) = (  0.5333334  0.8666666  0.9586126  )
       195           N   tau( 195) = (  0.7333334  0.0666666  0.2919459  )
       196           N   tau( 196) = (  0.7333334  0.0666666  0.6252792  )
       197           N   tau( 197) = (  0.7333334  0.0666666  0.9586126  )
       198           N   tau( 198) = (  0.7333334  0.2666666  0.2919459  )
       199           N   tau( 199) = (  0.7333334  0.2666666  0.6252792  )
       200           N   tau( 200) = (  0.7333334  0.2666666  0.9586126  )
       201           N   tau( 201) = (  0.7333334  0.4666666  0.2919459  )
       202           N   tau( 202) = (  0.7333334  0.4666666  0.6252792  )
       203           N   tau( 203) = (  0.7333334  0.4666666  0.9586126  )
       204           N   tau( 204) = (  0.7333334  0.6666666  0.2919459  )
       205           N   tau( 205) = (  0.7333334  0.6666666  0.6252792  )
       206           N   tau( 206) = (  0.7333334  0.6666666  0.9586126  )
       207           N   tau( 207) = (  0.7333334  0.8666666  0.2919459  )
       208           N   tau( 208) = (  0.7333334  0.8666666  0.6252792  )
       209           N   tau( 209) = (  0.7333334  0.8666666  0.9586126  )
       210           N   tau( 210) = (  0.9333334  0.0666666  0.2919459  )
       211           N   tau( 211) = (  0.9333334  0.0666666  0.6252792  )
       212           N   tau( 212) = (  0.9333334  0.0666666  0.9586126  )
       213           N   tau( 213) = (  0.9333334  0.2666666  0.2919459  )
       214           N   tau( 214) = (  0.9333334  0.2666666  0.6252792  )
       215           N   tau( 215) = (  0.9333334  0.2666666  0.9586126  )
       216           N   tau( 216) = (  0.9333334  0.4666666  0.2919459  )
       217           N   tau( 217) = (  0.9333334  0.4666666  0.6252792  )
       218           N   tau( 218) = (  0.9333334  0.4666666  0.9586126  )
       219           N   tau( 219) = (  0.9333334  0.6666666  0.2919459  )
       220           N   tau( 220) = (  0.9333334  0.6666666  0.6252792  )
       221           N   tau( 221) = (  0.9333334  0.6666666  0.9586126  )
       222           N   tau( 222) = (  0.9333334  0.8666666  0.2919459  )
       223           N   tau( 223) = (  0.9333334  0.8666666  0.6252792  )
       224           N   tau( 224) = (  0.9333334  0.8666666  0.9586126  )
       225           N   tau( 225) = (  0.0666666  0.1333334  0.1252792  )
       226           N   tau( 226) = (  0.0666666  0.1333334  0.4586126  )
       227           N   tau( 227) = (  0.0666666  0.1333334  0.7919459  )
       228           N   tau( 228) = (  0.0666666  0.3333334  0.1252792  )
       229           N   tau( 229) = (  0.0666666  0.3333334  0.4586126  )
       230           N   tau( 230) = (  0.0666666  0.3333334  0.7919459  )
       231           N   tau( 231) = (  0.0666666  0.5333334  0.1252792  )
       232           N   tau( 232) = (  0.0666666  0.5333334  0.4586126  )
       233           N   tau( 233) = (  0.0666666  0.5333334  0.7919459  )
       234           N   tau( 234) = (  0.0666666  0.7333334  0.1252792  )
       235           N   tau( 235) = (  0.0666666  0.7333334  0.4586126  )
       236           N   tau( 236) = (  0.0666666  0.7333334  0.7919459  )
       237           N   tau( 237) = (  0.0666666  0.9333334  0.1252792  )
       238           N   tau( 238) = (  0.0666666  0.9333334  0.4586126  )
       239           N   tau( 239) = (  0.0666666  0.9333334  0.7919459  )
       240           N   tau( 240) = (  0.2666666  0.1333334  0.1252792  )
       241           N   tau( 241) = (  0.2666666  0.1333334  0.4586126  )
       242           N   tau( 242) = (  0.2666666  0.1333334  0.7919459  )
       243           N   tau( 243) = (  0.2666666  0.3333334  0.1252792  )
       244           N   tau( 244) = (  0.2666666  0.3333334  0.4586126  )
       245           N   tau( 245) = (  0.2666666  0.3333334  0.7919459  )
       246           N   tau( 246) = (  0.2666666  0.5333334  0.1252792  )
       247           N   tau( 247) = (  0.2666666  0.5333334  0.4586126  )
       248           N   tau( 248) = (  0.2666666  0.5333334  0.7919459  )
       249           N   tau( 249) = (  0.2666666  0.7333334  0.1252792  )
       250           N   tau( 250) = (  0.2666666  0.7333334  0.4586126  )
       251           N   tau( 251) = (  0.2666666  0.7333334  0.7919459  )
       252           N   tau( 252) = (  0.2666666  0.9333334  0.1252792  )
       253           N   tau( 253) = (  0.2666666  0.9333334  0.4586126  )
       254           N   tau( 254) = (  0.2666666  0.9333334  0.7919459  )
       255           N   tau( 255) = (  0.4666666  0.1333334  0.1252792  )
       256           N   tau( 256) = (  0.4666666  0.1333334  0.4586126  )
       257           N   tau( 257) = (  0.4666666  0.1333334  0.7919459  )
       258           N   tau( 258) = (  0.4666666  0.3333334  0.1252792  )
       259           N   tau( 259) = (  0.4666666  0.3333334  0.4586126  )
       260           N   tau( 260) = (  0.4666666  0.3333334  0.7919459  )
       261           N   tau( 261) = (  0.4666666  0.5333334  0.1252792  )
       262           N   tau( 262) = (  0.4666666  0.5333334  0.4586126  )
       263           N   tau( 263) = (  0.4666666  0.5333334  0.7919459  )
       264           N   tau( 264) = (  0.4666666  0.7333334  0.1252792  )
       265           N   tau( 265) = (  0.4666666  0.7333334  0.4586126  )
       266           N   tau( 266) = (  0.4666666  0.7333334  0.7919459  )
       267           N   tau( 267) = (  0.4666666  0.9333334  0.1252792  )
       268           N   tau( 268) = (  0.4666666  0.9333334  0.4586126  )
       269           N   tau( 269) = (  0.4666666  0.9333334  0.7919459  )
       270           N   tau( 270) = (  0.6666666  0.1333334  0.1252792  )
       271           N   tau( 271) = (  0.6666666  0.1333334  0.4586126  )
       272           N   tau( 272) = (  0.6666666  0.1333334  0.7919459  )
       273           N   tau( 273) = (  0.6666666  0.3333334  0.1252792  )
       274           N   tau( 274) = (  0.6666666  0.3333334  0.4586126  )
       275           N   tau( 275) = (  0.6666666  0.3333334  0.7919459  )
       276           N   tau( 276) = (  0.6666666  0.5333334  0.1252792  )
       277           N   tau( 277) = (  0.6666666  0.5333334  0.4586126  )
       278           N   tau( 278) = (  0.6666666  0.5333334  0.7919459  )
       279           N   tau( 279) = (  0.6666666  0.7333334  0.1252792  )
       280           N   tau( 280) = (  0.6666666  0.7333334  0.4586126  )
       281           N   tau( 281) = (  0.6666666  0.7333334  0.7919459  )
       282           N   tau( 282) = (  0.6666666  0.9333334  0.1252792  )
       283           N   tau( 283) = (  0.6666666  0.9333334  0.4586126  )
       284           N   tau( 284) = (  0.6666666  0.9333334  0.7919459  )
       285           N   tau( 285) = (  0.8666666  0.1333334  0.1252792  )
       286           N   tau( 286) = (  0.8666666  0.1333334  0.4586126  )
       287           N   tau( 287) = (  0.8666666  0.1333334  0.7919459  )
       288           N   tau( 288) = (  0.8666666  0.3333334  0.1252792  )
       289           N   tau( 289) = (  0.8666666  0.3333334  0.4586126  )
       290           N   tau( 290) = (  0.8666666  0.3333334  0.7919459  )
       291           N   tau( 291) = (  0.8666666  0.5333334  0.1252792  )
       292           N   tau( 292) = (  0.8666666  0.5333334  0.4586126  )
       293           N   tau( 293) = (  0.8666666  0.5333334  0.7919459  )
       294           N   tau( 294) = (  0.8666666  0.7333334  0.1252792  )
       295           N   tau( 295) = (  0.8666666  0.7333334  0.4586126  )
       296           N   tau( 296) = (  0.8666666  0.7333334  0.7919459  )
       297           N   tau( 297) = (  0.8666666  0.9333334  0.1252792  )
       298           N   tau( 298) = (  0.8666666  0.9333334  0.4586126  )
       299           N   tau( 299) = (  0.8666666  0.9333334  0.7919459  )

     number of k points=     6  Gaussian smearing, width (Ry)=  0.0100
                       cart. coord. in units 2pi/alat
        k(    1) = (   0.0000000   0.0000000   0.0000000), wk =   0.2500000
        k(    2) = (   0.0000000   0.0000000  -0.5112854), wk =   0.2500000
        k(    3) = (   0.0000000  -0.5773503   0.0000000), wk =   0.5000000
        k(    4) = (   0.0000000  -0.5773503  -0.5112854), wk =   0.5000000
        k(    5) = (  -0.5000000  -0.2886751   0.0000000), wk =   0.2500000
        k(    6) = (  -0.5000000  -0.2886751  -0.5112854), wk =   0.2500000

                       cryst. coord.
        k(    1) = (   0.0000000   0.0000000   0.0000000), wk =   0.2500000
        k(    2) = (   0.0000000   0.0000000  -0.5000000), wk =   0.2500000
        k(    3) = (   0.0000000  -0.5000000   0.0000000), wk =   0.5000000
        k(    4) = (   0.0000000  -0.5000000  -0.5000000), wk =   0.5000000
        k(    5) = (  -0.5000000  -0.0000000   0.0000000), wk =   0.2500000
        k(    6) = (  -0.5000000  -0.0000000  -0.5000000), wk =   0.2500000

     Dense  grid:  2698283 G-vectors     FFT dimensions: ( 192, 192, 180)

     Smooth grid:  1930731 G-vectors     FFT dimensions: ( 180, 180, 160)

     Dynamical RAM for                 wfc:      92.79 MB

     Dynamical RAM for     wfc (w. buffer):     278.37 MB

     Dynamical RAM for           str. fact:       1.29 MB

     Dynamical RAM for           local pot:       0.00 MB

     Dynamical RAM for          nlocal pot:     223.31 MB

     Dynamical RAM for                qrad:       3.00 MB

     Dynamical RAM for          rho,v,vnew:       4.46 MB

     Dynamical RAM for               rhoin:       1.49 MB

     Dynamical RAM for            rho*nmix:      10.29 MB

     Dynamical RAM for           G-vectors:       2.64 MB

     Dynamical RAM for          h,s,v(r/c):    1905.59 MB

     Dynamical RAM for          <psi|beta>:      95.55 MB

     Dynamical RAM for                 psi:     371.16 MB

     Dynamical RAM for                hpsi:     371.16 MB

     Dynamical RAM for                spsi:     371.16 MB

     Dynamical RAM for      wfcinit/wfcrot:     245.14 MB

     Dynamical RAM for           addusdens:      54.52 MB

     Dynamical RAM for          addusforce:     102.87 MB

     Dynamical RAM for         addusstress:      32.57 MB

     Estimated static dynamical RAM per process >     520.71 MB

     Estimated max dynamical RAM per process >       3.56 GB

     Estimated total dynamical RAM >     909.47 GB

     Atomic positions and unit cell read from directory:
     ./GaN.save/
     Atomic positions from file used, from input discarded
 

     Check: negative core charge=   -0.000003

     The initial density is read from file :
     ./GaN.save/charge-density



     %%%%%%%%%%%%%%%%%%%%%%%%%%%%%%%%%%%%%%%%%%%%%%%%%%%%%%%%%%%%%%%%%%%%%%%%
     %                                                                      %
     % You are using vdW-DF, which was implemented by the Thonhauser group. %
     % Please cite the following two papers that made this development      %
     % possible and the two reviews that describe the various versions:     %
     %                                                                      %
     %   T. Thonhauser et al., PRL 115, 136402 (2015).                      %
     %   T. Thonhauser et al., PRB 76, 125112 (2007).                       %
     %   K. Berland et al., Rep. Prog. Phys. 78, 066501 (2015).             %
     %   D.C. Langreth et al., J. Phys.: Condens. Matter 21, 084203 (2009). %
     %                                                                      %
     % If you are calculating stress with vdW-DF, please also cite:         %
     %                                                                      %
     %   R. Sabatini et al., J. Phys.: Condens. Matter 24, 424209 (2012).   %
     %                                                                      %
     %%%%%%%%%%%%%%%%%%%%%%%%%%%%%%%%%%%%%%%%%%%%%%%%%%%%%%%%%%%%%%%%%%%%%%%%

     %%%%%%%%%%%%%%%%%%%%%%%%%%%%%%%%%%%%%%%%%%%%%%%%%%%%%%%%%%%%%%%%%%%%%%%%
     %                                                                      %
     %  vdW-DF NEWS:                                                        %
     %                                                                      %
     %  * vdW-DF3 is now available. DOI: 10.1021/acs.jctc.0c00471           %
     %    use with input_dft = 'vdW-DF3-opt1' or 'vdW-DF3-opt2'             %
     %                                                                      %
     %  * Unscreened and range-separated vdW-DF hybrid functionals          %
     %    DOI: 10.1063/1.4986522 and 10.1088/1361-648X/ac2ad2               %
     %    use with input_dft = 'vdW-DF-cx0' (etc) and 'vdW-DF-ahcx'         %
     %                                                                      %
     %%%%%%%%%%%%%%%%%%%%%%%%%%%%%%%%%%%%%%%%%%%%%%%%%%%%%%%%%%%%%%%%%%%%%%%%


     Carrying out vdW-DF run using the following parameters:
     Nqs    =  20  Npoints =  1024  r_max =  100.000
     q_mesh =  0.00001000  0.04494208  0.09755937  0.15916263
               0.23128650  0.31572767  0.41458969  0.53033537
               0.66584808  0.82450364  1.01025438  1.22772762
               1.48234092  1.78043706  2.12944203  2.53805004
               3.01644009  3.57652955  4.23227104  5.00000000


     -----------------------------------------------
     Non-local corr. energy    =      81.30788717 Ry
     -----------------------------------------------

     Starting wfcs from file
     Checking if some PAW data can be deallocated... 
       PAW data deallocated on  150 nodes for type:  1
       PAW data deallocated on  106 nodes for type:  2
     Calculation restarted from scf iteration #    35

     total cpu time spent up to now is        8.9 secs

     Self-consistent Calculation

     iteration # 35     ecut=    70.00 Ry     beta= 0.70
     Davidson diagonalization with overlap

---- Real-time Memory Report at c_bands before calling an iterative solver
           281 MiB given to the printing process from OS
             0 MiB allocation reported by mallinfo(arena+hblkhd)
       1985066 MiB available memory on the node where the printing process lives
------------------
     c_bands:  3 eigenvalues not converged
     c_bands:  4 eigenvalues not converged
     ethr =  1.00E-13,  avg # of iterations = 66.7


     -----------------------------------------------
     Non-local corr. energy    =      81.30788058 Ry
     -----------------------------------------------


     total cpu time spent up to now is     8225.3 secs

     total energy              =  -46559.69049071 Ry
     estimated scf accuracy    <       0.00013944 Ry

     iteration # 36     ecut=    70.00 Ry     beta= 0.70
     Davidson diagonalization with overlap

---- Real-time Memory Report at c_bands before calling an iterative solver
          3595 MiB given to the printing process from OS
             0 MiB allocation reported by mallinfo(arena+hblkhd)
       1888389 MiB available memory on the node where the printing process lives
------------------
     c_bands:  2 eigenvalues not converged
     c_bands:  5 eigenvalues not converged
     ethr =  1.00E-13,  avg # of iterations = 80.0


     -----------------------------------------------
     Non-local corr. energy    =      81.30787988 Ry
     -----------------------------------------------


     total cpu time spent up to now is    17473.5 secs

     total energy              =  -46559.69049779 Ry
     estimated scf accuracy    <       0.00013575 Ry

     iteration # 37     ecut=    70.00 Ry     beta= 0.70
     Davidson diagonalization with overlap

---- Real-time Memory Report at c_bands before calling an iterative solver
          3638 MiB given to the printing process from OS
             0 MiB allocation reported by mallinfo(arena+hblkhd)
       1868068 MiB available memory on the node where the printing process lives
------------------
     c_bands:  5 eigenvalues not converged
     c_bands:  5 eigenvalues not converged
     ethr =  1.00E-13,  avg # of iterations = 93.3


     -----------------------------------------------
     Non-local corr. energy    =      81.30788116 Ry
     -----------------------------------------------


     total cpu time spent up to now is    27294.4 secs

     total energy              =  -46559.69050193 Ry
     estimated scf accuracy    <       0.00001378 Ry

     iteration # 38     ecut=    70.00 Ry     beta= 0.70
     Davidson diagonalization with overlap

---- Real-time Memory Report at c_bands before calling an iterative solver
          3645 MiB given to the printing process from OS
             0 MiB allocation reported by mallinfo(arena+hblkhd)
       1867993 MiB available memory on the node where the printing process lives
------------------
     c_bands:  1 eigenvalues not converged
     ethr =  1.00E-13,  avg # of iterations = 55.0


     -----------------------------------------------
     Non-local corr. energy    =      81.30787724 Ry
     -----------------------------------------------


     total cpu time spent up to now is    33216.9 secs

     total energy              =  -46559.69050234 Ry
     estimated scf accuracy    <       0.00003124 Ry

     iteration # 39     ecut=    70.00 Ry     beta= 0.70
     Davidson diagonalization with overlap

---- Real-time Memory Report at c_bands before calling an iterative solver
          3645 MiB given to the printing process from OS
             0 MiB allocation reported by mallinfo(arena+hblkhd)
       1867966 MiB available memory on the node where the printing process lives
------------------
     c_bands:  1 eigenvalues not converged
     c_bands:  5 eigenvalues not converged
     ethr =  1.00E-13,  avg # of iterations = 60.0


     -----------------------------------------------
     Non-local corr. energy    =      81.30787721 Ry
     -----------------------------------------------


     total cpu time spent up to now is    39946.0 secs

     total energy              =  -46559.69050378 Ry
     estimated scf accuracy    <       0.00000033 Ry

     iteration # 40     ecut=    70.00 Ry     beta= 0.70
     Davidson diagonalization with overlap

---- Real-time Memory Report at c_bands before calling an iterative solver
          3645 MiB given to the printing process from OS
             0 MiB allocation reported by mallinfo(arena+hblkhd)
       1867919 MiB available memory on the node where the printing process lives
------------------
     c_bands:  2 eigenvalues not converged
     ethr =  1.00E-13,  avg # of iterations = 22.5


     -----------------------------------------------
     Non-local corr. energy    =      81.30787956 Ry
     -----------------------------------------------


     total cpu time spent up to now is    44654.2 secs

     total energy              =  -46559.69050372 Ry
     estimated scf accuracy    <       0.00000198 Ry

     iteration # 41     ecut=    70.00 Ry     beta= 0.70
     Davidson diagonalization with overlap

---- Real-time Memory Report at c_bands before calling an iterative solver
          3645 MiB given to the printing process from OS
             0 MiB allocation reported by mallinfo(arena+hblkhd)
       1867908 MiB available memory on the node where the printing process lives
------------------
     c_bands:  1 eigenvalues not converged
     c_bands:  5 eigenvalues not converged
     ethr =  1.00E-13,  avg # of iterations = 46.7


     -----------------------------------------------
     Non-local corr. energy    =      81.30788121 Ry
     -----------------------------------------------


     total cpu time spent up to now is    49929.1 secs

     total energy              =  -46559.69050386 Ry
     estimated scf accuracy    <       0.00000030 Ry

     iteration # 42     ecut=    70.00 Ry     beta= 0.70
     Davidson diagonalization with overlap

---- Real-time Memory Report at c_bands before calling an iterative solver
          3645 MiB given to the printing process from OS
             0 MiB allocation reported by mallinfo(arena+hblkhd)
       1867886 MiB available memory on the node where the printing process lives
------------------
     c_bands:  2 eigenvalues not converged
     c_bands:  4 eigenvalues not converged
     ethr =  1.00E-13,  avg # of iterations = 40.0


     -----------------------------------------------
     Non-local corr. energy    =      81.30788243 Ry
     -----------------------------------------------


     total cpu time spent up to now is    53479.9 secs

     End of self-consistent calculation

          k = 0.0000 0.0000 0.0000 (241213 PWs)   bands (ev):

    -6.9305  -6.7284  -6.7236  -6.7056  -6.7042  -6.7041  -6.6931  -6.6930
    -6.6663  -6.5713  -6.5703  -6.5701  -6.5699  -6.5674  -6.5673  -6.5615
    -6.5615  -6.5537  -6.5536  -6.5481  -6.5319  -6.5035  -6.5030  -6.5030
    -6.5020  -6.5012  -6.5012  -6.5007  -6.4984  -6.4876  -6.4869  -6.4867
    -6.4775  -6.4773  -6.4730  -6.4701  -6.4497  -6.4494  -6.4492  -6.4482
    -6.4470  -6.4468  -6.4458  -6.4454  -6.4452  -6.4444  -6.4440  -6.4436
    -6.4434  -6.4432  -6.4425  -6.4424  -6.4424  -6.4416  -6.4410  -6.4410
    -6.4409  -6.4402  -6.4398  -6.4394  -6.4394  -6.4378  -6.4374  -6.4362
    -6.4355  -6.4346  -6.4346  -6.4345  -6.4320  -6.4318  -6.4312  -6.4306
    -6.4304  -6.4290  -6.4283  -6.4264  -6.4262  -6.4255  -6.4253  -6.4216
    -6.4197  -6.4193  -6.4157  -6.4148  -6.4145  -6.4144  -6.4137  -6.4129
    -6.4129  -6.4101  -6.4097  -6.4092  -6.4087  -6.4076  -6.4074  -6.4067
    -6.4062  -6.4062  -6.4060  -6.4057  -6.4057  -6.4050  -6.4048  -6.4041
    -6.4038  -6.4032  -6.4030  -6.4029  -6.4018  -6.4010  -6.4010  -6.4006
    -6.4001  -6.3995  -6.3994  -6.3985  -6.3977  -6.3976  -6.3973  -6.3968
    -6.3963  -6.3961  -6.3945  -6.3941  -6.3939  -6.3905  -6.3901  -6.3900
    -6.3888  -6.3884  -6.3877  -6.3824  -6.3822  -6.3780  -6.3753  -6.3740
    -6.3730  -6.3711  -6.3701  -6.3662  -6.3660  -6.3653  -6.3641  -6.3590
    -6.3522  -6.3507  -6.1633  -6.1401  -6.1338  -6.1338  -5.3511  -5.3390
    -5.3390  -5.3309  -5.3309  -5.3299  -5.3295  -5.3294  -5.3293  -5.3275
    -5.3275  -5.3228  -5.3207  -5.3207  -5.3197  -5.3197  -5.3143  -5.3143
    -5.3121  -5.3120  -5.3120  -5.3110  -5.3106  -5.3105  -5.3092  -5.3083
    -5.3083  -5.3083  -5.3073  -5.3073  -5.3069  -5.3069  -5.3064  -5.3062
    -5.3062  -5.3058  -5.3048  -5.3043  -5.3042  -5.3037  -5.3027  -5.3027
    -5.3021  -5.3021  -5.3010  -5.3010  -5.2998  -5.2993  -5.2993  -5.2992
    -5.2979  -5.2979  -5.2971  -5.2967  -5.2959  -5.2959  -5.2954  -5.2954
    -5.2948  -5.2945  -5.2945  -5.2927  -5.2912  -5.2898  -5.2897  -5.2891
    -5.2886  -5.2886  -5.2876  -5.2875  -5.2858  -5.2853  -5.2851  -5.2850
    -5.2850  -5.2841  -5.2835  -5.2835  -5.2831  -5.2830  -5.2818  -5.2818
    -5.2815  -5.2815  -5.2811  -5.2810  -5.2810  -5.2791  -5.2791  -5.2778
    -5.2777  -5.2776  -5.2774  -5.2772  -5.2765  -5.2765  -5.2761  -5.2761
    -5.2736  -5.2736  -5.2729  -5.2723  -5.2722  -5.2721  -5.2715  -5.2715
    -5.2714  -5.2708  -5.2707  -5.2704  -5.2699  -5.2699  -5.2696  -5.2690
    -5.2689  -5.2679  -5.2679  -5.2677  -5.2664  -5.2664  -5.2663  -5.2655
    -5.2647  -5.2647  -5.2633  -5.2620  -5.2620  -5.2616  -5.2613  -5.2612
    -5.2611  -5.2601  -5.2601  -5.2589  -5.2585  -5.2583  -5.2583  -5.2580
    -5.2578  -5.2578  -5.2575  -5.2572  -5.2569  -5.2568  -5.2558  -5.2555
    -5.2555  -5.2543  -5.2543  -5.2533  -5.2532  -5.2527  -5.2523  -5.2523
    -5.2522  -5.2520  -5.2518  -5.2518  -5.2510  -5.2504  -5.2504  -5.2504
    -5.2495  -5.2494  -5.2494  -5.2483  -5.2483  -5.2478  -5.2477  -5.2469
    -5.2457  -5.2457  -5.2456  -5.2448  -5.2448  -5.2446  -5.2424  -5.2424
    -5.2411  -5.2411  -5.2399  -5.2393  -5.2383  -5.2383  -5.2373  -5.2370
    -5.2370  -5.2367  -5.2362  -5.2362  -5.2353  -5.2353  -5.2339  -5.2336
    -5.2336  -5.2325  -5.2324  -5.2324  -5.2311  -5.2301  -5.2299  -5.2298
    -5.2271  -5.2264  -5.2263  -5.2258  -5.2246  -5.2233  -5.2233  -5.2228
    -5.2222  -5.2221  -5.2206  -5.2206  -5.2192  -5.2164  -5.2164  -5.2151
    -5.2151  -5.2125  -5.2124  -5.2119  -5.2110  -5.2108  -5.2104  -5.2096
    -5.2096  -5.2088  -5.2080  -5.2071  -5.2071  -5.2038  -5.2037  -5.2032
    -5.2020  -5.2019  -5.1985  -5.1984  -5.1983  -5.1983  -5.1955  -5.1955
    -5.1933  -5.1907  -5.1906  -5.1904  -5.1883  -5.1883  -5.1873  -5.1872
    -5.1851  -5.1850  -5.1848  -5.1848  -5.1848  -5.1839  -5.1839  -5.1835
    -5.1823  -5.1817  -5.1815  -5.1815  -5.1805  -5.1805  -5.1788  -5.1784
    -5.1774  -5.1774  -5.1770  -5.1764  -5.1764  -5.1761  -5.1760  -5.1741
    -5.1741  -5.1734  -5.1730  -5.1730  -5.1724  -5.1721  -5.1721  -5.1719
    -5.1719  -5.1715  -5.1715  -5.1711  -5.1706  -5.1705  -5.1701  -5.1701
    -5.1696  -5.1685  -5.1683  -5.1683  -5.1674  -5.1672  -5.1672  -5.1667
    -5.1666  -5.1664  -5.1658  -5.1658  -5.1645  -5.1640  -5.1640  -5.1635
    -5.1635  -5.1633  -5.1625  -5.1620  -5.1619  -5.1618  -5.1615  -5.1615
    -5.1606  -5.1606  -5.1604  -5.1603  -5.1602  -5.1596  -5.1585  -5.1585
    -5.1582  -5.1577  -5.1575  -5.1575  -5.1574  -5.1567  -5.1567  -5.1564
    -5.1561  -5.1561  -5.1550  -5.1534  -5.1528  -5.1527  -5.1524  -5.1524
    -5.1519  -5.1516  -5.1515  -5.1514  -5.1513  -5.1503  -5.1502  -5.1490
    -5.1490  -5.1490  -5.1486  -5.1486  -5.1472  -5.1472  -5.1467  -5.1460
    -5.1460  -5.1458  -5.1457  -5.1453  -5.1453  -5.1447  -5.1439  -5.1438
    -5.1435  -5.1433  -5.1433  -5.1430  -5.1430  -5.1424  -5.1421  -5.1410
    -5.1410  -5.1409  -5.1389  -5.1389  -5.1389  -5.1379  -5.1375  -5.1375
    -5.1371  -5.1370  -5.1368  -5.1368  -5.1358  -5.1358  -5.1357  -5.1355
    -5.1355  -5.1349  -5.1349  -5.1332  -5.1328  -5.1328  -5.1328  -5.1325
    -5.1325  -5.1308  -5.1307  -5.1305  -5.1288  -5.1288  -5.1287  -5.1278
    -5.1270  -5.1270  -5.1263  -5.1260  -5.1260  -5.1247  -5.1247  -5.1242
    -5.1242  -5.1236  -5.1223  -5.1223  -5.1218  -5.1209  -5.1209  -5.1190
    -5.1190  -5.1187  -5.1182  -5.1177  -5.1177  -5.1169  -5.1169  -5.1165
    -5.1162  -5.1155  -5.1155  -5.1144  -5.1142  -5.1141  -5.1139  -5.1135
    -5.1134  -5.1124  -5.1115  -5.1109  -5.1095  -5.1094  -5.1090  -5.1089
    -5.1089  -5.1078  -5.1077  -5.1077  -5.1067  -5.1067  -5.1050  -5.1049
    -5.1049  -5.1034  -5.1034  -5.1034  -5.1020  -5.1020  -5.1011  -5.1008
    -5.1008  -5.1006  -5.0997  -5.0996  -5.0986  -5.0985  -5.0980  -5.0979
    -5.0979  -5.0977  -5.0967  -5.0956  -5.0956  -5.0954  -5.0954  -5.0948
    -5.0943  -5.0943  -5.0938  -5.0938  -5.0934  -5.0930  -5.0930  -5.0924
    -5.0923  -5.0920  -5.0917  -5.0915  -5.0914  -5.0908  -5.0906  -5.0899
    -5.0898  -5.0897  -5.0895  -5.0895  -5.0890  -5.0890  -5.0885  -5.0885
    -5.0885  -5.0873  -5.0869  -5.0868  -5.0865  -5.0863  -5.0862  -5.0856
    -5.0856  -5.0846  -5.0846  -5.0843  -5.0837  -5.0836  -5.0836  -5.0830
    -5.0829  -5.0823  -5.0819  -5.0813  -5.0812  -5.0809  -5.0807  -5.0796
    -5.0796  -5.0790  -5.0790  -5.0781  -5.0780  -5.0775  -5.0774  -5.0770
    -5.0763  -5.0763  -5.0761  -5.0756  -5.0756  -5.0741  -5.0741  -5.0727
    -5.0726  -5.0726  -5.0723  -5.0715  -5.0714  -5.0706  -5.0706  -5.0703
    -5.0696  -5.0695  -5.0687  -5.0687  -5.0687  -5.0671  -5.0671  -5.0664
    -5.0664  -5.0662  -5.0650  -5.0643  -5.0641  -5.0640  -5.0604  -5.0604
    -5.0593  -5.0593  -5.0570  -5.0555  -5.0555  -5.0550  -5.0545  -5.0545
    -5.0518  -5.0517  -5.0492  -5.0489  -5.0487  -5.0477  -5.0463  -5.0387
    -5.0358  -5.0358  -5.0274  -5.0216  -5.0195  -5.0194  -5.0140  -5.0096
    -5.0095  -5.0021  -5.0020  -5.0011  -4.9955  -4.9955  -4.9875  -4.9873
    -4.9856  -4.9789  -4.9788  -4.9752  -4.9725  -4.9723  -4.9668  -4.9665
    -4.9636  -4.9540  -4.8488  -4.8480  -4.8458  -4.8458  -4.8427  -4.8426
    -4.8336  -4.8336  -4.8279  -4.8279  -4.8202  -4.7489  -4.3967  -4.3965
    -4.3944  -4.3876  -4.3874  -4.3771  -4.3515  -4.3414  -4.1569  -4.1568
    -4.1541  -4.1511  -4.1507  -4.1505  -4.1495  -4.1493  -4.1452  -4.1424
    -4.1422  -4.1246  -4.0838  -4.0800  -4.0800  -4.0724  -4.0723  -4.0604
    -4.0267  -4.0253  -4.0252  -4.0250  -4.0219  -4.0218  -4.0109  -4.0108
    -4.0078  -4.0078  -3.9737  -3.9433  -3.8842  -3.8830  -3.8829  -3.8820
    -3.8818  -3.8789  -3.8745  -3.8744  -3.8689  -3.8604  -3.8603  -3.7256
    -3.5755  -3.4627  -3.4623  -3.4621  -3.4593  -3.4589  -3.4586  -3.4580
    -3.4578  -3.4541  -3.4540  -3.4530  -3.4514  -3.4512  -3.4450  -3.4437
    -3.4399  -3.4398  -3.4071  -3.3597  -3.3596  -3.3576  -3.3576  -3.3527
    -3.3527  -3.3524  -3.3495  -3.3482  -3.3467  -3.3466  -3.3439  -3.3398
    -3.3398  -3.3397  -3.3367  -3.3366  -3.3364  -3.3278  -3.3276  -3.3276
    -3.3245  -3.3244  -3.3225  -3.3133  -3.3133  -3.2833  -3.2832  -3.2514
    -3.1418  -3.1335  -3.1335  -3.1329  -3.1329  -3.1305  -3.1281  -3.1280
    -3.1258  -3.1168  -3.0878  -3.0877  -3.0599  -3.0168  -3.0168  -3.0084
    -3.0042  -3.0039  -2.9956  -2.9908  -2.9907  -2.9875  -2.9819  -2.9818
    -2.9717  -2.9675  -2.9673  -2.9228  -2.8857  -2.8753  -2.8751   2.0202
     2.4866   2.4869   2.4873   2.4988   2.4989   2.5485   2.5485   2.5487
     2.5509   2.5510   2.5516   2.5526   2.5536   2.5537   2.5546   2.5548
     2.5551   2.5568   2.5586   2.5587   2.5606   2.5614   2.5639   2.5734
     2.5824   2.5830   2.5831   2.6118   2.6124   2.6573   2.7160   2.7179
     2.7190   2.7357   2.7362   2.7740   2.8753   2.8754   2.8783   2.8860
     2.8860   2.8963   2.9236   2.9237   2.9264   2.9268   2.9270   2.9293
     2.9352   2.9364   2.9365   2.9574   2.9575   3.0320   3.0659   3.0663
     3.0664   3.0706   3.0708   3.1170   3.1695   3.1696   3.1711   3.1713
     3.1718   3.1750   3.1804   3.1804   3.1867   3.1885   3.1886   3.2061
     3.2170   3.2196   3.2201   3.2212   3.2241   3.2248   3.2332   3.2367
     3.2373   3.2851   3.2857   3.5171   3.5344   3.5402   3.6320   3.6321
     3.6332   3.6334   3.6348   3.6350   3.6352   3.6372   3.6374   3.6426
     3.6426   3.6515   3.6515   3.6639   3.6640   3.6808   3.7335   3.8305
     3.8709   3.8717   3.8838   3.8865   3.8872   3.9052   3.9199   3.9200
     3.9208   3.9243   3.9244   3.9254   3.9373   3.9374   3.9615   3.9753
     3.9754   4.4122   4.4690   4.4712   4.4718   4.4887   4.4888   4.4976
     4.5194   4.5197   4.5201   4.5414   4.5443   4.5451   4.5574   4.5579
     4.5780   4.5885   4.5892   4.6447   4.6449   4.6502   4.6878   4.6880
     4.7423   4.8964   4.9345   4.9357   4.9358   4.9358   4.9366   4.9382
     4.9382   4.9469   4.9470   5.0385   5.0386   5.2814   5.4065   5.4065
     5.4089   5.4127   5.4139   5.4139   5.4150   5.4165   5.4165   5.4252
     5.4253   5.4360   5.4361   5.4425   5.4571   5.4572   5.4707   5.5750
     5.6137   5.6192   5.6194   5.6395   5.6401   5.7224   5.7960   5.8010
     5.8012   5.8220   5.8221   5.8356   5.8484   5.8486   5.8505   5.8513
     5.8516   5.8555   5.8629   5.8630   5.8661   5.8664   5.8785   5.8996
     5.9276   5.9277   5.9299   5.9301   5.9309   5.9331   5.9332   5.9347
     5.9381   5.9393   5.9398   5.9434   5.9437   5.9479   5.9482   5.9518
     5.9518   5.9533   5.9535   5.9587   5.9685   5.9688   5.9722   5.9730
     5.9784   5.9784   5.9803   5.9850   5.9908   5.9909   5.9988   5.9991
     6.0789   6.1266   6.1269   6.2179   6.2382   6.2402   6.2409   6.2634
     6.2639   6.2696   6.2804   6.2811   6.2838   6.2840   6.2851   6.2853
     6.2884   6.2885   6.3482   6.3559   6.3562   6.4140   6.4193   6.4195
     6.4252   6.4253   6.4451   6.4609   6.4610   6.4866   6.4890   6.4900
     6.4901   6.5117   6.5119   6.5808   6.5811   6.5815   6.5845   6.5865
     6.5866   6.5883   6.5886   6.5911   6.5912   6.5916   6.5945   6.5945
     6.5952   6.5954   6.6082   6.6083   6.6121   6.6206   6.6208   6.6399
     6.6607   6.6610   6.6687   6.6870   6.6917   6.6917   6.7305   6.7305
     6.7630   6.7923   6.8032   6.8053   6.8054   6.8076   6.8167   6.8167
     6.8244   6.8305   6.8306   6.9399   6.9402   7.0587   7.0642   7.0644
     7.0722   7.0793   7.0796   7.0810   7.0810   7.0907   7.0908   7.1460
     7.1460   7.2200   7.2299   7.2299   7.2323   7.2323   7.2324   7.2356
     7.2467   7.2469   7.2559   7.2563   7.2815   7.3204   7.3298   7.3299
     7.3311   7.3314   7.3327   7.3337   7.3344   7.3345   7.3354   7.3376
     7.3421   7.3424   7.3516   7.3517   7.3645   7.3671   7.3673   7.3698
     7.3711   7.3724   7.3729   7.3730   7.3732   7.3744   7.3765   7.3774
     7.3774   7.3810   7.3832   7.3837   7.3928   7.3930   7.3936   7.3965
     7.3968   7.4023   7.4024   7.4281   7.4414   7.5041   7.5045   7.5048
     7.5094   7.5262   7.5264   7.5637   7.5639   7.5663   7.5684   7.5684
     7.5733   7.5776   7.5777   7.5800   7.5873   7.5873   7.6191   7.6361
     7.6363   7.6525   7.6528   7.6537   7.6537   7.6617   7.6618   7.6646
     7.6647   7.6821   7.7130   7.7135   7.7637   7.7644   7.8260   7.8271
     7.8278   7.8649   7.9089   7.9092   7.9531   7.9532   7.9715   7.9715
     8.0155   8.0161   8.0192   8.0193   8.0215   8.0290   8.0292   8.0297
     8.0309   8.0309   8.0657   8.2027   8.2439   8.2440   8.2636   8.2636
     8.2650   8.3165   8.3166   8.3740   8.3769   8.3791   8.3792   8.4231
     8.4231   8.4500   8.4501   8.6046   8.6645   8.6645   8.8323   8.8862
     8.8864  10.2521  11.9469  11.9743  12.1471  12.1566  12.1567  12.1735
    12.1736  12.2456  12.6292  12.7393  12.7798  12.8447  12.8473  12.8474
    12.8506  12.8509  12.8517  12.8731  12.8731  12.8848  12.8958  12.8959
    12.9086  12.9207  12.9218  12.9220  12.9294  12.9297  12.9342  12.9401
    12.9403  12.9741  12.9949  12.9953  13.1034  13.6081  13.6089  13.6192
    13.6345  13.6362  13.6373  13.8017  13.8023  13.8030  13.8054  13.8055
    13.8073  13.8115  13.8119  13.8145  13.8255  13.8277  13.8280  13.8309
    13.8310  13.8317  13.8429  13.8431  13.8434  13.8520  13.8526  13.8576
    13.8856  13.8859  13.9139  13.9248  13.9251  13.9313  13.9414  13.9415
    13.9656  13.9840  13.9842  13.9924  13.9934  13.9985  13.9988  14.0039
    14.0040  14.0085  14.0412  14.0502  14.0502  14.0544  14.0545  14.0894
    14.0943  14.0946  14.1166  14.1215  14.1215  14.1231  14.1251  14.1252
    14.1293  14.1294  14.1354  14.1441  14.1442  14.1479  14.1616  14.1802
    14.1805  14.2606  14.2743  14.2747  14.4347  14.4383  14.4385  14.4492
    14.5272  14.5279  14.6466  14.8367  14.8374  14.8407  14.8412  14.8521
    14.8526  14.8562  14.8675  14.8676  14.8719  14.8723  14.8949  15.0053
    15.0056  15.0078  15.0140  15.0142  15.0193  15.0371  15.0372  15.0515
    15.0543  15.0545  15.0667  15.0761  15.0762  15.0779  15.1228  15.1229
    15.1372  15.1496  15.1501  15.1541  15.1662  15.1665  15.3022  15.3286
    15.3538  15.3544  15.4030  15.4033  15.4268  15.6546  15.6548  15.6678
    15.6680  15.6696  15.6713  15.7784  15.7787  15.8014  15.8044  15.8051
    15.8052  15.8911  15.8947  15.8950  15.8997  15.8997  15.9037  15.9111
    15.9112  15.9223  15.9368  15.9370  15.9646  16.0666  16.0669  16.0672
    16.0726  16.0727  16.0731  16.0769  16.0769  16.0774  16.0820  16.0824
    16.0852  16.0862  16.0868  16.0891  16.0891  16.0929  16.1013  16.1015
    16.1112  16.1137  16.1192  16.1194  16.1237  16.1310  16.1316  16.1394
    16.1409  16.1411  16.1412  16.1628  16.1736  16.1739  16.1949  16.1953
    16.2056  16.2131  16.2231  16.2233  16.2340  16.2456  16.2461  16.2881
[...]
Ga           14.6154643256        0.9255252255        2.6501217438
Ga           14.5977194248        0.9366904008        7.9248360320
Ga           14.6030824839        0.9353168470       13.2130489407
Ga           12.9850856704        3.7428678698        2.6380647976
Ga           12.9787679096        3.7468239236        7.9265618589
Ga           12.9805877615        3.7457484372       13.2185061403
Ga           11.3567786923        6.5568377644        2.6400782388
Ga           11.3559499075        6.5563592653        7.9274652726
Ga           11.3563448101        6.5565872624       13.2161737636
Ga            9.7339627673        9.3739779199        2.6380647976
Ga            9.7342299300        9.3665285516        7.9265618589
Ga            9.7342084574        9.3686423328       13.2185061403
Ga            8.1092617937       12.1945985753        2.6501217438
Ga            8.1100586688       12.1736484527        7.9248360320
Ga            8.1115506658       12.1789797750       13.2130489407
Ga           -0.0001279418        1.8727901627        5.2591093239
Ga            0.0026492678        1.8713201937       10.5633321704
Ga            0.0075440344        1.8686013645       15.8815088011
Ga           -1.6234831952        4.6844521601        5.2826593855
Ga           -1.6226213829        4.6827239230       10.5711578994
Ga           -1.6156460636        4.6773222003       15.8645579436
Ga           -3.2445759477        7.4929503923        5.2848692370
Ga           -3.2443807712        7.4930630775       10.5722590983
Ga           -3.2442250210        7.4931529999       15.8596177487
Ga           -4.8662603869       10.3011070138        5.2826593855
Ga           -4.8673261780       10.3027174837       10.5711578994
Ga           -4.8685165474       10.3114591488       15.8645579436
Ga           -6.4895534766       13.1128049014        5.2591093239
Ga           -6.4894379023       13.1159450200       10.5633321704
Ga           -6.4893450942       13.1215434268       15.8815088011
Ga            3.2447303590        1.8733486251        5.2596598471
Ga            3.2420592131        1.8718064383       10.5635820807
Ga            3.2369781506        1.8688728855       15.8810142023
Ga            1.6227905001        4.6835017911        5.2883349648
Ga            1.6228775668        4.6829025107       10.5686873283
Ga            1.6229742924        4.6823261489       15.8600820917
Ga            0.0007474470        7.4939594840        5.2854046510
Ga           -0.0000255646        7.4932732907       10.5722111959
Ga            0.0000826245        7.4927129587       15.8606568639
Ga           -1.6210403513       10.3029783497        5.2854046510
Ga           -1.6220211178       10.3026519987       10.5722111959
Ga           -1.6224522850       10.3030258592       15.8606568639
Ga           -3.2439465830       13.1129376863        5.2883349648
Ga           -3.2444220417       13.1133127285       10.5686873283
Ga           -3.2448728228       13.1136846762       15.8600820917
Ga            6.4904266809        1.8729411195        5.2825413171
Ga            6.4885883724        1.8730910678       10.5713224012
Ga            6.4809782019        1.8701212994       15.8648860668
Ga            4.8672256098        4.6844078458        5.2825413171
Ga            4.8664363146        4.6827408497       10.5713224012
Ga            4.8600593344        4.6776351329       15.8648860668
Ga            3.2440636393        7.4934406380        5.2851980218
Ga            3.2448060279        7.4927598042       10.5720261449
Ga            3.2447016404        7.4922156053       15.8604456192
Ga            1.6219292912       10.3026285020        5.2846299000
Ga            1.6219394292       10.3026343552       10.5722089364
Ga            1.6219191808       10.3026226647       15.8601243241
Ga            0.0001684110       13.1120319878        5.2851980218
Ga           -0.0000500140       13.1130153321       10.5720261449
Ga           -0.0005734979       13.1131970294       15.8604456192
Ga            9.7337502412        1.8729356893        5.2850414177
Ga            9.7337845430        1.8727314643       10.5723572819
Ga            9.7337485618        1.8725143484       15.8596807998
Ga            8.1103317122        4.6825048763        5.2825214343
Ga            8.1109175208        4.6828430930       10.5716844216
Ga            8.1087195589        4.6815740991       15.8599113031
Ga            6.4888826872        7.4932111569        5.2850414177
Ga            6.4887229740        7.4933429756       10.5723572819
Ga            6.4885169555        7.4934203729       15.8596807998
Ga            4.8662651989       10.3027042793        5.2853212411
Ga            4.8672948265       10.3023939403       10.5720389352
Ga            4.8676427508       10.3028290590       15.8603834925
Ga            3.2441628702       13.1122679279        5.2853212411
Ga            3.2444089225       13.1133147810       10.5720389352
Ga            3.2449597085       13.1133985330       15.8603834925
Ga           12.9766343250        1.8732811182        5.2829976856
Ga           12.9786098090        1.8733883358       10.5714454282
Ga           12.9861383571        1.8697979316       15.8646963531
Ga           11.3572354309        4.6825726974        5.2826233271
Ga           11.3567489957        4.6828944853       10.5718607432
Ga           11.3588793630        4.6815684559       15.8601424507
Ga            9.7338423064        7.4943720699        5.2826233271
Ga            9.7338777653        7.4937899107       10.5718607432
Ga            9.7337945738        7.4962978776       15.8601424507
Ga            8.1106238793       10.3014584405        5.2829976856
Ga            8.1117044746       10.3031156510       10.5714454282
Ga            8.1123593672       10.3114307670       15.8646963531
Ga            6.4892040471       13.1127508926        5.2883919361
Ga            6.4897875522       13.1130877795       10.5687433876
Ga            6.4903478859       13.1134112883       15.8599506771
N             1.6224073628        0.9366958567        4.8193136277
N             1.6223372175        0.9366553583        9.9050464642
N             1.6221012318        0.9365191119       15.2036608991
N            -0.0011822870        3.7556699399        4.6367248195
N            -0.0002684435        3.7475671260        9.9175666515
N             0.0045474924        3.7491303885       15.1989000969
N            -1.6221652978        6.5593415670        4.6328569348
N            -1.6222852944        6.5563873877        9.9194721020
N            -1.6218842523        6.5541929887       15.2091953232
N            -3.2418959888        9.3647974183        4.6328569348
N            -3.2445143814        9.3661705879        9.9194721020
N            -3.2462142656        9.3676151001       15.2091953232
N            -4.8594553362       12.1704456984        4.6367248195
N            -4.8660156571       12.1752885170        9.9175666515
N            -4.8622538641       12.1786776086       15.1989000969
N             4.8752379831        0.9330362913        4.6364280745
N             4.8679613798        0.9364791512        9.9172900467
N             4.8670403998        0.9317567765       15.1987528903
N             3.2456533963        3.7555595909        4.6364280745
N             3.2449966988        3.7475364376        9.9172900467
N             3.2404465123        3.7491000329       15.1987528903
N             1.6223584530        6.5578751527        4.6332746930
N             1.6223484906        6.5570900371        9.9193170416
N             1.6223630248        6.5577462821       15.2072194088
N             0.0004893498        9.3664855655        4.6318615282
N             0.0000968497        9.3662589554        9.9196120228
N            -0.0003657778        9.3659918573       15.2075691581
N            -1.6209040654       12.1753706170        4.6332746930
N            -1.6215889767       12.1757545471        9.9193170416
N            -1.6210133848       12.1754390115       15.2072194088
N             8.1138927353        0.9351200348        4.6327445386
N             8.1113982204        0.9367119356        9.9193564020
N             8.1093684374        0.9374405210       15.2090689768
N             6.4885678474        3.7461749225        4.6299462502
N             6.4889238747        3.7463804750        9.9189002103
N             6.4854424356        3.7443704651       15.2105442725
N             4.8667853473        6.5592750088        4.6327445386
N             4.8669167164        6.5563187451        9.9193564020
N             4.8665327983        6.5541966087       15.2090689768
N             3.2441141418        9.3664351581        4.6319899488
N             3.2445142089        9.3662192218        9.9197439341
N             3.2449257744        9.3659622734       15.2076782408
N             1.6222580917       12.1755722395        4.6319899488
N             1.6222711189       12.1760266759        9.9197439341
N             1.6222543779       12.1765115763       15.2076782408
N            11.3534090469        0.9351316413        4.6328352847
N            11.3559824013        0.9367764093        9.9194100123
N            11.3578156511        0.9373170342       15.2089327314
N             9.7337208825        3.7461378958        4.6312929319
N             9.7337609662        3.7464861055        9.9197762689
N             9.7337411028        3.7464316306       15.2085127357
N             8.1111122988        6.5565784035        4.6312929319
N             8.1114338991        6.5564390121        9.9197762689
N             8.1113767908        6.5564490474       15.2085127357
N             6.4865535546        9.3647726274        4.6328352847
N             6.4892646426        9.3661788336        9.9194100123
N             6.4906494625        9.3674961621       15.2089327314
N             4.8655584013       12.1753344921        4.6334920521
N             4.8663238789       12.1757764408        9.9195208566
N             4.8657939861       12.1754705070       15.2072616915
N            14.5917658940        0.9329753809        4.6364747986
N            14.5994026348        0.9364166183        9.9173107184
N            14.6003883226        0.9316975037       15.1987141967
N            12.9787089574        3.7461015096        4.6298189598
N            12.9783529584        3.7463658066        9.9187667897
N            12.9819667753        3.7441358178       15.2105066947
N            11.3562508774        6.5565330303        4.6311120361
N            11.3559770082        6.5563749119        9.9195980787
N            11.3559700619        6.5563709014       15.2083894570
N             9.7335748250        9.3668387046        4.6298189598
N             9.7336257134        9.3663982519        9.9187667897
N             9.7335013949        9.3706429035       15.2105066947
N             8.1038646018       12.1703500537        4.6364747986
N             8.1106631712       12.1752430466        9.9173107184
N             8.1070691420       12.1784562346       15.1987141967
N            -0.1513608692        1.9602113722        1.9354119556
N            -0.0110268114        1.8797177314        7.2814813346
N             0.0005644957        1.8729819370       12.5569857284
N            -1.6266624349        4.6968553389        1.9894095366
N            -1.6241680749        4.6856043819        7.2742759052
N            -1.6218213465        4.6825364622       12.5626516388
N            -3.2445012262        7.4929935327        1.9867902221
N            -3.2446571223        7.4929035261        7.2757124558
N            -3.2439104008        7.4933346459       12.5644871492
N            -4.8571085388       10.2921521221        1.9894095366
N            -4.8656049734       10.2999377797        7.2742759052
N            -4.8670885056       10.3035040659       12.5626516388
N            -6.4894609521       12.9381227397        1.9354119556
N            -6.4890034610       13.0999024192        7.2814813346
N            -6.4890411765       13.1133086828       12.5569857284
N             3.3951553280        1.9601965214        1.9351528137
N             3.2556516566        1.8796540392        7.2818295958
N             3.2438788290        1.8728569940       12.5572776823
N             1.6217729429        4.6927282375        1.9873975475
N             1.6222988357        4.6849561284        7.2783079513
N             1.6221999923        4.6836507444       12.5585341195
N             0.0008309312        7.4959901388        1.9878598627
N            -0.0000036560        7.4933970281        7.2764066699
N            -0.0001180765        7.4926359217       12.5636888543
N            -1.6192400105       10.3020353218        1.9878598627
N            -1.6219030038       10.3026091033        7.2764066699
N            -1.6226193515       10.3028905656       12.5636888543
N            -3.2364650246       13.1074432327        1.9873975475
N            -3.2429329221       13.1117847237        7.2783079513
N            -3.2441128395       13.1123518148       12.5585341195
N             6.5028696994        1.8699807625        1.9897151218
N             6.4923133428        1.8738300133        7.2742247287
N             6.4883687856        1.8732190248       12.5627892751
N             4.8708833747        4.6966639944        1.9897151218
N             4.8689387453        4.6855972960        7.2742247287
N             4.8664373352        4.6824867035       12.5627892751
N             3.2437688040        7.4959898433        1.9876688693
N             3.2446864917        7.4934701976        7.2762225562
N             3.2447770394        7.4926842092       12.5635297014
N             1.6223936250       10.3028965852        1.9870561593
N             1.6223932075       10.3028963442        7.2759166842
N             1.6223818143       10.3028897663       12.5636219361
N             0.0022286700       13.1105020504        1.9876688693
N             0.0005054366       13.1125566140        7.2762225562
N            -0.0001299755       13.1130280248       12.5635297014
N             9.7335166908        1.8732929848        1.9868370065
N             9.7336303034        1.8734658918        7.2758521079
N             9.7336482714        1.8726181702       12.5645570665
N             8.1100391914        4.6823359893        1.9875948699
N             8.1115049562        4.6831822490        7.2747352800
N             8.1104476317        4.6825718024       12.5642130169
N             6.4890753389        7.4928302486        1.9868370065
N             6.4892818871        7.4928421865        7.2758521079
N             6.4885567227        7.4932816079       12.5645570665
N             4.8635428699       10.3018375161        1.9876125809
N             4.8664356878       10.3025996296        7.2763078908
N             4.8671396297       10.3029115200       12.5635059266
N             3.2420510667       13.1103437034        1.9876125809
N             3.2441574854       13.1124679005        7.2763078908
N             3.2447795613       13.1129215869       12.5635059266
N            12.9637009508        1.8699604543        1.9895606167
N            12.9751185460        1.8737772231        7.2745510703
N            12.9790107373        1.8732439109       12.5629030336
N            11.3573614073        4.6823052412        1.9878188659
N            11.3558709244        4.6832086340        7.2748401902
N            11.3569098694        4.6826072673       12.5643621329
N             9.7336736708        7.4946148967        1.9878188659
N             9.7337107904        7.4928724043        7.2748401902
N             9.7337094641        7.4940728404       12.5643621329
N             8.1012814129       10.2919181419        1.9895606167
N             8.1102956293       10.2998976849        7.2745510703
N             8.1117798630       10.3035350776       12.5629030336
N             6.4801298815       13.1075119207        1.9872997126
N             6.4875637608       13.1118038729        7.2783757856
N             6.4887420745       13.1124841726       12.5585989097
End final coordinates



     Writing all to output data dir ./GaN.save/
 
     init_run     :      6.71s CPU      7.23s WALL (       1 calls)
     electrons    :  86224.44s CPU  87006.87s WALL (       2 calls)
     update_pot   :      2.51s CPU      2.56s WALL (       1 calls)
     forces       :    128.90s CPU    131.06s WALL (       2 calls)
     stress       :   2519.26s CPU   2548.42s WALL (       2 calls)

     Called by init_run:
     wfcinit      :      0.50s CPU      0.56s WALL (       1 calls)
     potinit      :      1.66s CPU      1.90s WALL (       1 calls)
     hinit0       :      1.25s CPU      1.34s WALL (       1 calls)

     Called by electrons:
     c_bands      :  85650.43s CPU  86422.52s WALL (      25 calls)
     sum_band     :    523.05s CPU    529.89s WALL (      25 calls)
     v_of_rho     :     23.37s CPU     24.45s WALL (      26 calls)
     v_h          :      0.23s CPU      0.23s WALL (      26 calls)
     v_xc         :     26.65s CPU     27.97s WALL (      30 calls)
     newd         :      4.95s CPU      5.12s WALL (      26 calls)
     PAW_pot      :     14.40s CPU     14.53s WALL (      27 calls)
     mix_rho      :      1.37s CPU      1.64s WALL (      25 calls)
     vdW_kernel   :      0.16s CPU      0.17s WALL (       1 calls)

     Called by c_bands:
     init_us_2    :     25.60s CPU     26.11s WALL (     110 calls)
     init_us_2:cp :     25.60s CPU     26.11s WALL (     110 calls)
     cegterg      :  73871.04s CPU  74562.59s WALL (      78 calls)

     Called by sum_band:
     sum_band:wei :      0.61s CPU      0.61s WALL (      25 calls)
     sum_band:loo :    512.26s CPU    516.64s WALL (      25 calls)
     sum_band:buf :      6.19s CPU      6.27s WALL (      50 calls)
     sum_band:ini :     13.20s CPU     13.35s WALL (      50 calls)
     sum_band:cal :    365.12s CPU    367.88s WALL (      52 calls)
     sum_band:bec :      3.14s CPU      3.18s WALL (      52 calls)
     addusdens    :      5.01s CPU      5.18s WALL (      25 calls)
     addusd:skk   :      1.06s CPU      1.10s WALL (      50 calls)
     addusd:dgemm :      2.38s CPU      2.48s WALL (      50 calls)
     addusd:qvan2 :      0.59s CPU      0.61s WALL (      50 calls)

     Called by *egterg:
     cdiaghg      :  59229.32s CPU  59605.47s WALL (    1416 calls)
     cegterg:over :   3122.09s CPU   3191.65s WALL (    1342 calls)
     cegterg:upda :   2026.71s CPU   2054.38s WALL (    1342 calls)
     cegterg:last :   1504.90s CPU   1516.20s WALL (     108 calls)
     h_psi        :   5421.43s CPU   5503.00s WALL (    1420 calls)
     s_psi        :   1927.88s CPU   1958.41s WALL (    1420 calls)
     g_psi        :      5.72s CPU      5.78s WALL (    1342 calls)

     Called by h_psi:
     h_psi:calbec :   2035.92s CPU   2053.72s WALL (    1420 calls)
     vloc_psi     :   1432.20s CPU   1448.27s WALL (    1420 calls)
     add_vuspsi   :   1929.39s CPU   1963.34s WALL (    1420 calls)

     General routines
     calbec       :   2618.13s CPU   2640.32s WALL (    1492 calls)
     fft          :     11.68s CPU     11.84s WALL (    1974 calls)
     ffts         :      0.22s CPU      0.22s WALL (      51 calls)
     fftw         :   1449.11s CPU   1465.43s WALL (  952810 calls)
     interpolate  :      0.32s CPU      0.33s WALL (      26 calls)
     davcio       :      0.01s CPU      1.72s WALL (      18 calls)
 
     Parallel routines

     PAW routines
     PAW_pot      :     14.40s CPU     14.53s WALL (      27 calls)
     PAW_symme    :      0.19s CPU      0.20s WALL (      51 calls)
 
     PWSCF        :   1d 0h41m CPU   1d 0h55m WALL

 
   This run was terminated on:  10:16:18  13Feb2024            

=------------------------------------------------------------------------------=
   JOB DONE.
=------------------------------------------------------------------------------=
