
     Program PWSCF v.7.1 starts on 29Sep2023 at 10: 7:41 

     This program is part of the open-source Quantum ESPRESSO suite
     for quantum simulation of materials; please cite
         "P. Giannozzi et al., J. Phys.:Condens. Matter 21 395502 (2009);
         "P. Giannozzi et al., J. Phys.:Condens. Matter 29 465901 (2017);
         "P. Giannozzi et al., J. Chem. Phys. 152 154105 (2020);
          URL http://www.quantum-espresso.org", 
     in publications or presentations arising from this work. More details at
     http://www.quantum-espresso.org/quote

     Parallel version (MPI & OpenMP), running on     256 processor cores
     Number of MPI processes:               256
     Threads/MPI process:                     1

     MPI processes distributed on     2 nodes
     1845205 MiB available memory on the printing compute node when the environment starts
 
     Reading input from espresso.pwi
Warning: card &CELL ignored
Warning: card    CELL_DYNAMICS    = 'BFGS' ignored
Warning: card / ignored

     Current dimensions of program PWSCF are:
     Max number of different atomic species (ntypx) = 10
     Max number of k-points (npk) =  40000
     Max angular momentum in pseudopotentials (lmaxx) =  4
     file C.pbe-n-kjpaw_psl.1.0.0.UPF: wavefunction(s)  2S 2P renormalized

     **************************************************************************
     Initializing libbeef V0.1.2 with the BEEF-vdW functional.
     Citation: Wellendorff et al., PRB 85, 235149 (2012).
     **************************************************************************


     IMPORTANT: XC functional enforced from input :
     Exchange-correlation= BEEF-VDW
                           (   1   4  43  14   2   0   0)
     Any further DFT definition will be discarded
     Please, verify this is what you really want

 
     K-points division:     npool     =       4
     R & G space division:  proc/nbgrp/npool/nimage =      64
     Subspace diagonalization in iterative solution of the eigenvalue problem:
     a serial algorithm will be used

 
     Parallelization info
     --------------------
     sticks:   dense  smooth     PW     G-vecs:    dense   smooth      PW
     Min         178     142     38                14350    10258    1410
     Max         179     143     39                14357    10265    1416
     Sum       11433    9133   2433               918657   656775   90447
 
     Using Slab Decomposition
 


     bravais-lattice index     =            1
     lattice parameter (alat)  =      20.2520  a.u.
     unit-cell volume          =    8306.2556 (a.u.)^3
     number of atoms/cell      =          215
     number of atomic types    =            1
     number of electrons       =       859.00
     number of Kohn-Sham states=          516
     kinetic-energy cutoff     =      70.0000  Ry
     charge density cutoff     =     350.0000  Ry
     scf convergence threshold =      1.0E-08
     mixing beta               =       0.7000
     number of iterations used =            8  plain     mixing
     energy convergence thresh.=      1.0E-04
     force convergence thresh. =      1.0E-03
     Exchange-correlation= BEEF-VDW
                           (   1   4  43  14   2   0   0)
     nstep                     =           50


     celldm(1)=  20.252024  celldm(2)=   0.000000  celldm(3)=   0.000000
     celldm(4)=   0.000000  celldm(5)=   0.000000  celldm(6)=   0.000000

     crystal axes: (cart. coord. in units of alat)
               a(1) = (   1.000000   0.000000   0.000000 )  
               a(2) = (   0.000000   1.000000   0.000000 )  
               a(3) = (   0.000000   0.000000   1.000000 )  

     reciprocal axes: (cart. coord. in units 2 pi/alat)
               b(1) = (  1.000000  0.000000  0.000000 )  
               b(2) = (  0.000000  1.000000  0.000000 )  
               b(3) = (  0.000000  0.000000  1.000000 )  


     PseudoPot. # 1 for C  read from file:
     //group///packages/espresso/pseudo/psl_1.0.0/pslibrary.1.0.0/pbe/PSEUDOPOTENTIALS/C.pbe-n-kjpaw_psl.1.0.0.UPF
     MD5 check sum: 5459cf7f2c8c37df2f7cde8914797f4d
     Pseudo is Projector augmented-wave + core cor, Zval =  4.0
     Generated using 'atomic' code by A. Dal Corso  v.7.1
     Shape of augmentation charge: PSQ
     Using radial grid of 1073 points,  4 beta functions with: 
                l(1) =   0
                l(2) =   0
                l(3) =   1
                l(4) =   1
     Q(r) pseudized with 0 coefficients 


     atomic species   valence    mass     pseudopotential
        C              4.00    12.01100     C ( 1.00)

      6 Sym. Ops. (no inversion) found ( 4 have fractional translation)


                                    s                        frac. trans.

      isym =  1     identity                                     

 cryst.   s( 1) = (     1          0          0      )
                  (     0          1          0      )
                  (     0          0          1      )

 cart.    s( 1) = (  1.0000000  0.0000000  0.0000000 )
                  (  0.0000000  1.0000000  0.0000000 )
                  (  0.0000000  0.0000000  1.0000000 )


      isym =  2     120 deg rotation - cart. axis [1,-1,1]       

 cryst.   s( 2) = (     0          0          1      )    f =( -0.3333333 )
                  (    -1          0          0      )       ( -0.3333333 )
                  (     0         -1          0      )       (  0.0000000 )

 cart.    s( 2) = (  0.0000000 -1.0000000  0.0000000 )    f =( -0.3333333 )
                  (  0.0000000  0.0000000 -1.0000000 )       ( -0.3333333 )
                  (  1.0000000  0.0000000  0.0000000 )       (  0.0000000 )


      isym =  3     120 deg rotation - cart. axis [-1,1,-1]      

 cryst.   s( 3) = (     0         -1          0      )    f =(  0.0000000 )
                  (     0          0         -1      )       ( -0.3333333 )
                  (     1          0          0      )       ( -0.3333333 )

 cart.    s( 3) = (  0.0000000  0.0000000  1.0000000 )    f =(  0.0000000 )
                  ( -1.0000000  0.0000000  0.0000000 )       ( -0.3333333 )
                  (  0.0000000 -1.0000000  0.0000000 )       ( -0.3333333 )


      isym =  4     inv. 180 deg rotation - cart. axis [1,1,0]   

 cryst.   s( 4) = (     0         -1          0      )    f =( -0.3333333 )
                  (    -1          0          0      )       ( -0.3333333 )
                  (     0          0          1      )       (  0.0000000 )

 cart.    s( 4) = (  0.0000000 -1.0000000  0.0000000 )    f =( -0.3333333 )
                  ( -1.0000000  0.0000000  0.0000000 )       ( -0.3333333 )
                  (  0.0000000  0.0000000  1.0000000 )       (  0.0000000 )


      isym =  5     inv. 180 deg rotation - cart. axis [-1,0,1]  

 cryst.   s( 5) = (     0          0          1      )
                  (     0          1          0      )
                  (     1          0          0      )

 cart.    s( 5) = (  0.0000000  0.0000000  1.0000000 )
                  (  0.0000000  1.0000000  0.0000000 )
                  (  1.0000000  0.0000000  0.0000000 )


      isym =  6     inv. 180 deg rotation - cart. axis [0,1,1]   

 cryst.   s( 6) = (     1          0          0      )    f =(  0.0000000 )
                  (     0          0         -1      )       ( -0.3333333 )
                  (     0         -1          0      )       ( -0.3333333 )

 cart.    s( 6) = (  1.0000000  0.0000000  0.0000000 )    f =(  0.0000000 )
                  (  0.0000000  0.0000000 -1.0000000 )       ( -0.3333333 )
                  (  0.0000000 -1.0000000  0.0000000 )       ( -0.3333333 )


     point group C_3v (3m)  
     there are  3 classes
     the character table:

       E     2C3   3s_v 
A_1    1.00  1.00  1.00
A_2    1.00  1.00 -1.00
E      2.00 -1.00  0.00

     the symmetry operations in each class and the name of the first element:

     E        1
          identity                                               
     2C3      2    3
          120 deg rotation - cart. axis [1,-1,1]                 
     3s_v     4    5    6
          inv. 180 deg rotation - cart. axis [1,1,0]             

   Cartesian axes

     site n.     atom                  positions (alat units)
         1           C   tau(   1) = (   0.0833353   0.2499980   0.4166687  )
         2           C   tau(   2) = (   0.0833353   0.2499980   0.7500020  )
         3           C   tau(   3) = (   0.0833353   0.5833313   0.0833353  )
         4           C   tau(   4) = (   0.0833353   0.5833313   0.4166687  )
         5           C   tau(   5) = (   0.0833353   0.5833313   0.7500020  )
         6           C   tau(   6) = (   0.0833353   0.9166647   0.0833353  )
         7           C   tau(   7) = (   0.0833353   0.9166647   0.4166687  )
         8           C   tau(   8) = (   0.0833353   0.9166647   0.7500020  )
         9           C   tau(   9) = (   0.4166687   0.2499980   0.0833353  )
        10           C   tau(  10) = (   0.4166687   0.2499980   0.4166687  )
        11           C   tau(  11) = (   0.4166687   0.2499980   0.7500020  )
        12           C   tau(  12) = (   0.4166687   0.5833313   0.0833353  )
        13           C   tau(  13) = (   0.4166687   0.5833313   0.4166687  )
        14           C   tau(  14) = (   0.4166687   0.5833313   0.7500020  )
        15           C   tau(  15) = (   0.4166687   0.9166647   0.0833353  )
        16           C   tau(  16) = (   0.4166687   0.9166647   0.4166687  )
        17           C   tau(  17) = (   0.4166687   0.9166647   0.7500020  )
        18           C   tau(  18) = (   0.7500020   0.2499980   0.0833353  )
        19           C   tau(  19) = (   0.7500020   0.2499980   0.4166687  )
        20           C   tau(  20) = (   0.7500020   0.2499980   0.7500020  )
        21           C   tau(  21) = (   0.7500020   0.5833313   0.0833353  )
        22           C   tau(  22) = (   0.7500020   0.5833313   0.4166687  )
        23           C   tau(  23) = (   0.7500020   0.5833313   0.7500020  )
        24           C   tau(  24) = (   0.7500020   0.9166647   0.0833353  )
        25           C   tau(  25) = (   0.7500020   0.9166647   0.4166687  )
        26           C   tau(  26) = (   0.7500020   0.9166647   0.7500020  )
        27           C   tau(  27) = (   0.0000000   0.0000000   0.1666667  )
        28           C   tau(  28) = (   0.0000000   0.0000000   0.5000000  )
        29           C   tau(  29) = (   0.0000000   0.0000000   0.8333333  )
        30           C   tau(  30) = (   0.0000000   0.3333333   0.1666667  )
        31           C   tau(  31) = (   0.0000000   0.3333333   0.5000000  )
        32           C   tau(  32) = (   0.0000000   0.3333333   0.8333333  )
        33           C   tau(  33) = (   0.0000000   0.6666667   0.1666667  )
        34           C   tau(  34) = (   0.0000000   0.6666667   0.5000000  )
        35           C   tau(  35) = (   0.0000000   0.6666667   0.8333333  )
        36           C   tau(  36) = (   0.3333333   0.0000000   0.1666667  )
        37           C   tau(  37) = (   0.3333333   0.0000000   0.5000000  )
        38           C   tau(  38) = (   0.3333333   0.0000000   0.8333333  )
        39           C   tau(  39) = (   0.3333333   0.3333333   0.1666667  )
        40           C   tau(  40) = (   0.3333333   0.3333333   0.5000000  )
        41           C   tau(  41) = (   0.3333333   0.3333333   0.8333333  )
        42           C   tau(  42) = (   0.3333333   0.6666667   0.1666667  )
        43           C   tau(  43) = (   0.3333333   0.6666667   0.5000000  )
        44           C   tau(  44) = (   0.3333333   0.6666667   0.8333333  )
        45           C   tau(  45) = (   0.6666667   0.0000000   0.1666667  )
        46           C   tau(  46) = (   0.6666667   0.0000000   0.5000000  )
        47           C   tau(  47) = (   0.6666667   0.0000000   0.8333333  )
        48           C   tau(  48) = (   0.6666667   0.3333333   0.1666667  )
        49           C   tau(  49) = (   0.6666667   0.3333333   0.5000000  )
        50           C   tau(  50) = (   0.6666667   0.3333333   0.8333333  )
        51           C   tau(  51) = (   0.6666667   0.6666667   0.1666667  )
        52           C   tau(  52) = (   0.6666667   0.6666667   0.5000000  )
        53           C   tau(  53) = (   0.6666667   0.6666667   0.8333333  )
        54           C   tau(  54) = (   0.0833353   0.0833353   0.2499980  )
        55           C   tau(  55) = (   0.0833353   0.0833353   0.5833313  )
        56           C   tau(  56) = (   0.0833353   0.0833353   0.9166647  )
        57           C   tau(  57) = (   0.0833353   0.4166687   0.2499980  )
        58           C   tau(  58) = (   0.0833353   0.4166687   0.5833313  )
        59           C   tau(  59) = (   0.0833353   0.4166687   0.9166647  )
        60           C   tau(  60) = (   0.0833353   0.7500020   0.2499980  )
        61           C   tau(  61) = (   0.0833353   0.7500020   0.5833313  )
        62           C   tau(  62) = (   0.0833353   0.7500020   0.9166647  )
        63           C   tau(  63) = (   0.4166687   0.0833353   0.2499980  )
        64           C   tau(  64) = (   0.4166687   0.0833353   0.5833313  )
        65           C   tau(  65) = (   0.4166687   0.0833353   0.9166647  )
        66           C   tau(  66) = (   0.4166687   0.4166687   0.2499980  )
        67           C   tau(  67) = (   0.4166687   0.4166687   0.5833313  )
        68           C   tau(  68) = (   0.4166687   0.4166687   0.9166647  )
        69           C   tau(  69) = (   0.4166687   0.7500020   0.2499980  )
        70           C   tau(  70) = (   0.4166687   0.7500020   0.5833313  )
        71           C   tau(  71) = (   0.4166687   0.7500020   0.9166647  )
        72           C   tau(  72) = (   0.7500020   0.0833353   0.2499980  )
        73           C   tau(  73) = (   0.7500020   0.0833353   0.5833313  )
        74           C   tau(  74) = (   0.7500020   0.0833353   0.9166647  )
        75           C   tau(  75) = (   0.7500020   0.4166687   0.2499980  )
        76           C   tau(  76) = (   0.7500020   0.4166687   0.5833313  )
        77           C   tau(  77) = (   0.7500020   0.4166687   0.9166647  )
        78           C   tau(  78) = (   0.7500020   0.7500020   0.2499980  )
        79           C   tau(  79) = (   0.7500020   0.7500020   0.5833313  )
        80           C   tau(  80) = (   0.7500020   0.7500020   0.9166647  )
        81           C   tau(  81) = (   0.0000000   0.1666667   0.0000000  )
        82           C   tau(  82) = (   0.0000000   0.1666667   0.3333333  )
        83           C   tau(  83) = (   0.0000000   0.1666667   0.6666667  )
        84           C   tau(  84) = (   0.0000000   0.5000000   0.0000000  )
        85           C   tau(  85) = (   0.0000000   0.5000000   0.3333333  )
        86           C   tau(  86) = (   0.0000000   0.5000000   0.6666667  )
        87           C   tau(  87) = (   0.0000000   0.8333333   0.0000000  )
        88           C   tau(  88) = (   0.0000000   0.8333333   0.3333333  )
        89           C   tau(  89) = (   0.0000000   0.8333333   0.6666667  )
        90           C   tau(  90) = (   0.3333333   0.1666667   0.0000000  )
        91           C   tau(  91) = (   0.3333333   0.1666667   0.3333333  )
        92           C   tau(  92) = (   0.3333333   0.1666667   0.6666667  )
        93           C   tau(  93) = (   0.3333333   0.5000000   0.0000000  )
        94           C   tau(  94) = (   0.3333333   0.5000000   0.3333333  )
        95           C   tau(  95) = (   0.3333333   0.5000000   0.6666667  )
        96           C   tau(  96) = (   0.3333333   0.8333333   0.0000000  )
        97           C   tau(  97) = (   0.3333333   0.8333333   0.3333333  )
        98           C   tau(  98) = (   0.3333333   0.8333333   0.6666667  )
        99           C   tau(  99) = (   0.6666667   0.1666667   0.0000000  )
       100           C   tau( 100) = (   0.6666667   0.1666667   0.3333333  )
       101           C   tau( 101) = (   0.6666667   0.1666667   0.6666667  )
       102           C   tau( 102) = (   0.6666667   0.5000000   0.0000000  )
       103           C   tau( 103) = (   0.6666667   0.5000000   0.3333333  )
       104           C   tau( 104) = (   0.6666667   0.5000000   0.6666667  )
       105           C   tau( 105) = (   0.6666667   0.8333333   0.0000000  )
       106           C   tau( 106) = (   0.6666667   0.8333333   0.3333333  )
       107           C   tau( 107) = (   0.6666667   0.8333333   0.6666667  )
       108           C   tau( 108) = (   0.2499980   0.2499980   0.2499980  )
       109           C   tau( 109) = (   0.2499980   0.2499980   0.5833313  )
       110           C   tau( 110) = (   0.2499980   0.2499980   0.9166647  )
       111           C   tau( 111) = (   0.2499980   0.5833313   0.2499980  )
       112           C   tau( 112) = (   0.2499980   0.5833313   0.5833313  )
       113           C   tau( 113) = (   0.2499980   0.5833313   0.9166647  )
       114           C   tau( 114) = (   0.2499980   0.9166647   0.2499980  )
       115           C   tau( 115) = (   0.2499980   0.9166647   0.5833313  )
       116           C   tau( 116) = (   0.2499980   0.9166647   0.9166647  )
       117           C   tau( 117) = (   0.5833313   0.2499980   0.2499980  )
       118           C   tau( 118) = (   0.5833313   0.2499980   0.5833313  )
       119           C   tau( 119) = (   0.5833313   0.2499980   0.9166647  )
       120           C   tau( 120) = (   0.5833313   0.5833313   0.2499980  )
       121           C   tau( 121) = (   0.5833313   0.5833313   0.5833313  )
       122           C   tau( 122) = (   0.5833313   0.5833313   0.9166647  )
       123           C   tau( 123) = (   0.5833313   0.9166647   0.2499980  )
       124           C   tau( 124) = (   0.5833313   0.9166647   0.5833313  )
       125           C   tau( 125) = (   0.5833313   0.9166647   0.9166647  )
       126           C   tau( 126) = (   0.9166647   0.2499980   0.2499980  )
       127           C   tau( 127) = (   0.9166647   0.2499980   0.5833313  )
       128           C   tau( 128) = (   0.9166647   0.2499980   0.9166647  )
       129           C   tau( 129) = (   0.9166647   0.5833313   0.2499980  )
       130           C   tau( 130) = (   0.9166647   0.5833313   0.5833313  )
       131           C   tau( 131) = (   0.9166647   0.5833313   0.9166647  )
       132           C   tau( 132) = (   0.9166647   0.9166647   0.2499980  )
       133           C   tau( 133) = (   0.9166647   0.9166647   0.5833313  )
       134           C   tau( 134) = (   0.9166647   0.9166647   0.9166647  )
       135           C   tau( 135) = (   0.1666667   0.0000000   0.0000000  )
       136           C   tau( 136) = (   0.1666667   0.0000000   0.3333333  )
       137           C   tau( 137) = (   0.1666667   0.0000000   0.6666667  )
       138           C   tau( 138) = (   0.1666667   0.3333333   0.0000000  )
       139           C   tau( 139) = (   0.1666667   0.3333333   0.3333333  )
       140           C   tau( 140) = (   0.1666667   0.3333333   0.6666667  )
       141           C   tau( 141) = (   0.1666667   0.6666667   0.0000000  )
       142           C   tau( 142) = (   0.1666667   0.6666667   0.3333333  )
       143           C   tau( 143) = (   0.1666667   0.6666667   0.6666667  )
       144           C   tau( 144) = (   0.5000000   0.0000000   0.0000000  )
       145           C   tau( 145) = (   0.5000000   0.0000000   0.3333333  )
       146           C   tau( 146) = (   0.5000000   0.0000000   0.6666667  )
       147           C   tau( 147) = (   0.5000000   0.3333333   0.0000000  )
       148           C   tau( 148) = (   0.5000000   0.3333333   0.3333333  )
       149           C   tau( 149) = (   0.5000000   0.3333333   0.6666667  )
       150           C   tau( 150) = (   0.5000000   0.6666667   0.0000000  )
       151           C   tau( 151) = (   0.5000000   0.6666667   0.3333333  )
       152           C   tau( 152) = (   0.5000000   0.6666667   0.6666667  )
       153           C   tau( 153) = (   0.8333333   0.0000000   0.0000000  )
       154           C   tau( 154) = (   0.8333333   0.0000000   0.3333333  )
       155           C   tau( 155) = (   0.8333333   0.0000000   0.6666667  )
       156           C   tau( 156) = (   0.8333333   0.3333333   0.0000000  )
       157           C   tau( 157) = (   0.8333333   0.3333333   0.3333333  )
       158           C   tau( 158) = (   0.8333333   0.3333333   0.6666667  )
       159           C   tau( 159) = (   0.8333333   0.6666667   0.0000000  )
       160           C   tau( 160) = (   0.8333333   0.6666667   0.3333333  )
       161           C   tau( 161) = (   0.8333333   0.6666667   0.6666667  )
       162           C   tau( 162) = (   0.2499980   0.0833353   0.0833353  )
       163           C   tau( 163) = (   0.2499980   0.0833353   0.4166687  )
       164           C   tau( 164) = (   0.2499980   0.0833353   0.7500020  )
       165           C   tau( 165) = (   0.2499980   0.4166687   0.0833353  )
       166           C   tau( 166) = (   0.2499980   0.4166687   0.4166687  )
       167           C   tau( 167) = (   0.2499980   0.4166687   0.7500020  )
       168           C   tau( 168) = (   0.2499980   0.7500020   0.0833353  )
       169           C   tau( 169) = (   0.2499980   0.7500020   0.4166687  )
       170           C   tau( 170) = (   0.2499980   0.7500020   0.7500020  )
       171           C   tau( 171) = (   0.5833313   0.0833353   0.0833353  )
       172           C   tau( 172) = (   0.5833313   0.0833353   0.4166687  )
       173           C   tau( 173) = (   0.5833313   0.0833353   0.7500020  )
       174           C   tau( 174) = (   0.5833313   0.4166687   0.0833353  )
       175           C   tau( 175) = (   0.5833313   0.4166687   0.4166687  )
       176           C   tau( 176) = (   0.5833313   0.4166687   0.7500020  )
       177           C   tau( 177) = (   0.5833313   0.7500020   0.0833353  )
       178           C   tau( 178) = (   0.5833313   0.7500020   0.4166687  )
       179           C   tau( 179) = (   0.5833313   0.7500020   0.7500020  )
       180           C   tau( 180) = (   0.9166647   0.0833353   0.0833353  )
       181           C   tau( 181) = (   0.9166647   0.0833353   0.4166687  )
       182           C   tau( 182) = (   0.9166647   0.0833353   0.7500020  )
       183           C   tau( 183) = (   0.9166647   0.4166687   0.0833353  )
       184           C   tau( 184) = (   0.9166647   0.4166687   0.4166687  )
       185           C   tau( 185) = (   0.9166647   0.4166687   0.7500020  )
       186           C   tau( 186) = (   0.9166647   0.7500020   0.0833353  )
       187           C   tau( 187) = (   0.9166647   0.7500020   0.4166687  )
       188           C   tau( 188) = (   0.9166647   0.7500020   0.7500020  )
       189           C   tau( 189) = (   0.1666667   0.1666667   0.1666667  )
       190           C   tau( 190) = (   0.1666667   0.1666667   0.5000000  )
       191           C   tau( 191) = (   0.1666667   0.1666667   0.8333333  )
       192           C   tau( 192) = (   0.1666667   0.5000000   0.1666667  )
       193           C   tau( 193) = (   0.1666667   0.5000000   0.5000000  )
       194           C   tau( 194) = (   0.1666667   0.5000000   0.8333333  )
       195           C   tau( 195) = (   0.1666667   0.8333333   0.1666667  )
       196           C   tau( 196) = (   0.1666667   0.8333333   0.5000000  )
       197           C   tau( 197) = (   0.1666667   0.8333333   0.8333333  )
       198           C   tau( 198) = (   0.5000000   0.1666667   0.1666667  )
       199           C   tau( 199) = (   0.5000000   0.1666667   0.5000000  )
       200           C   tau( 200) = (   0.5000000   0.1666667   0.8333333  )
       201           C   tau( 201) = (   0.5000000   0.5000000   0.1666667  )
       202           C   tau( 202) = (   0.5000000   0.5000000   0.5000000  )
       203           C   tau( 203) = (   0.5000000   0.5000000   0.8333333  )
       204           C   tau( 204) = (   0.5000000   0.8333333   0.1666667  )
       205           C   tau( 205) = (   0.5000000   0.8333333   0.5000000  )
       206           C   tau( 206) = (   0.5000000   0.8333333   0.8333333  )
       207           C   tau( 207) = (   0.8333333   0.1666667   0.1666667  )
       208           C   tau( 208) = (   0.8333333   0.1666667   0.5000000  )
       209           C   tau( 209) = (   0.8333333   0.1666667   0.8333333  )
       210           C   tau( 210) = (   0.8333333   0.5000000   0.1666667  )
       211           C   tau( 211) = (   0.8333333   0.5000000   0.5000000  )
       212           C   tau( 212) = (   0.8333333   0.5000000   0.8333333  )
       213           C   tau( 213) = (   0.8333333   0.8333333   0.1666667  )
       214           C   tau( 214) = (   0.8333333   0.8333333   0.5000000  )
       215           C   tau( 215) = (   0.8333333   0.8333333   0.8333333  )

   Crystallographic axes

     site n.     atom                  positions (cryst. coord.)
         1           C   tau(   1) = (  0.0833353  0.2499980  0.4166687  )
         2           C   tau(   2) = (  0.0833353  0.2499980  0.7500020  )
         3           C   tau(   3) = (  0.0833353  0.5833313  0.0833353  )
         4           C   tau(   4) = (  0.0833353  0.5833313  0.4166687  )
         5           C   tau(   5) = (  0.0833353  0.5833313  0.7500020  )
         6           C   tau(   6) = (  0.0833353  0.9166647  0.0833353  )
         7           C   tau(   7) = (  0.0833353  0.9166647  0.4166687  )
         8           C   tau(   8) = (  0.0833353  0.9166647  0.7500020  )
         9           C   tau(   9) = (  0.4166687  0.2499980  0.0833353  )
        10           C   tau(  10) = (  0.4166687  0.2499980  0.4166687  )
        11           C   tau(  11) = (  0.4166687  0.2499980  0.7500020  )
        12           C   tau(  12) = (  0.4166687  0.5833313  0.0833353  )
        13           C   tau(  13) = (  0.4166687  0.5833313  0.4166687  )
        14           C   tau(  14) = (  0.4166687  0.5833313  0.7500020  )
        15           C   tau(  15) = (  0.4166687  0.9166647  0.0833353  )
        16           C   tau(  16) = (  0.4166687  0.9166647  0.4166687  )
        17           C   tau(  17) = (  0.4166687  0.9166647  0.7500020  )
        18           C   tau(  18) = (  0.7500020  0.2499980  0.0833353  )
        19           C   tau(  19) = (  0.7500020  0.2499980  0.4166687  )
        20           C   tau(  20) = (  0.7500020  0.2499980  0.7500020  )
        21           C   tau(  21) = (  0.7500020  0.5833313  0.0833353  )
        22           C   tau(  22) = (  0.7500020  0.5833313  0.4166687  )
        23           C   tau(  23) = (  0.7500020  0.5833313  0.7500020  )
        24           C   tau(  24) = (  0.7500020  0.9166647  0.0833353  )
        25           C   tau(  25) = (  0.7500020  0.9166647  0.4166687  )
        26           C   tau(  26) = (  0.7500020  0.9166647  0.7500020  )
        27           C   tau(  27) = (  0.0000000  0.0000000  0.1666667  )
        28           C   tau(  28) = (  0.0000000  0.0000000  0.5000000  )
        29           C   tau(  29) = (  0.0000000  0.0000000  0.8333333  )
        30           C   tau(  30) = (  0.0000000  0.3333333  0.1666667  )
        31           C   tau(  31) = (  0.0000000  0.3333333  0.5000000  )
        32           C   tau(  32) = (  0.0000000  0.3333333  0.8333333  )
        33           C   tau(  33) = (  0.0000000  0.6666667  0.1666667  )
        34           C   tau(  34) = (  0.0000000  0.6666667  0.5000000  )
        35           C   tau(  35) = (  0.0000000  0.6666667  0.8333333  )
        36           C   tau(  36) = (  0.3333333  0.0000000  0.1666667  )
        37           C   tau(  37) = (  0.3333333  0.0000000  0.5000000  )
        38           C   tau(  38) = (  0.3333333  0.0000000  0.8333333  )
        39           C   tau(  39) = (  0.3333333  0.3333333  0.1666667  )
        40           C   tau(  40) = (  0.3333333  0.3333333  0.5000000  )
        41           C   tau(  41) = (  0.3333333  0.3333333  0.8333333  )
        42           C   tau(  42) = (  0.3333333  0.6666667  0.1666667  )
        43           C   tau(  43) = (  0.3333333  0.6666667  0.5000000  )
        44           C   tau(  44) = (  0.3333333  0.6666667  0.8333333  )
        45           C   tau(  45) = (  0.6666667  0.0000000  0.1666667  )
        46           C   tau(  46) = (  0.6666667  0.0000000  0.5000000  )
        47           C   tau(  47) = (  0.6666667  0.0000000  0.8333333  )
        48           C   tau(  48) = (  0.6666667  0.3333333  0.1666667  )
        49           C   tau(  49) = (  0.6666667  0.3333333  0.5000000  )
        50           C   tau(  50) = (  0.6666667  0.3333333  0.8333333  )
        51           C   tau(  51) = (  0.6666667  0.6666667  0.1666667  )
        52           C   tau(  52) = (  0.6666667  0.6666667  0.5000000  )
        53           C   tau(  53) = (  0.6666667  0.6666667  0.8333333  )
        54           C   tau(  54) = (  0.0833353  0.0833353  0.2499980  )
        55           C   tau(  55) = (  0.0833353  0.0833353  0.5833313  )
        56           C   tau(  56) = (  0.0833353  0.0833353  0.9166647  )
        57           C   tau(  57) = (  0.0833353  0.4166687  0.2499980  )
        58           C   tau(  58) = (  0.0833353  0.4166687  0.5833313  )
        59           C   tau(  59) = (  0.0833353  0.4166687  0.9166647  )
        60           C   tau(  60) = (  0.0833353  0.7500020  0.2499980  )
        61           C   tau(  61) = (  0.0833353  0.7500020  0.5833313  )
        62           C   tau(  62) = (  0.0833353  0.7500020  0.9166647  )
        63           C   tau(  63) = (  0.4166687  0.0833353  0.2499980  )
        64           C   tau(  64) = (  0.4166687  0.0833353  0.5833313  )
        65           C   tau(  65) = (  0.4166687  0.0833353  0.9166647  )
        66           C   tau(  66) = (  0.4166687  0.4166687  0.2499980  )
        67           C   tau(  67) = (  0.4166687  0.4166687  0.5833313  )
        68           C   tau(  68) = (  0.4166687  0.4166687  0.9166647  )
        69           C   tau(  69) = (  0.4166687  0.7500020  0.2499980  )
        70           C   tau(  70) = (  0.4166687  0.7500020  0.5833313  )
        71           C   tau(  71) = (  0.4166687  0.7500020  0.9166647  )
        72           C   tau(  72) = (  0.7500020  0.0833353  0.2499980  )
        73           C   tau(  73) = (  0.7500020  0.0833353  0.5833313  )
        74           C   tau(  74) = (  0.7500020  0.0833353  0.9166647  )
        75           C   tau(  75) = (  0.7500020  0.4166687  0.2499980  )
        76           C   tau(  76) = (  0.7500020  0.4166687  0.5833313  )
        77           C   tau(  77) = (  0.7500020  0.4166687  0.9166647  )
        78           C   tau(  78) = (  0.7500020  0.7500020  0.2499980  )
        79           C   tau(  79) = (  0.7500020  0.7500020  0.5833313  )
        80           C   tau(  80) = (  0.7500020  0.7500020  0.9166647  )
        81           C   tau(  81) = (  0.0000000  0.1666667  0.0000000  )
        82           C   tau(  82) = (  0.0000000  0.1666667  0.3333333  )
        83           C   tau(  83) = (  0.0000000  0.1666667  0.6666667  )
        84           C   tau(  84) = (  0.0000000  0.5000000  0.0000000  )
        85           C   tau(  85) = (  0.0000000  0.5000000  0.3333333  )
        86           C   tau(  86) = (  0.0000000  0.5000000  0.6666667  )
        87           C   tau(  87) = (  0.0000000  0.8333333  0.0000000  )
        88           C   tau(  88) = (  0.0000000  0.8333333  0.3333333  )
        89           C   tau(  89) = (  0.0000000  0.8333333  0.6666667  )
        90           C   tau(  90) = (  0.3333333  0.1666667  0.0000000  )
        91           C   tau(  91) = (  0.3333333  0.1666667  0.3333333  )
        92           C   tau(  92) = (  0.3333333  0.1666667  0.6666667  )
        93           C   tau(  93) = (  0.3333333  0.5000000  0.0000000  )
        94           C   tau(  94) = (  0.3333333  0.5000000  0.3333333  )
        95           C   tau(  95) = (  0.3333333  0.5000000  0.6666667  )
        96           C   tau(  96) = (  0.3333333  0.8333333  0.0000000  )
        97           C   tau(  97) = (  0.3333333  0.8333333  0.3333333  )
        98           C   tau(  98) = (  0.3333333  0.8333333  0.6666667  )
        99           C   tau(  99) = (  0.6666667  0.1666667  0.0000000  )
       100           C   tau( 100) = (  0.6666667  0.1666667  0.3333333  )
       101           C   tau( 101) = (  0.6666667  0.1666667  0.6666667  )
       102           C   tau( 102) = (  0.6666667  0.5000000  0.0000000  )
       103           C   tau( 103) = (  0.6666667  0.5000000  0.3333333  )
       104           C   tau( 104) = (  0.6666667  0.5000000  0.6666667  )
       105           C   tau( 105) = (  0.6666667  0.8333333  0.0000000  )
       106           C   tau( 106) = (  0.6666667  0.8333333  0.3333333  )
       107           C   tau( 107) = (  0.6666667  0.8333333  0.6666667  )
       108           C   tau( 108) = (  0.2499980  0.2499980  0.2499980  )
       109           C   tau( 109) = (  0.2499980  0.2499980  0.5833313  )
       110           C   tau( 110) = (  0.2499980  0.2499980  0.9166647  )
       111           C   tau( 111) = (  0.2499980  0.5833313  0.2499980  )
       112           C   tau( 112) = (  0.2499980  0.5833313  0.5833313  )
       113           C   tau( 113) = (  0.2499980  0.5833313  0.9166647  )
       114           C   tau( 114) = (  0.2499980  0.9166647  0.2499980  )
       115           C   tau( 115) = (  0.2499980  0.9166647  0.5833313  )
       116           C   tau( 116) = (  0.2499980  0.9166647  0.9166647  )
       117           C   tau( 117) = (  0.5833313  0.2499980  0.2499980  )
       118           C   tau( 118) = (  0.5833313  0.2499980  0.5833313  )
       119           C   tau( 119) = (  0.5833313  0.2499980  0.9166647  )
       120           C   tau( 120) = (  0.5833313  0.5833313  0.2499980  )
       121           C   tau( 121) = (  0.5833313  0.5833313  0.5833313  )
       122           C   tau( 122) = (  0.5833313  0.5833313  0.9166647  )
       123           C   tau( 123) = (  0.5833313  0.9166647  0.2499980  )
       124           C   tau( 124) = (  0.5833313  0.9166647  0.5833313  )
       125           C   tau( 125) = (  0.5833313  0.9166647  0.9166647  )
       126           C   tau( 126) = (  0.9166647  0.2499980  0.2499980  )
       127           C   tau( 127) = (  0.9166647  0.2499980  0.5833313  )
       128           C   tau( 128) = (  0.9166647  0.2499980  0.9166647  )
       129           C   tau( 129) = (  0.9166647  0.5833313  0.2499980  )
       130           C   tau( 130) = (  0.9166647  0.5833313  0.5833313  )
       131           C   tau( 131) = (  0.9166647  0.5833313  0.9166647  )
       132           C   tau( 132) = (  0.9166647  0.9166647  0.2499980  )
       133           C   tau( 133) = (  0.9166647  0.9166647  0.5833313  )
       134           C   tau( 134) = (  0.9166647  0.9166647  0.9166647  )
       135           C   tau( 135) = (  0.1666667  0.0000000  0.0000000  )
       136           C   tau( 136) = (  0.1666667  0.0000000  0.3333333  )
       137           C   tau( 137) = (  0.1666667  0.0000000  0.6666667  )
       138           C   tau( 138) = (  0.1666667  0.3333333  0.0000000  )
       139           C   tau( 139) = (  0.1666667  0.3333333  0.3333333  )
       140           C   tau( 140) = (  0.1666667  0.3333333  0.6666667  )
       141           C   tau( 141) = (  0.1666667  0.6666667  0.0000000  )
       142           C   tau( 142) = (  0.1666667  0.6666667  0.3333333  )
       143           C   tau( 143) = (  0.1666667  0.6666667  0.6666667  )
       144           C   tau( 144) = (  0.5000000  0.0000000  0.0000000  )
       145           C   tau( 145) = (  0.5000000  0.0000000  0.3333333  )
       146           C   tau( 146) = (  0.5000000  0.0000000  0.6666667  )
       147           C   tau( 147) = (  0.5000000  0.3333333  0.0000000  )
       148           C   tau( 148) = (  0.5000000  0.3333333  0.3333333  )
       149           C   tau( 149) = (  0.5000000  0.3333333  0.6666667  )
       150           C   tau( 150) = (  0.5000000  0.6666667  0.0000000  )
       151           C   tau( 151) = (  0.5000000  0.6666667  0.3333333  )
       152           C   tau( 152) = (  0.5000000  0.6666667  0.6666667  )
       153           C   tau( 153) = (  0.8333333  0.0000000  0.0000000  )
       154           C   tau( 154) = (  0.8333333  0.0000000  0.3333333  )
       155           C   tau( 155) = (  0.8333333  0.0000000  0.6666667  )
       156           C   tau( 156) = (  0.8333333  0.3333333  0.0000000  )
       157           C   tau( 157) = (  0.8333333  0.3333333  0.3333333  )
       158           C   tau( 158) = (  0.8333333  0.3333333  0.6666667  )
       159           C   tau( 159) = (  0.8333333  0.6666667  0.0000000  )
       160           C   tau( 160) = (  0.8333333  0.6666667  0.3333333  )
       161           C   tau( 161) = (  0.8333333  0.6666667  0.6666667  )
       162           C   tau( 162) = (  0.2499980  0.0833353  0.0833353  )
       163           C   tau( 163) = (  0.2499980  0.0833353  0.4166687  )
       164           C   tau( 164) = (  0.2499980  0.0833353  0.7500020  )
       165           C   tau( 165) = (  0.2499980  0.4166687  0.0833353  )
       166           C   tau( 166) = (  0.2499980  0.4166687  0.4166687  )
       167           C   tau( 167) = (  0.2499980  0.4166687  0.7500020  )
       168           C   tau( 168) = (  0.2499980  0.7500020  0.0833353  )
       169           C   tau( 169) = (  0.2499980  0.7500020  0.4166687  )
       170           C   tau( 170) = (  0.2499980  0.7500020  0.7500020  )
       171           C   tau( 171) = (  0.5833313  0.0833353  0.0833353  )
       172           C   tau( 172) = (  0.5833313  0.0833353  0.4166687  )
       173           C   tau( 173) = (  0.5833313  0.0833353  0.7500020  )
       174           C   tau( 174) = (  0.5833313  0.4166687  0.0833353  )
       175           C   tau( 175) = (  0.5833313  0.4166687  0.4166687  )
       176           C   tau( 176) = (  0.5833313  0.4166687  0.7500020  )
       177           C   tau( 177) = (  0.5833313  0.7500020  0.0833353  )
       178           C   tau( 178) = (  0.5833313  0.7500020  0.4166687  )
       179           C   tau( 179) = (  0.5833313  0.7500020  0.7500020  )
       180           C   tau( 180) = (  0.9166647  0.0833353  0.0833353  )
       181           C   tau( 181) = (  0.9166647  0.0833353  0.4166687  )
       182           C   tau( 182) = (  0.9166647  0.0833353  0.7500020  )
       183           C   tau( 183) = (  0.9166647  0.4166687  0.0833353  )
       184           C   tau( 184) = (  0.9166647  0.4166687  0.4166687  )
       185           C   tau( 185) = (  0.9166647  0.4166687  0.7500020  )
       186           C   tau( 186) = (  0.9166647  0.7500020  0.0833353  )
       187           C   tau( 187) = (  0.9166647  0.7500020  0.4166687  )
       188           C   tau( 188) = (  0.9166647  0.7500020  0.7500020  )
       189           C   tau( 189) = (  0.1666667  0.1666667  0.1666667  )
       190           C   tau( 190) = (  0.1666667  0.1666667  0.5000000  )
       191           C   tau( 191) = (  0.1666667  0.1666667  0.8333333  )
       192           C   tau( 192) = (  0.1666667  0.5000000  0.1666667  )
       193           C   tau( 193) = (  0.1666667  0.5000000  0.5000000  )
       194           C   tau( 194) = (  0.1666667  0.5000000  0.8333333  )
       195           C   tau( 195) = (  0.1666667  0.8333333  0.1666667  )
       196           C   tau( 196) = (  0.1666667  0.8333333  0.5000000  )
       197           C   tau( 197) = (  0.1666667  0.8333333  0.8333333  )
       198           C   tau( 198) = (  0.5000000  0.1666667  0.1666667  )
       199           C   tau( 199) = (  0.5000000  0.1666667  0.5000000  )
       200           C   tau( 200) = (  0.5000000  0.1666667  0.8333333  )
       201           C   tau( 201) = (  0.5000000  0.5000000  0.1666667  )
       202           C   tau( 202) = (  0.5000000  0.5000000  0.5000000  )
       203           C   tau( 203) = (  0.5000000  0.5000000  0.8333333  )
       204           C   tau( 204) = (  0.5000000  0.8333333  0.1666667  )
       205           C   tau( 205) = (  0.5000000  0.8333333  0.5000000  )
       206           C   tau( 206) = (  0.5000000  0.8333333  0.8333333  )
       207           C   tau( 207) = (  0.8333333  0.1666667  0.1666667  )
       208           C   tau( 208) = (  0.8333333  0.1666667  0.5000000  )
       209           C   tau( 209) = (  0.8333333  0.1666667  0.8333333  )
       210           C   tau( 210) = (  0.8333333  0.5000000  0.1666667  )
       211           C   tau( 211) = (  0.8333333  0.5000000  0.5000000  )
       212           C   tau( 212) = (  0.8333333  0.5000000  0.8333333  )
       213           C   tau( 213) = (  0.8333333  0.8333333  0.1666667  )
       214           C   tau( 214) = (  0.8333333  0.8333333  0.5000000  )
       215           C   tau( 215) = (  0.8333333  0.8333333  0.8333333  )

     number of k points=     4  Gaussian smearing, width (Ry)=  0.0100
                       cart. coord. in units 2pi/alat
        k(    1) = (   0.0000000   0.0000000   0.0000000), wk =   0.2500000
        k(    2) = (   0.0000000   0.0000000  -0.5000000), wk =   0.7500000
        k(    3) = (   0.0000000  -0.5000000  -0.5000000), wk =   0.7500000
        k(    4) = (  -0.5000000  -0.5000000  -0.5000000), wk =   0.2500000

                       cryst. coord.
        k(    1) = (   0.0000000   0.0000000   0.0000000), wk =   0.2500000
        k(    2) = (   0.0000000   0.0000000  -0.5000000), wk =   0.7500000
        k(    3) = (   0.0000000  -0.5000000  -0.5000000), wk =   0.7500000
        k(    4) = (  -0.5000000  -0.5000000  -0.5000000), wk =   0.2500000

     Dense  grid:   918657 G-vectors     FFT dimensions: ( 135, 135, 135)

     Smooth grid:   656775 G-vectors     FFT dimensions: ( 108, 108, 108)

     Dynamical RAM for                 wfc:      10.10 MB

     Dynamical RAM for     wfc (w. buffer):      10.10 MB

     Dynamical RAM for           str. fact:       0.22 MB

     Dynamical RAM for           local pot:       0.00 MB

     Dynamical RAM for          nlocal pot:      33.67 MB

     Dynamical RAM for                qrad:       0.43 MB

     Dynamical RAM for          rho,v,vnew:       1.91 MB

     Dynamical RAM for               rhoin:       0.64 MB

     Dynamical RAM for            rho*nmix:       3.50 MB

     Dynamical RAM for           G-vectors:       0.90 MB

     Dynamical RAM for          h,s,v(r/c):     195.01 MB

     Dynamical RAM for          <psi|beta>:      13.54 MB

     Dynamical RAM for                 psi:      40.41 MB

     Dynamical RAM for                hpsi:      40.41 MB

     Dynamical RAM for                spsi:      40.41 MB

     Dynamical RAM for      wfcinit/wfcrot:      50.61 MB

     Dynamical RAM for           addusdens:      14.29 MB

     Dynamical RAM for          addusforce:      37.84 MB

     Dynamical RAM for         addusstress:       2.82 MB

     Estimated static dynamical RAM per process >      50.39 MB

     Estimated max dynamical RAM per process >     383.67 MB

     Estimated total dynamical RAM >      95.26 GB

     Check: negative core charge=   -0.000014

     Initial potential from superposition of free atoms

     starting charge     859.9911, renormalised to     859.0000


     %%%%%%%%%%%%%%%%%%%%%%%%%%%%%%%%%%%%%%%%%%%%%%%%%%%%%%%%%%%%%%%%%%%%%%%%
     %                                                                      %
     % You are using vdW-DF, which was implemented by the Thonhauser group. %
     % Please cite the following two papers that made this development      %
     % possible and the two reviews that describe the various versions:     %
     %                                                                      %
     %   T. Thonhauser et al., PRL 115, 136402 (2015).                      %
     %   T. Thonhauser et al., PRB 76, 125112 (2007).                       %
     %   K. Berland et al., Rep. Prog. Phys. 78, 066501 (2015).             %
     %   D.C. Langreth et al., J. Phys.: Condens. Matter 21, 084203 (2009). %
     %                                                                      %
     % If you are calculating stress with vdW-DF, please also cite:         %
     %                                                                      %
     %   R. Sabatini et al., J. Phys.: Condens. Matter 24, 424209 (2012).   %
     %                                                                      %
     %%%%%%%%%%%%%%%%%%%%%%%%%%%%%%%%%%%%%%%%%%%%%%%%%%%%%%%%%%%%%%%%%%%%%%%%

     %%%%%%%%%%%%%%%%%%%%%%%%%%%%%%%%%%%%%%%%%%%%%%%%%%%%%%%%%%%%%%%%%%%%%%%%
     %                                                                      %
     %  vdW-DF NEWS:                                                        %
     %                                                                      %
     %  * vdW-DF3 is now available. DOI: 10.1021/acs.jctc.0c00471           %
     %    use with input_dft = 'vdW-DF3-opt1' or 'vdW-DF3-opt2'             %
     %                                                                      %
     %  * Unscreened and range-separated vdW-DF hybrid functionals          %
     %    DOI: 10.1063/1.4986522 and 10.1088/1361-648X/ac2ad2               %
     %    use with input_dft = 'vdW-DF-cx0' (etc) and 'vdW-DF-ahcx'         %
     %                                                                      %
     %%%%%%%%%%%%%%%%%%%%%%%%%%%%%%%%%%%%%%%%%%%%%%%%%%%%%%%%%%%%%%%%%%%%%%%%


     Carrying out vdW-DF run using the following parameters:
     Nqs    =  20  Npoints =  1024  r_max =  100.000
     q_mesh =  0.00001000  0.04494208  0.09755937  0.15916263
               0.23128650  0.31572767  0.41458969  0.53033537
               0.66584808  0.82450364  1.01025438  1.22772762
               1.48234092  1.78043706  2.12944203  2.53805004
               3.01644009  3.57652955  4.23227104  5.00000000


     -----------------------------------------------
     Non-local corr. energy    =       5.42514370 Ry
     -----------------------------------------------

     Starting wfcs are  860 randomized atomic wfcs
     Checking if some PAW data can be deallocated... 

     total cpu time spent up to now is        6.2 secs

     Self-consistent Calculation

     iteration #  1     ecut=    70.00 Ry     beta= 0.70
     Davidson diagonalization with overlap

---- Real-time Memory Report at c_bands before calling an iterative solver
           339 MiB given to the printing process from OS
             0 MiB allocation reported by mallinfo(arena+hblkhd)
       1833410 MiB available memory on the node where the printing process lives
------------------
     ethr =  1.00E-02,  avg # of iterations =  3.0


     -----------------------------------------------
     Non-local corr. energy    =       6.94641997 Ry
     -----------------------------------------------


     total cpu time spent up to now is       21.6 secs

     total energy              =   -4082.99572514 Ry
     estimated scf accuracy    <      12.92831135 Ry

     iteration #  2     ecut=    70.00 Ry     beta= 0.70
     Davidson diagonalization with overlap

---- Real-time Memory Report at c_bands before calling an iterative solver
           481 MiB given to the printing process from OS
             0 MiB allocation reported by mallinfo(arena+hblkhd)
       1830176 MiB available memory on the node where the printing process lives
------------------
     ethr =  1.51E-03,  avg # of iterations = 10.0


     -----------------------------------------------
     Non-local corr. energy    =       7.13012974 Ry
     -----------------------------------------------


     total cpu time spent up to now is       52.5 secs

     total energy              =   -4079.83914855 Ry
     estimated scf accuracy    <       7.39594737 Ry

     iteration #  3     ecut=    70.00 Ry     beta= 0.70
     Davidson diagonalization with overlap

---- Real-time Memory Report at c_bands before calling an iterative solver
           481 MiB given to the printing process from OS
             0 MiB allocation reported by mallinfo(arena+hblkhd)
       1830077 MiB available memory on the node where the printing process lives
------------------
     ethr =  8.61E-04,  avg # of iterations = 11.0


     -----------------------------------------------
     Non-local corr. energy    =       7.28012984 Ry
     -----------------------------------------------


     total cpu time spent up to now is       98.9 secs

     total energy              =   -4080.55738436 Ry
     estimated scf accuracy    <      31.42036111 Ry

     iteration #  4     ecut=    70.00 Ry     beta= 0.70
     Davidson diagonalization with overlap

---- Real-time Memory Report at c_bands before calling an iterative solver
           525 MiB given to the printing process from OS
             0 MiB allocation reported by mallinfo(arena+hblkhd)
       1830052 MiB available memory on the node where the printing process lives
------------------
     ethr =  8.61E-04,  avg # of iterations =  9.8


     -----------------------------------------------
     Non-local corr. energy    =       7.30774328 Ry
     -----------------------------------------------


     total cpu time spent up to now is      144.5 secs

     total energy              =   -4083.85099776 Ry
     estimated scf accuracy    <       1.18060819 Ry

     iteration #  5     ecut=    70.00 Ry     beta= 0.70
     Davidson diagonalization with overlap

---- Real-time Memory Report at c_bands before calling an iterative solver
           525 MiB given to the printing process from OS
             0 MiB allocation reported by mallinfo(arena+hblkhd)
       1829946 MiB available memory on the node where the printing process lives
------------------
     ethr =  1.37E-04,  avg # of iterations = 13.0


     -----------------------------------------------
     Non-local corr. energy    =       7.32550700 Ry
     -----------------------------------------------


     total cpu time spent up to now is      185.9 secs

     total energy              =   -4083.93141568 Ry
     estimated scf accuracy    <       0.36762219 Ry

     iteration #  6     ecut=    70.00 Ry     beta= 0.70
     Davidson diagonalization with overlap

---- Real-time Memory Report at c_bands before calling an iterative solver
           525 MiB given to the printing process from OS
             0 MiB allocation reported by mallinfo(arena+hblkhd)
       1829922 MiB available memory on the node where the printing process lives
------------------
     ethr =  4.28E-05,  avg # of iterations = 10.3


     -----------------------------------------------
     Non-local corr. energy    =       7.33008123 Ry
     -----------------------------------------------


     total cpu time spent up to now is      217.8 secs

     total energy              =   -4083.92563270 Ry
     estimated scf accuracy    <       0.22850185 Ry

     iteration #  7     ecut=    70.00 Ry     beta= 0.70
     Davidson diagonalization with overlap

---- Real-time Memory Report at c_bands before calling an iterative solver
           525 MiB given to the printing process from OS
             0 MiB allocation reported by mallinfo(arena+hblkhd)
       1829858 MiB available memory on the node where the printing process lives
------------------
     ethr =  2.66E-05,  avg # of iterations =  4.0


     -----------------------------------------------
     Non-local corr. energy    =       7.34450359 Ry
     -----------------------------------------------


     total cpu time spent up to now is      228.9 secs

     total energy              =   -4083.90968278 Ry
     estimated scf accuracy    <       0.15747679 Ry

     iteration #  8     ecut=    70.00 Ry     beta= 0.70
     Davidson diagonalization with overlap

---- Real-time Memory Report at c_bands before calling an iterative solver
           525 MiB given to the printing process from OS
             0 MiB allocation reported by mallinfo(arena+hblkhd)
       1829822 MiB available memory on the node where the printing process lives
------------------
     ethr =  1.83E-05,  avg # of iterations = 12.3


     -----------------------------------------------
     Non-local corr. energy    =       7.35094862 Ry
     -----------------------------------------------


     total cpu time spent up to now is      263.1 secs

     total energy              =   -4083.91543843 Ry
     estimated scf accuracy    <       0.01588453 Ry

     iteration #  9     ecut=    70.00 Ry     beta= 0.70
     Davidson diagonalization with overlap

---- Real-time Memory Report at c_bands before calling an iterative solver
           525 MiB given to the printing process from OS
             0 MiB allocation reported by mallinfo(arena+hblkhd)
       1829773 MiB available memory on the node where the printing process lives
------------------
     ethr =  1.85E-06,  avg # of iterations = 15.8


     -----------------------------------------------
     Non-local corr. energy    =       7.35205760 Ry
     -----------------------------------------------


     total cpu time spent up to now is      319.7 secs

     total energy              =   -4083.91796391 Ry
     estimated scf accuracy    <       0.00098599 Ry

     iteration # 10     ecut=    70.00 Ry     beta= 0.70
     Davidson diagonalization with overlap

---- Real-time Memory Report at c_bands before calling an iterative solver
           525 MiB given to the printing process from OS
             0 MiB allocation reported by mallinfo(arena+hblkhd)
       1829688 MiB available memory on the node where the printing process lives
------------------
     ethr =  1.15E-07,  avg # of iterations = 14.5


     -----------------------------------------------
     Non-local corr. energy    =       7.35238827 Ry
     -----------------------------------------------


     total cpu time spent up to now is      381.7 secs

     total energy              =   -4083.91811310 Ry
     estimated scf accuracy    <       0.00040483 Ry

     iteration # 11     ecut=    70.00 Ry     beta= 0.70
     Davidson diagonalization with overlap

---- Real-time Memory Report at c_bands before calling an iterative solver
           543 MiB given to the printing process from OS
             0 MiB allocation reported by mallinfo(arena+hblkhd)
       1829673 MiB available memory on the node where the printing process lives
------------------
     ethr =  4.71E-08,  avg # of iterations = 15.8


     -----------------------------------------------
     Non-local corr. energy    =       7.35259978 Ry
     -----------------------------------------------


     total cpu time spent up to now is      440.8 secs

     total energy              =   -4083.91815641 Ry
     estimated scf accuracy    <       0.00007506 Ry

     iteration # 12     ecut=    70.00 Ry     beta= 0.70
     Davidson diagonalization with overlap

---- Real-time Memory Report at c_bands before calling an iterative solver
           543 MiB given to the printing process from OS
             0 MiB allocation reported by mallinfo(arena+hblkhd)
       1829662 MiB available memory on the node where the printing process lives
------------------
     ethr =  8.74E-09,  avg # of iterations = 15.5


     -----------------------------------------------
     Non-local corr. energy    =       7.35287070 Ry
     -----------------------------------------------


     total cpu time spent up to now is      504.6 secs

     total energy              =   -4083.91817061 Ry
     estimated scf accuracy    <       0.00001021 Ry

     iteration # 13     ecut=    70.00 Ry     beta= 0.70
     Davidson diagonalization with overlap

---- Real-time Memory Report at c_bands before calling an iterative solver
           543 MiB given to the printing process from OS
             0 MiB allocation reported by mallinfo(arena+hblkhd)
       1829642 MiB available memory on the node where the printing process lives
------------------
     ethr =  1.19E-09,  avg # of iterations = 15.8


     -----------------------------------------------
     Non-local corr. energy    =       7.35294669 Ry
     -----------------------------------------------


     total cpu time spent up to now is      572.6 secs

     total energy              =   -4083.91817210 Ry
     estimated scf accuracy    <       0.00000243 Ry

     iteration # 14     ecut=    70.00 Ry     beta= 0.70
     Davidson diagonalization with overlap

---- Real-time Memory Report at c_bands before calling an iterative solver
           545 MiB given to the printing process from OS
             0 MiB allocation reported by mallinfo(arena+hblkhd)
       1829620 MiB available memory on the node where the printing process lives
------------------
     ethr =  2.83E-10,  avg # of iterations = 15.5


     -----------------------------------------------
     Non-local corr. energy    =       7.35295186 Ry
     -----------------------------------------------


     total cpu time spent up to now is      636.3 secs

     total energy              =   -4083.91817249 Ry
     estimated scf accuracy    <       0.00000031 Ry

     iteration # 15     ecut=    70.00 Ry     beta= 0.70
     Davidson diagonalization with overlap

---- Real-time Memory Report at c_bands before calling an iterative solver
           545 MiB given to the printing process from OS
             0 MiB allocation reported by mallinfo(arena+hblkhd)
       1829616 MiB available memory on the node where the printing process lives
------------------
     ethr =  3.65E-11,  avg # of iterations = 13.8


     -----------------------------------------------
     Non-local corr. energy    =       7.35296112 Ry
     -----------------------------------------------


     total cpu time spent up to now is      699.4 secs

     total energy              =   -4083.91817256 Ry
     estimated scf accuracy    <       0.00000003 Ry

     iteration # 16     ecut=    70.00 Ry     beta= 0.70
     Davidson diagonalization with overlap

---- Real-time Memory Report at c_bands before calling an iterative solver
           547 MiB given to the printing process from OS
             0 MiB allocation reported by mallinfo(arena+hblkhd)
       1827909 MiB available memory on the node where the printing process lives
------------------
     ethr =  3.89E-12,  avg # of iterations = 13.8


     -----------------------------------------------
     Non-local corr. energy    =       7.35296875 Ry
     -----------------------------------------------


     total cpu time spent up to now is      759.6 secs

     total energy              =   -4083.91817257 Ry
     estimated scf accuracy    <       0.00000003 Ry

     iteration # 17     ecut=    70.00 Ry     beta= 0.70
     Davidson diagonalization with overlap

---- Real-time Memory Report at c_bands before calling an iterative solver
           551 MiB given to the printing process from OS
             0 MiB allocation reported by mallinfo(arena+hblkhd)
       1829493 MiB available memory on the node where the printing process lives
------------------
     ethr =  3.31E-12,  avg # of iterations = 16.8


     -----------------------------------------------
     Non-local corr. energy    =       7.35297269 Ry
     -----------------------------------------------


     total cpu time spent up to now is      804.0 secs

     total energy              =   -4083.91817257 Ry
     estimated scf accuracy    <       0.00000005 Ry

     iteration # 18     ecut=    70.00 Ry     beta= 0.70
     Davidson diagonalization with overlap

---- Real-time Memory Report at c_bands before calling an iterative solver
           551 MiB given to the printing process from OS
             0 MiB allocation reported by mallinfo(arena+hblkhd)
       1829488 MiB available memory on the node where the printing process lives
------------------
     ethr =  3.31E-12,  avg # of iterations = 10.5


     -----------------------------------------------
     Non-local corr. energy    =       7.35297499 Ry
     -----------------------------------------------


     total cpu time spent up to now is      837.8 secs

     End of self-consistent calculation

          k = 0.0000 0.0000 0.0000 ( 82057 PWs)   bands (ev):

    -8.5138  -7.5274  -7.5274  -7.5273  -7.5143  -7.5143  -7.4021  -6.5384
    -6.5384  -6.5384  -6.5206  -6.5206  -6.5206  -6.5131  -6.5131  -6.5131
    -6.5091  -6.5091  -6.2710  -5.5648  -5.5648  -5.5648  -5.5553  -5.5215
    -5.5215  -5.5215  -5.3589  -4.5558  -4.5558  -4.5308  -4.5308  -4.5308
    -4.4341  -3.6620  -3.6620  -3.6620  -3.6376  -3.6376  -3.6376  -3.6374
    -3.6374  -3.6234  -3.6234  -3.6234  -3.6152  -3.6152  -3.6151  -3.6150
    -3.6149  -3.6149  -3.6124  -3.6124  -3.5997  -3.5518  -3.5518  -3.5518
    -3.3108  -2.8906  -2.8904  -2.8904  -2.8745  -2.8745  -2.8744  -2.8739
    -2.8739  -2.8614  -2.8613  -2.8613  -2.8555  -2.8522  -2.8521  -2.8521
    -2.8437  -2.8437  -2.8437  -2.8414  -2.8414  -2.7863  -2.7861  -2.7861
    -2.0114  -1.2308  -1.2308  -1.2151  -1.2151  -1.2151  -1.2061  -1.2061
    -1.2061  -1.1850  -1.1850  -1.1850  -0.7711   0.1024   0.1024   0.1247
     0.1250   0.1250   0.1993   0.5835   0.5835   0.5836   0.6004   0.6004
     0.6050   0.6050   0.6051   0.6150   0.6152   0.6152   0.6265   0.6266
     0.6266   0.6332   0.6332   0.6382   0.6382   0.6385   0.6472   0.6729
     0.6731   0.6731   0.8321   0.9388   0.9454   0.9455   0.9455   0.9461
     0.9461   0.9462   0.9510   0.9510   0.9612   0.9612   0.9613   0.9671
     0.9671   0.9682   0.9683   0.9683   0.9817   0.9817   0.9818   1.1479
     1.1479   1.1479   1.6545   1.9274   1.9274   1.9274   1.9356   1.9356
     1.9461   1.9461   1.9461   1.9958   1.9958   1.9958   2.8514   3.5598
     3.5626   3.5626   3.5626   3.5861   3.5861   3.5861   3.6452   3.6493
     3.6493   3.6493   3.6712   3.6712   3.6768   3.6768   3.6768   3.7194
     3.7517   3.7517   3.7517   4.1442   4.1442   4.1442   4.1501   4.1501
     4.1504   4.1504   4.1505   4.1576   4.1576   4.1576   4.1579   4.1579
     4.1634   4.1634   4.1634   4.1636   4.1638   4.1638   4.1780   4.3116
     4.3117   4.3117   5.0882   5.1595   5.1683   5.1685   5.1685   5.1791
     5.1791   5.1792   5.1969   5.1969   5.1981   5.1982   5.1982   5.2019
     5.2019   5.2021   5.2028   5.2028   5.2146   5.2147   5.2147   5.2887
     5.3456   5.3456   5.3457   5.6425   5.6425   5.6458   5.6458   5.6459
     5.6500   5.6515   5.6574   5.6576   5.6576   5.6588   5.6588   5.6590
     5.6635   5.6636   5.6636   5.6664   5.6664   5.6678   5.6678   5.6680
     5.6704   5.6704   5.6722   5.6725   5.6725   6.0049   6.0049   6.0050
     6.5641   6.6393   6.6395   6.6395   6.6967   6.6967   6.6969   7.1811
     7.1811   7.1817   7.1817   7.1817   7.1835   7.1835   7.1836   7.2453
     7.2453   7.2453   7.5150   7.6094   7.6094   7.6094   7.6156   7.6156
     7.6156   7.6247   7.6247   7.6247   7.6792   7.6792   7.6792   7.8904
     7.8904   7.8938   7.8938   7.8938   7.8954   7.8955   7.8955   7.9111
     7.9112   7.9112   7.9146   7.9146   7.9147   7.9236   7.9290   7.9291
     7.9291   7.9353   7.9353   8.0014   8.0015   8.0015   8.0607   8.1094
     8.1111   8.1111   8.1128   8.1130   8.1130   8.1225   8.1225   8.1226
     8.1247   8.1247   8.1247   8.1337   8.1338   8.1338   8.1353   8.1353
     8.1396   8.1396   8.1397   8.1438   8.1438   8.1438   8.1468   8.1468
     8.1469   8.1495   8.1535   8.1535   8.1536   8.1619   8.1619   8.2159
     8.2160   8.2160   8.2330   8.2330   8.2331   8.2376   8.2389   8.2389
     8.2408   8.2408   8.2408   8.6840   8.6840   8.6841   8.9130   8.9130
     8.9209   8.9210   8.9210   8.9381   8.9397   8.9398   8.9398   8.9571
     8.9571   8.9572   8.9582   8.9583   8.9583   8.9601   8.9613   8.9615
     8.9615   8.9678   8.9678   9.4542   9.7411   9.7411   9.7412  10.3355
    10.3355  10.3355  10.3444  10.3444  10.3444  10.3456  10.3456  10.3456
    10.4351  10.4351  10.4351  10.5534  10.5534  10.5569  10.5569  10.5569
    10.5770  10.5770  10.5770  10.5802  10.5802  10.5802  10.5812  10.5812
    10.5988  10.5988  10.5988  10.5999  10.5999  10.8600  11.2796  11.2796
    11.2796  11.4986  11.4986  11.4986  11.5060  11.5060  11.5096  11.5096
    11.5096  11.5131  12.6884  12.6884  12.6884  13.8300  13.8300  13.8300
    17.2078  17.2078  17.2437  17.2437  17.2437  17.2795  17.8735  17.8735
    17.8744  17.8789  17.8789  17.8857  17.9183  17.9183  18.0107  18.0107
    18.0108  18.0208  18.5837  18.5837  18.5837  19.4225  19.4225  19.4225
    19.4393  19.4393  19.4393  19.4723  19.4723  19.4830  19.4830  19.4830
    19.5406  20.1145  20.1148  20.1148  20.1278  20.1278  20.1280  20.1352
    20.1398  20.1398  20.1403  20.1424  20.1424  20.1478  20.1480  20.1480
    20.1561  20.1561  20.1564  20.1932  20.1932  20.2278  20.2278  20.2282
    20.2789  20.5651  20.5651  20.5651  20.5714  20.5714  20.5727  20.5727
    20.5727  20.5729  20.6235  20.6235  20.6235  20.6943  20.6943  20.6945
    20.6963  20.6965  20.6965  20.6994  20.6994  20.6994  20.7005  20.7035
    20.7035  20.7041  20.7043  20.7043

     occupation numbers 
     1.0000   1.0000   1.0000   1.0000   1.0000   1.0000   1.0000   1.0000
     1.0000   1.0000   1.0000   1.0000   1.0000   1.0000   1.0000   1.0000
     1.0000   1.0000   1.0000   1.0000   1.0000   1.0000   1.0000   1.0000
     1.0000   1.0000   1.0000   1.0000   1.0000   1.0000   1.0000   1.0000
     1.0000   1.0000   1.0000   1.0000   1.0000   1.0000   1.0000   1.0000
     1.0000   1.0000   1.0000   1.0000   1.0000   1.0000   1.0000   1.0000
     1.0000   1.0000   1.0000   1.0000   1.0000   1.0000   1.0000   1.0000
     1.0000   1.0000   1.0000   1.0000   1.0000   1.0000   1.0000   1.0000
     1.0000   1.0000   1.0000   1.0000   1.0000   1.0000   1.0000   1.0000
     1.0000   1.0000   1.0000   1.0000   1.0000   1.0000   1.0000   1.0000
     1.0000   1.0000   1.0000   1.0000   1.0000   1.0000   1.0000   1.0000
     1.0000   1.0000   1.0000   1.0000   1.0000   1.0000   1.0000   1.0000
     1.0000   1.0000   1.0000   1.0000   1.0000   1.0000   1.0000   1.0000
     1.0000   1.0000   1.0000   1.0000   1.0000   1.0000   1.0000   1.0000
     1.0000   1.0000   1.0000   1.0000   1.0000   1.0000   1.0000   1.0000
     1.0000   1.0000   1.0000   1.0000   1.0000   1.0000   1.0000   1.0000
     1.0000   1.0000   1.0000   1.0000   1.0000   1.0000   1.0000   1.0000
     1.0000   1.0000   1.0000   1.0000   1.0000   1.0000   1.0000   1.0000
     1.0000   1.0000   1.0000   1.0000   1.0000   1.0000   1.0000   1.0000
     1.0000   1.0000   1.0000   1.0000   1.0000   1.0000   1.0000   1.0000
     1.0000   1.0000   1.0000   1.0000   1.0000   1.0000   1.0000   1.0000
     1.0000   1.0000   1.0000   1.0000   1.0000   1.0000   1.0000   1.0000
     1.0000   1.0000   1.0000   1.0000   1.0000   1.0000   1.0000   1.0000
     1.0000   1.0000   1.0000   1.0000   1.0000   1.0000   1.0000   1.0000
     1.0000   1.0000   1.0000   1.0000   1.0000   1.0000   1.0000   1.0000
     1.0000   1.0000   1.0000   1.0000   1.0000   1.0000   1.0000   1.0000
     1.0000   1.0000   1.0000   1.0000   1.0000   1.0000   1.0000   1.0000
     1.0000   1.0000   1.0000   1.0000   1.0000   1.0000   1.0000   1.0000
     1.0000   1.0000   1.0000   1.0000   1.0000   1.0000   1.0000   1.0000
     1.0000   1.0000   1.0000   1.0000   1.0000   1.0000   1.0000   1.0000
     1.0000   1.0000   1.0000   1.0000   1.0000   1.0000   1.0000   1.0000
     1.0000   1.0000   1.0000   1.0000   1.0000   1.0000   1.0000   1.0000
     1.0000   1.0000   1.0000   1.0000   1.0000   1.0000   1.0000   1.0000
     1.0000   1.0000   1.0000   1.0000   1.0000   1.0000   1.0000   1.0000
     1.0000   1.0000   1.0000   1.0000   1.0000   1.0000   1.0000   1.0000
     1.0000   1.0000   1.0000   1.0000   1.0000   1.0000   1.0000   1.0000
     1.0000   1.0000   1.0000   1.0000   1.0000   1.0000   1.0000   1.0000
     1.0000   1.0000   1.0000   1.0000   1.0000   1.0000   1.0000   1.0000
     1.0000   1.0000   1.0000   1.0000   1.0000   1.0000   1.0000   1.0000
     1.0000   1.0000   1.0000   1.0000   1.0000   1.0000   1.0000   1.0000
     1.0000   1.0000   1.0000   1.0000   1.0000   1.0000   1.0000   1.0000
     1.0000   1.0000   1.0000   1.0000   1.0000   1.0000   1.0000   1.0000
     1.0000   1.0000   1.0000   1.0000   1.0000   1.0000   1.0000   1.0000
     1.0000   1.0000   1.0000   1.0000   1.0000   1.0000   1.0000   1.0000
     1.0000   1.0000   1.0000   1.0000   1.0000   1.0000   1.0000   1.0000
     1.0000   1.0000   1.0000   1.0000   1.0000   1.0000   1.0000   1.0000
     1.0000   1.0000   1.0000   1.0000   1.0000   1.0000   1.0000   1.0000
     1.0000   1.0000   1.0000   1.0000   1.0000   1.0000   1.0000   1.0000
     1.0000   1.0000   1.0000   1.0000   1.0000   1.0000   1.0000   1.0000
     1.0000   1.0000   1.0000   1.0000   1.0000   1.0000   1.0000   1.0000
     1.0000   1.0000   1.0000   1.0000   1.0000   1.0000   1.0000   1.0000
     1.0000   1.0000   1.0000   1.0000   1.0000   1.0000   1.0000   1.0000
     1.0000   1.0000   1.0000   1.0000   1.0000   1.0000   1.0000   1.0000
     1.0000   1.0000   1.0000   1.0000   1.0000   0.0264   0.0264   0.0264
     0.0000   0.0000   0.0000   0.0000   0.0000   0.0000   0.0000   0.0000
     0.0000   0.0000   0.0000   0.0000   0.0000   0.0000   0.0000   0.0000
     0.0000   0.0000   0.0000   0.0000   0.0000   0.0000   0.0000   0.0000
     0.0000   0.0000   0.0000   0.0000   0.0000   0.0000   0.0000   0.0000
     0.0000   0.0000   0.0000   0.0000   0.0000   0.0000   0.0000   0.0000
     0.0000   0.0000   0.0000   0.0000   0.0000   0.0000   0.0000   0.0000
     0.0000   0.0000   0.0000   0.0000   0.0000   0.0000   0.0000   0.0000
     0.0000   0.0000   0.0000   0.0000   0.0000   0.0000   0.0000   0.0000
     0.0000   0.0000   0.0000   0.0000   0.0000   0.0000   0.0000   0.0000
     0.0000   0.0000   0.0000   0.0000   0.0000   0.0000   0.0000   0.0000
     0.0000   0.0000   0.0000   0.0000

          k = 0.0000 0.0000-0.5000 ( 81982 PWs)   bands (ev):

    -8.2680  -8.2529  -7.2989  -7.2989  -7.2692  -7.2571  -7.2523  -7.2523
    -7.2497  -7.1281  -6.3245  -6.2782  -6.2782  -6.2765  -6.2662  -6.2662
    -6.2552  -6.2549  -6.2521  -6.0706  -5.3036  -5.3035  -5.2959  -5.2959
    -5.2876  -5.2862  -5.2626  -5.1346  -4.3876  -4.3850  -4.3793  -4.3792
    -4.3619  -4.3618  -4.3400  -4.3352  -4.3281  -4.3079  -4.2971  -4.2971
    -4.2906  -4.2905  -4.2889  -4.0529  -3.4485  -3.4444  -3.4443  -3.4345
    -3.4292  -3.4054  -3.4048  -3.4047  -3.4005  -3.3975  -3.3974  -3.3965
    -3.3927  -3.3630  -3.3629  -3.0959  -2.5654  -2.5402  -2.5385  -2.5384
    -2.5189  -2.5156  -2.5155  -2.4854  -2.4283  -2.4281  -2.4194  -2.4188
    -2.4132  -2.4118  -2.4008  -2.4006  -2.3671  -2.0603  -1.6129  -1.6129
    -1.5986  -1.5986  -1.5849  -1.5839  -1.5537  -1.5458  -1.5326  -1.5326
    -1.5282  -1.5235  -1.5135  -1.5135  -1.4818  -0.9320  -0.0675  -0.0555
    -0.0555  -0.0528  -0.0413  -0.0309  -0.0309   0.0285   0.1010   0.1023
     0.1025   0.1060   0.1518   0.1519   0.1694   0.1705   0.2443   0.2652
     0.2654   0.2710   0.2731   0.3085   0.3087   0.5599   0.8413   0.8521
     0.8524   0.8684   0.8979   0.8979   0.8992   0.9086   0.9676   0.9677
     0.9776   1.0452   1.1575   1.1622   1.1622   1.1733   1.1807   1.2375
     1.2375   1.6280   1.9898   1.9977   1.9977   2.0058   2.0292   2.0560
     2.0560   2.1584   2.6099   2.6099   2.6166   2.6166   2.6189   2.6256
     2.6314   2.6353   2.6746   2.6845   2.6860   2.6863   2.6863   2.6874
     2.6891   2.6891   2.6970   2.6976   2.7048   2.7048   2.7731   2.7731
     2.8097   2.8330   2.9019   2.9062   2.9638   2.9685   2.9700   2.9701
     3.0369   3.0370   3.0507   3.8362   3.8437   3.8437   3.8500   3.8557
     3.9237   3.9237   3.9309   4.1455   4.4125   4.4135   4.4141   4.4142
     4.4691   4.4728   4.4729   4.5492   4.7130   4.7278   4.7281   4.7465
     5.0851   5.1021   5.1082   5.1082   5.1086   5.1180   5.1392   5.1393
     5.1983   5.2067   5.2067   5.2178   5.2256   5.2754   5.2754   5.3331
     5.4359   5.4381   5.4488   5.4489   5.4602   5.4603   5.4718   5.4730
     5.4852   5.4910   5.4911   5.4929   5.5297   5.5297   5.5490   5.5615
     5.5959   5.5961   5.5979   5.5986   5.6971   5.6972   5.7003   6.1263
     6.1389   6.1415   6.1417   6.1592   6.1594   6.1615   6.1712   6.1873
     6.2001   6.2046   6.2046   6.2085   6.3184   6.3185   6.3335   6.4688
     6.7161   6.7185   6.7256   6.7256   6.7326   6.7641   6.7687   6.7688
     6.8831   6.8831   6.9023   6.9023   6.9127   6.9173   6.9215   6.9217
     6.9246   6.9261   6.9268   6.9268   6.9373   6.9374   6.9375   6.9386
     6.9388   6.9434   6.9578   6.9678   6.9761   6.9762   6.9763   6.9774
     6.9828   6.9874   6.9919   6.9920   6.9941   6.9989   6.9990   6.9997
     7.3286   7.3286   7.3835   7.6796   7.7520   7.7596   7.7596   7.7749
     7.8139   7.8139   7.8527   7.9185   8.1776   8.1865   8.1888   8.1890
     8.2053   8.2342   8.2344   8.2608   8.3101   8.3152   8.3293   8.3366
     8.3366   8.3367   8.3542   8.3543   8.3571   8.3605   8.3650   8.3653
     8.3658   8.3659   8.3938   8.3938   8.4110   8.4111   8.4112   8.4332
     8.4340   8.4397   8.4397   8.4506   8.4508   8.4645   8.4699   8.4701
     8.4765   8.4784   8.6473   8.6819   8.6882   8.6882   8.8018   8.8018
     8.8445   8.8445   8.8754   8.8781   8.8782   8.8794   8.9946   9.1099
     9.1100   9.2153   9.2354   9.2357   9.2389   9.2467   9.3488   9.3510
     9.3511   9.3867   9.5863   9.6013   9.6098   9.6100   9.6112   9.6112
     9.6261   9.6261   9.6295   9.6330   9.6330   9.6363   9.6666   9.6667
     9.7110   9.7146   9.7226   9.7227   9.7262   9.7264   9.7578   9.7884
     9.8634   9.8635   9.8849   9.8866   9.8867   9.8909  10.1137  10.1211
    10.1353  10.1354  10.1929  10.1931  10.2007  10.2013  10.3448  10.8224
    10.8224  11.2155  11.2231  11.2339  11.2592  11.2599  11.2625  11.2625
    11.4421  11.4422  11.5289  11.5344  11.5344  11.5454  11.5769  11.8715
    11.8715  11.9951  11.9951  12.0698  12.2819  13.7233  13.7377  13.7377
    17.3211  17.3318  17.4804  17.5208  18.2414  18.2451  18.2514  18.2514
    18.2638  18.2926  18.2926  18.3013  18.3760  18.4306  18.8486  18.8491
    18.8542  18.8560  18.8624  18.8687  18.8694  18.8765  18.9042  18.9051
    18.9147  18.9147  18.9516  18.9753  19.0293  19.0294  19.0522  19.0755
    19.6021  19.6021  19.6083  19.6118  19.6239  19.6240  19.6327  19.6327
    19.6337  19.6337  19.6378  19.6400  19.6573  19.6724  19.6807  19.6807
    19.7165  19.7519  19.7519  19.7691  20.1091  20.1221  20.1223  20.1247
    20.1320  20.1350  20.1364  20.1367  20.1391  20.1407  20.1442  20.1445
    20.1908  20.2688  20.2691  20.2747  20.7009  20.7035  20.7248  20.7284
    20.7284  20.7342  20.7342  20.7371  20.7555  20.7555  20.7583  20.7682
    20.7822  20.7823  20.7889  20.7891

     occupation numbers 
     1.0000   1.0000   1.0000   1.0000   1.0000   1.0000   1.0000   1.0000
     1.0000   1.0000   1.0000   1.0000   1.0000   1.0000   1.0000   1.0000
     1.0000   1.0000   1.0000   1.0000   1.0000   1.0000   1.0000   1.0000
     1.0000   1.0000   1.0000   1.0000   1.0000   1.0000   1.0000   1.0000
     1.0000   1.0000   1.0000   1.0000   1.0000   1.0000   1.0000   1.0000
     1.0000   1.0000   1.0000   1.0000   1.0000   1.0000   1.0000   1.0000
     1.0000   1.0000   1.0000   1.0000   1.0000   1.0000   1.0000   1.0000
     1.0000   1.0000   1.0000   1.0000   1.0000   1.0000   1.0000   1.0000
     1.0000   1.0000   1.0000   1.0000   1.0000   1.0000   1.0000   1.0000
     1.0000   1.0000   1.0000   1.0000   1.0000   1.0000   1.0000   1.0000
     1.0000   1.0000   1.0000   1.0000   1.0000   1.0000   1.0000   1.0000
     1.0000   1.0000   1.0000   1.0000   1.0000   1.0000   1.0000   1.0000
     1.0000   1.0000   1.0000   1.0000   1.0000   1.0000   1.0000   1.0000
     1.0000   1.0000   1.0000   1.0000   1.0000   1.0000   1.0000   1.0000
     1.0000   1.0000   1.0000   1.0000   1.0000   1.0000   1.0000   1.0000
     1.0000   1.0000   1.0000   1.0000   1.0000   1.0000   1.0000   1.0000
     1.0000   1.0000   1.0000   1.0000   1.0000   1.0000   1.0000   1.0000
     1.0000   1.0000   1.0000   1.0000   1.0000   1.0000   1.0000   1.0000
     1.0000   1.0000   1.0000   1.0000   1.0000   1.0000   1.0000   1.0000
     1.0000   1.0000   1.0000   1.0000   1.0000   1.0000   1.0000   1.0000
     1.0000   1.0000   1.0000   1.0000   1.0000   1.0000   1.0000   1.0000
     1.0000   1.0000   1.0000   1.0000   1.0000   1.0000   1.0000   1.0000
     1.0000   1.0000   1.0000   1.0000   1.0000   1.0000   1.0000   1.0000
     1.0000   1.0000   1.0000   1.0000   1.0000   1.0000   1.0000   1.0000
     1.0000   1.0000   1.0000   1.0000   1.0000   1.0000   1.0000   1.0000
     1.0000   1.0000   1.0000   1.0000   1.0000   1.0000   1.0000   1.0000
     1.0000   1.0000   1.0000   1.0000   1.0000   1.0000   1.0000   1.0000
     1.0000   1.0000   1.0000   1.0000   1.0000   1.0000   1.0000   1.0000
     1.0000   1.0000   1.0000   1.0000   1.0000   1.0000   1.0000   1.0000
     1.0000   1.0000   1.0000   1.0000   1.0000   1.0000   1.0000   1.0000
     1.0000   1.0000   1.0000   1.0000   1.0000   1.0000   1.0000   1.0000
     1.0000   1.0000   1.0000   1.0000   1.0000   1.0000   1.0000   1.0000
     1.0000   1.0000   1.0000   1.0000   1.0000   1.0000   1.0000   1.0000
     1.0000   1.0000   1.0000   1.0000   1.0000   1.0000   1.0000   1.0000
     1.0000   1.0000   1.0000   1.0000   1.0000   1.0000   1.0000   1.0000
     1.0000   1.0000   1.0000   1.0000   1.0000   1.0000   1.0000   1.0000
     1.0000   1.0000   1.0000   1.0000   1.0000   1.0000   1.0000   1.0000
     1.0000   1.0000   1.0000   1.0000   1.0000   1.0000   1.0000   1.0000
     1.0000   1.0000   1.0000   1.0000   1.0000   1.0000   1.0000   1.0000
     1.0000   1.0000   1.0000   1.0000   1.0000   1.0000   1.0000   1.0000
     1.0000   1.0000   1.0000   1.0000   1.0000   1.0000   1.0000   1.0000
     1.0000   1.0000   1.0000   1.0000   1.0000   1.0000   1.0000   1.0000
     1.0000   1.0000   1.0000   1.0000   1.0000   1.0000   1.0000   1.0000
     1.0000   1.0000   1.0000   1.0000   1.0000   1.0000   1.0000   1.0000
     1.0000   1.0000   1.0000   1.0000   1.0000   1.0000   1.0000   1.0000
     1.0000   1.0000   1.0000   1.0000   1.0000   1.0000   1.0000   1.0000
     1.0000   1.0000   1.0000   1.0000   1.0000   1.0000   1.0000   1.0000
     1.0000   1.0000   1.0000   1.0000   1.0000   1.0000   1.0000   1.0000
     1.0000   1.0000   1.0000   1.0000   1.0000   1.0000   1.0000   1.0000
     1.0000   1.0000   1.0000   1.0000   1.0000   1.0000   1.0000   1.0000
     1.0000   1.0000   1.0000   1.0000   1.0000   1.0000   1.0000   1.0000
     1.0000   1.0000   1.0000   1.0000   1.0000   1.0000   1.0000   1.0000
     1.0000   1.0000   1.0000   1.0000   1.0000   1.0000   1.0000   1.0000
     1.0000   1.0000   1.0000   1.0000   1.0000   0.2039   0.1643   0.1643
     0.0000   0.0000   0.0000   0.0000   0.0000   0.0000   0.0000   0.0000
     0.0000   0.0000   0.0000   0.0000   0.0000   0.0000   0.0000   0.0000
     0.0000   0.0000   0.0000   0.0000   0.0000   0.0000   0.0000   0.0000
     0.0000   0.0000   0.0000   0.0000   0.0000   0.0000   0.0000   0.0000
     0.0000   0.0000   0.0000   0.0000   0.0000   0.0000   0.0000   0.0000
     0.0000   0.0000   0.0000   0.0000   0.0000   0.0000   0.0000   0.0000
     0.0000   0.0000   0.0000   0.0000   0.0000   0.0000   0.0000   0.0000
     0.0000   0.0000   0.0000   0.0000   0.0000   0.0000   0.0000   0.0000
     0.0000   0.0000   0.0000   0.0000   0.0000   0.0000   0.0000   0.0000
     0.0000   0.0000   0.0000   0.0000   0.0000   0.0000   0.0000   0.0000
[...]

     hubbard stress (kbar)      0.00      0.00      0.00
                                0.00      0.00      0.00
                                0.00      0.00      0.00

     DFT-D   stress (kbar)      0.00      0.00      0.00
                                0.00      0.00      0.00
                                0.00      0.00      0.00

     XDM     stress (kbar)      0.00      0.00      0.00
                                0.00      0.00      0.00
                                0.00      0.00      0.00

     dft-nl  stress (kbar)     24.76      0.00     -0.00
                                0.00     24.76      0.00
                               -0.00      0.00     24.76

     TS-vdW  stress (kbar)      0.00      0.00      0.00
                                0.00      0.00      0.00
                                0.00      0.00      0.00

     MDB     stress (kbar)      0.00      0.00      0.00
                                0.00      0.00      0.00
                                0.00      0.00      0.00

     3D-RISM stress (kbar)      0.00      0.00      0.00
                                0.00      0.00      0.00
                                0.00      0.00      0.00

     Energy error            =      5.7E-05 Ry
     Gradient error          =      3.6E-04 Ry/Bohr

     bfgs converged in   7 scf cycles and   6 bfgs steps
     (criteria: energy <  1.0E-04 Ry, force <  1.0E-03 Ry/Bohr)

     End of BFGS Geometry Optimization

     Final energy             =   -4083.9922153518 Ry

     File ./diamond.bfgs deleted, as requested
Begin final coordinates

ATOMIC_POSITIONS (angstrom)
C             0.8931329158        2.6791702372        4.4642533856
C             0.8930902376        2.6792129154        8.0389095198
C             0.8930902376        6.2503030867        0.8930902376
C             0.8948347331        6.2525690939        4.4664679789
C             0.8913871433        6.2525933168        8.0366192897
C             0.8931329158        9.8249592209        0.8931329158
C             0.8913208383        9.8227039823        4.4665086242
C             0.8948347331        9.8227446276        8.0366435126
C             4.4642533856        2.6791702372        0.8931329158
C             4.4665086242        2.6809823147        4.4665086242
C             4.4664679789        2.6774684199        8.0366435126
C             4.4664679789        6.2525690939        0.8948347331
C             4.4647531067        6.2508553089        4.4647531067
C             4.4653457606        6.2514408642        8.0377717423
C             4.4665086242        9.8227039823        0.8913208383
C             4.4653195055        9.8238931010        4.4653195055
C             4.4647531067        9.8244594998        8.0383572976
C             8.0389095198        2.6792129154        0.8930902376
C             8.0366435126        2.6774684199        4.4664679789
C             8.0366192897        2.6809160097        8.0366192897
C             8.0366192897        6.2525933168        0.8913871433
C             8.0377717423        6.2514408642        4.4653457606
C             8.0383760056        6.2508366009        8.0383760056
C             8.0366435126        9.8227446276        0.8948347331
C             8.0383572976        9.8244594998        4.4647531067
C             8.0377717423        9.8238668459        8.0377717423
C             0.0043020892        0.0010617568        1.7819423337
C             0.0003102498        0.0010089011        5.3577362207
C            -0.0078354967       -0.0091622215        8.9217679485
C            -0.0779224889        3.6502256401        1.8642785366
C             0.0001545496        3.5721486016        5.3593018463
C             0.0043535403        3.5679496109        8.9318819760
C             0.0001420090        7.1454243990        1.7860161752
C            -0.0011439920        7.1456061798        5.3594363342
C             0.0003380472        7.1438485917        8.9317523684
C             3.5814021796       -0.0090990284        1.7938275539
C             3.5737186944       -0.0014155432        5.3609761000
C             3.5704472932        0.0018558580        8.9325649922
C             3.5712413944        3.5680010620        1.7819423337
C             3.5712942501        3.5719929014        5.3577362207
C             3.5814653727        3.5801386479        8.9217679485
C             3.5712705808        7.1438516314        1.7858096932
C             3.5725471223        7.1441496342        5.3579745690
C             3.5737691708        7.1472091784        8.9293266385
C             7.1453609732        0.0010325704        1.7858096932
C             7.1450629704       -0.0002439711        5.3579745690
C             7.1420034262       -0.0014660196        8.9293266385
C             7.1437882056        3.5721611422        1.7860161752
C             7.1436064248        3.5734471432        5.3594363342
C             7.1453640129        3.5719651040        8.9317523684
C             7.1435877442        7.1456248604        1.7872600810
C             7.1442443659        7.1449682387        5.3587904875
C             7.1450744901        7.1441381145        8.9305030512
C             0.8917077876        0.9050585029        2.6672446501
C             0.8930990588        0.8933867831        6.2515080292
C             0.8944176965        0.9050704986        9.8359237744
C             0.8944176965        4.4532888321        2.6672326544
C             0.8931106974        4.4651458753        6.2515012498
C             0.8920393400        4.4534406995        9.8357719070
C             0.8930990588        8.0377045773        2.6789163699
C             0.8931060891        8.0377265442        6.2514860623
C             0.8931106974        8.0377113567        9.8240667312
C             4.4668914655        0.8926558911        2.6796472619
C             4.4652950513        0.8930919797        6.2523008392
C             4.4625440363        0.8947977440        9.8254444473
C             4.4625440363        4.4637681592        2.6775054090
C             4.4653113057        4.4654583148        6.2506698669
C             4.4669842055        4.4658909471        9.8233216594
C             4.4652950513        8.0369117673        2.6792111733
C             4.4652783124        8.0377273930        6.2514852135
C             4.4653113057        8.0385427396        9.8237542917
C             8.0406048577        0.8947911133        2.6775120397
C             8.0378105475        0.8930821294        6.2506644413
C             8.0361919729        0.8925677980        9.8232889286
C             8.0361919729        4.4659236779        2.6797353550
C             8.0378074665        4.4654580082        6.2523300753
C             8.0406614991        4.4637061738        9.8255064327
C             8.0378105475        8.0385481652        2.6792210236
C             8.0378261243        8.0377247810        6.2514878255
C             8.0378074665        8.0368825312        9.8237545983
C            -0.0779224889        1.7080246164       -0.0779224889
C             0.0043020892        1.7903608193        3.5712413944
C             0.0001420090        1.7862869778        7.1437882056
C             0.0043535403        5.3573306305        0.0043535403
C            -0.0078354967        5.3674446580        3.5814653727
C             0.0003380472        5.3574602381        7.1453640129
C             0.0001545496        8.9299107602        0.0001545496
C             0.0003102498        8.9314763858        3.5712942501
C            -0.0011439920        8.9297762723        7.1436064248
C             3.5712413944        1.7903608193        0.0043020892
C             3.5814021796        1.7784755991        3.5814021796
C             3.5712705808        1.7864934598        7.1453609732
C             3.5814653727        5.3674446580       -0.0078354967
C             3.5704472932        5.3566476143        3.5704472932
C             3.5737691708        5.3598859680        7.1420034262
C             3.5712942501        8.9314763858        0.0003102498
C             3.5737186944        8.9282365065        3.5737186944
C             3.5725471223        8.9312380375        7.1450629704
C             7.1437882056        1.7862869778        0.0001420090
C             7.1453609732        1.7864934598        3.5712705808
C             7.1435877442        1.7850430720        7.1435877442
C             7.1453640129        5.3574602381        0.0003380472
C             7.1420034262        5.3598859680        3.5737691708
C             7.1450744901        5.3587095553        7.1450744901
C             7.1436064248        8.9297762723       -0.0011439920
C             7.1450629704        8.9312380375        3.5725471223
C             7.1442443659        8.9304221190        7.1442443659
C             2.6672446501        2.6805953654        2.6672446501
C             2.6789163699        2.6792040942        6.2515080292
C             2.6672326544        2.6778854565        9.8359237744
C             2.6775120397        6.2486077488        2.6775120397
C             2.6792210236        6.2514020590        6.2506644413
C             2.6797353550        6.2530206336        9.8232889286
C             2.6796472619        9.8223211410        2.6796472619
C             2.6792111733        9.8239175552        6.2523008392
C             2.6775054090        9.8266685702        9.8254444473
C             6.2515080292        2.6792040942        2.6789163699
C             6.2514860623        2.6791970639        6.2514860623
C             6.2515012498        2.6791924556        9.8240667312
C             6.2506644413        6.2514020590        2.6792210236
C             6.2514878255        6.2513864822        6.2514878255
C             6.2523300753        6.2514051400        9.8237545983
C             6.2523008392        9.8239175552        2.6792111733
C             6.2514852135        9.8239342941        6.2514852135
C             6.2506698669        9.8239013008        9.8237542917
C             9.8359237744        2.6778854565        2.6672326544
C             9.8240667312        2.6791924556        6.2515012498
C             9.8357719070        2.6802638130        9.8357719070
C             9.8232889286        6.2530206336        2.6797353550
C             9.8237545983        6.2514051400        6.2523300753
C             9.8255064327        6.2485511074        9.8255064327
C             9.8254444473        9.8266685702        2.6775054090
C             9.8237542917        9.8239013008        6.2506698669
C             9.8233216594        9.8222284010        9.8233216594
C             1.7819423337        0.0010617568        0.0043020892
C             1.7938275539       -0.0090990284        3.5814021796
C             1.7858096932        0.0010325704        7.1453609732
C             1.8642785366        3.6502256401       -0.0779224889
C             1.7819423337        3.5680010620        3.5712413944
C             1.7860161752        3.5721611422        7.1437882056
C             1.7860161752        7.1454243990        0.0001420090
C             1.7858096932        7.1438516314        3.5712705808
C             1.7872600810        7.1456248604        7.1435877442
C             5.3577362207        0.0010089011        0.0003102498
C             5.3609761000       -0.0014155432        3.5737186944
C             5.3579745690       -0.0002439711        7.1450629704
C             5.3593018463        3.5721486016        0.0001545496
C             5.3577362207        3.5719929014        3.5712942501
C             5.3594363342        3.5734471432        7.1436064248
C             5.3594363342        7.1456061798       -0.0011439920
C             5.3579745690        7.1441496342        3.5725471223
C             5.3587904875        7.1449682387        7.1442443659
C             8.9217679485       -0.0091622215       -0.0078354967
C             8.9325649922        0.0018558580        3.5704472932
C             8.9293266385       -0.0014660196        7.1420034262
C             8.9318819760        3.5679496109        0.0043535403
C             8.9217679485        3.5801386479        3.5814653727
C             8.9317523684        3.5719651040        7.1453640129
C             8.9317523684        7.1438485917        0.0003380472
C             8.9293266385        7.1472091784        3.5737691708
C             8.9305030512        7.1441381145        7.1450744901
C             2.6672446501        0.9050585029        0.8917077876
C             2.6796472619        0.8926558911        4.4668914655
C             2.6775120397        0.8947911133        8.0406048577
C             2.6672326544        4.4532888321        0.8944176965
C             2.6775054090        4.4637681592        4.4625440363
C             2.6797353550        4.4659236779        8.0361919729
C             2.6789163699        8.0377045773        0.8930990588
C             2.6792111733        8.0369117673        4.4652950513
C             2.6792210236        8.0385481652        8.0378105475
C             6.2515080292        0.8933867831        0.8930990588
C             6.2523008392        0.8930919797        4.4652950513
C             6.2506644413        0.8930821294        8.0378105475
C             6.2515012498        4.4651458753        0.8931106974
C             6.2506698669        4.4654583148        4.4653113057
C             6.2523300753        4.4654580082        8.0378074665
C             6.2514860623        8.0377265442        0.8931060891
C             6.2514852135        8.0377273930        4.4652783124
C             6.2514878255        8.0377247810        8.0378261243
C             9.8359237744        0.9050704986        0.8944176965
C             9.8254444473        0.8947977440        4.4625440363
C             9.8232889286        0.8925677980        8.0361919729
C             9.8357719070        4.4534406995        0.8920393400
C             9.8233216594        4.4658909471        4.4669842055
C             9.8255064327        4.4637061738        8.0406614991
C             9.8240667312        8.0377113567        0.8931106974
C             9.8237542917        8.0385427396        4.4653113057
C             9.8237545983        8.0368825312        8.0378074665
C             1.8638082159        1.7084949371        1.8638082159
C             1.7859896205        1.7863135325        5.3592996886
C             1.7817807964        1.7905223566        8.9319573652
C             1.7817807964        5.3572552413        1.7817807964
C             1.7857994718        5.3574390648        5.3576905898
C             1.7941464179        5.3677451656        8.9214674409
C             1.7859896205        8.9299129179        1.7859896205
C             1.7872891244        8.9297531670        5.3594594395
C             1.7857994718        8.9315220167        8.9317735417
C             5.3592996886        1.7863135325        1.7859896205
C             5.3594594395        1.7850140286        5.3594594395
C             5.3576905898        1.7865036812        8.9317735417
C             5.3576905898        5.3574390648        1.7857994718
C             5.3579722339        5.3587226687        5.3579722339
C             5.3610903815        5.3599316432        8.9292809633
C             5.3594594395        8.9297531670        1.7872891244
C             5.3587906919        8.9304219146        5.3587906919
C             5.3579722339        8.9312403726        8.9304899378
C             8.9319573652        1.7905223566        1.7817807964
C             8.9317735417        1.7865036812        5.3576905898
C             8.9214674409        1.7781567351        8.9214674409
C             8.9214674409        5.3677451656        1.7941464179
C             8.9292809633        5.3599316432        5.3610903815
C             8.9326614995        5.3565511070        8.9326614995
C             8.9317735417        8.9315220167        1.7857994718
C             8.9304899378        8.9312403726        5.3579722339
C             8.9292809633        8.9281222250        8.9292809633
End final coordinates



     Writing all to output data dir ./diamond.save/
 
     init_run     :      5.47s CPU      5.75s WALL (       1 calls)
     electrons    :   4495.02s CPU   4538.46s WALL (       7 calls)
     update_pot   :      3.22s CPU      3.27s WALL (       6 calls)
     forces       :     16.95s CPU     17.65s WALL (       7 calls)
     stress       :    205.04s CPU    207.08s WALL (       7 calls)

     Called by init_run:
     wfcinit      :      4.32s CPU      4.49s WALL (       1 calls)
     wfcinit:atom :      0.02s CPU      0.03s WALL (       1 calls)
     wfcinit:wfcr :      4.21s CPU      4.32s WALL (       1 calls)
     potinit      :      0.55s CPU      0.60s WALL (       1 calls)
     hinit0       :      0.06s CPU      0.06s WALL (       1 calls)

     Called by electrons:
     c_bands      :   4380.56s CPU   4421.08s WALL (      88 calls)
     sum_band     :     74.11s CPU     75.20s WALL (      88 calls)
     v_of_rho     :     26.33s CPU     26.95s WALL (      92 calls)
     v_h          :      0.29s CPU      0.29s WALL (      92 calls)
     v_xc         :     30.00s CPU     30.68s WALL (     106 calls)
     newd         :      5.01s CPU      5.09s WALL (      92 calls)
     PAW_pot      :      8.20s CPU      8.34s WALL (      98 calls)
     mix_rho      :      1.11s CPU      1.17s WALL (      88 calls)
     vdW_kernel   :      0.17s CPU      0.17s WALL (       1 calls)

     Called by c_bands:
     init_us_2    :      7.04s CPU      7.23s WALL (     183 calls)
     init_us_2:cp :      7.04s CPU      7.23s WALL (     183 calls)
     cegterg      :   3516.53s CPU   3551.66s WALL (      88 calls)

     Called by sum_band:
     sum_band:wei :      0.37s CPU      0.39s WALL (      88 calls)
     sum_band:loo :     60.31s CPU     61.19s WALL (      88 calls)
     sum_band:buf :      0.00s CPU      0.00s WALL (      88 calls)
     sum_band:ini :      3.43s CPU      3.52s WALL (      88 calls)
     sum_band:cal :     35.56s CPU     35.89s WALL (      94 calls)
     sum_band:bec :      0.81s CPU      0.82s WALL (      94 calls)
     addusdens    :      3.41s CPU      3.45s WALL (      88 calls)
     addusd:skk   :      0.95s CPU      0.97s WALL (      88 calls)
     addusd:dgemm :      1.15s CPU      1.17s WALL (      88 calls)
     addusd:qvan2 :      0.09s CPU      0.09s WALL (      88 calls)

     Called by *egterg:
     cdiaghg      :   2711.46s CPU   2727.84s WALL (    1181 calls)
     cegterg:over :    151.66s CPU    156.55s WALL (    1102 calls)
     cegterg:upda :     89.59s CPU     91.71s WALL (    1102 calls)
     cegterg:last :     31.12s CPU     31.38s WALL (      91 calls)
     h_psi        :    377.14s CPU    383.41s WALL (    1191 calls)
     s_psi        :    107.96s CPU    108.93s WALL (    1191 calls)
     g_psi        :      0.34s CPU      0.34s WALL (    1102 calls)

     Called by h_psi:
     h_psi:calbec :    122.34s CPU    123.50s WALL (    1191 calls)
     vloc_psi     :    144.46s CPU    146.52s WALL (    1191 calls)
     add_vuspsi   :    107.86s CPU    108.84s WALL (    1191 calls)

     General routines
     calbec       :    171.24s CPU    172.84s WALL (    1320 calls)
     fft          :     15.58s CPU     15.83s WALL (    6974 calls)
     ffts         :      0.59s CPU      0.59s WALL (     180 calls)
     fftw         :    158.23s CPU    160.54s WALL (  339494 calls)
     interpolate  :      0.36s CPU      0.37s WALL (      92 calls)
 
     Parallel routines

     PAW routines
     PAW_pot      :      8.20s CPU      8.34s WALL (      98 calls)
     PAW_symme    :      0.36s CPU      0.37s WALL (     186 calls)
 
     PWSCF        :      1h18m CPU      1h19m WALL

 
   This run was terminated on:  11:27:23  29Sep2023            

=------------------------------------------------------------------------------=
   JOB DONE.
=------------------------------------------------------------------------------=
