
     Program PWSCF v.7.1 starts on 25Jan2024 at 15:18:55 

     This program is part of the open-source Quantum ESPRESSO suite
     for quantum simulation of materials; please cite
         "P. Giannozzi et al., J. Phys.:Condens. Matter 21 395502 (2009);
         "P. Giannozzi et al., J. Phys.:Condens. Matter 29 465901 (2017);
         "P. Giannozzi et al., J. Chem. Phys. 152 154105 (2020);
          URL http://www.quantum-espresso.org", 
     in publications or presentations arising from this work. More details at
     http://www.quantum-espresso.org/quote

     Parallel version (MPI & OpenMP), running on     128 processor cores
     Number of MPI processes:               128
     Threads/MPI process:                     1

     MPI processes distributed on     1 nodes
     2034884 MiB available memory on the printing compute node when the environment starts
 
     Reading input from espresso.pwi
Warning: card &CELL ignored
Warning: card    CELL_DYNAMICS    = 'BFGS' ignored
Warning: card / ignored

     Current dimensions of program PWSCF are:
     Max number of different atomic species (ntypx) = 10
     Max number of k-points (npk) =  40000
     Max angular momentum in pseudopotentials (lmaxx) =  4
     file Ga.pbe-dn-kjpaw_psl.1.0.0.UPF: wavefunction(s)  4S renormalized
     file N.pbe-n-kjpaw_psl.1.0.0.UPF: wavefunction(s)  2S renormalized

     **************************************************************************
     Initializing libbeef V0.1.2 with the BEEF-vdW functional.
     Citation: Wellendorff et al., PRB 85, 235149 (2012).
     **************************************************************************


     IMPORTANT: XC functional enforced from input :
     Exchange-correlation= BEEF-VDW
                           (   1   4  43  14   2   0   0)
     Any further DFT definition will be discarded
     Please, verify this is what you really want

 
     K-points division:     npool     =       4
     R & G space division:  proc/nbgrp/npool/nimage =      32
     Subspace diagonalization in iterative solution of the eigenvalue problem:
     a serial algorithm will be used

 
     Parallelization info
     --------------------
     sticks:   dense  smooth     PW     G-vecs:    dense   smooth      PW
     Min         253     203     54                20226    14477    1979
     Max         255     204     56                20235    14484    1982
     Sum        8137    6505   1735               647327   463355   63361
 
     Using Slab Decomposition
 


     bravais-lattice index     =            4
     lattice parameter (alat)  =      18.3939  a.u.
     unit-cell volume          =    5856.2271 (a.u.)^3
     number of atoms/cell      =           71
     number of atomic types    =            2
     number of electrons       =       635.00
     number of Kohn-Sham states=          382
     kinetic-energy cutoff     =      70.0000  Ry
     charge density cutoff     =     350.0000  Ry
     scf convergence threshold =      1.0E-09
     mixing beta               =       0.7000
     number of iterations used =            8  plain     mixing
     energy convergence thresh.=      1.0E-04
     force convergence thresh. =      1.0E-03
     Exchange-correlation= BEEF-VDW
                           (   1   4  43  14   2   0   0)
     nstep                     =           50


     celldm(1)=  18.393924  celldm(2)=   0.000000  celldm(3)=   1.086586
     celldm(4)=   0.000000  celldm(5)=   0.000000  celldm(6)=   0.000000

     crystal axes: (cart. coord. in units of alat)
               a(1) = (   1.000000   0.000000   0.000000 )  
               a(2) = (  -0.500000   0.866025   0.000000 )  
               a(3) = (   0.000000   0.000000   1.086586 )  

     reciprocal axes: (cart. coord. in units 2 pi/alat)
               b(1) = (  1.000000  0.577350 -0.000000 )  
               b(2) = (  0.000000  1.154701  0.000000 )  
               b(3) = (  0.000000 -0.000000  0.920314 )  


     PseudoPot. # 1 for Ga read from file:
     /trace/group/acmegroup/atimmins/packages/espresso/pseudo/psl_1.0.0/pslibrary.1.0.0/pbe/PSEUDOPOTENTIALS/Ga.pbe-dn-kjpaw_psl.1.0.0.UPF
     MD5 check sum: cd2a01e492f15b435d17032472d8505c
     Pseudo is Projector augmented-wave + core cor, Zval = 13.0
     Generated using 'atomic' code by A. Dal Corso  v.7.1
     Shape of augmentation charge: PSQ
     Using radial grid of 1205 points,  6 beta functions with: 
                l(1) =   0
                l(2) =   0
                l(3) =   1
                l(4) =   1
                l(5) =   2
                l(6) =   2
     Q(r) pseudized with 0 coefficients 


     PseudoPot. # 2 for N  read from file:
     /trace/group/acmegroup/atimmins/packages/espresso/pseudo/psl_1.0.0/pslibrary.1.0.0/pbe/PSEUDOPOTENTIALS/N.pbe-n-kjpaw_psl.1.0.0.UPF
     MD5 check sum: f77f775694dac7e2c3fe1c82443d1a16
     Pseudo is Projector augmented-wave + core cor, Zval =  5.0
     Generated using 'atomic' code by A. Dal Corso  v.7.1
     Shape of augmentation charge: PSQ
     Using radial grid of 1085 points,  4 beta functions with: 
                l(1) =   0
                l(2) =   0
                l(3) =   1
                l(4) =   1
     Q(r) pseudized with 0 coefficients 


     atomic species   valence    mass     pseudopotential
        Ga            13.00    69.72300     Ga( 1.00)
        N              5.00    14.00700     N ( 1.00)

      6 Sym. Ops. (no inversion) found ( 4 have fractional translation)


                                    s                        frac. trans.

      isym =  1     identity                                     

 cryst.   s( 1) = (     1          0          0      )
                  (     0          1          0      )
                  (     0          0          1      )

 cart.    s( 1) = (  1.0000000  0.0000000  0.0000000 )
                  (  0.0000000  1.0000000  0.0000000 )
                  (  0.0000000  0.0000000  1.0000000 )


      isym =  2     120 deg rotation - cryst. axis [0,0,1]       

 cryst.   s( 2) = (     0          1          0      )    f =( -0.3333334 )
                  (    -1         -1          0      )       (  0.0000003 )
                  (     0          0          1      )       (  0.0000000 )

 cart.    s( 2) = ( -0.5000000 -0.8660254  0.0000000 )    f =( -0.3333335 )
                  (  0.8660254 -0.5000000  0.0000000 )       (  0.0000002 )
                  (  0.0000000  0.0000000  1.0000000 )       (  0.0000000 )


      isym =  3     120 deg rotation - cryst. axis [0,0,-1]      

 cryst.   s( 3) = (    -1         -1          0      )    f =( -0.3333336 )
                  (     1          0          0      )       ( -0.3333334 )
                  (     0          0          1      )       (  0.0000000 )

 cart.    s( 3) = ( -0.5000000  0.8660254  0.0000000 )    f =( -0.1666669 )
                  ( -0.8660254 -0.5000000  0.0000000 )       ( -0.2886752 )
                  (  0.0000000  0.0000000  1.0000000 )       (  0.0000000 )


      isym =  4     inv. 180 deg rotation - cart. axis [1,0,0]   

 cryst.   s( 4) = (    -1          0          0      )    f =( -0.3333336 )
                  (     1          1          0      )       (  0.0000000 )
                  (     0          0          1      )       (  0.0000000 )

 cart.    s( 4) = ( -1.0000000  0.0000000  0.0000000 )    f =( -0.3333336 )
                  (  0.0000000  1.0000000  0.0000000 )       (  0.0000000 )
                  (  0.0000000  0.0000000  1.0000000 )       (  0.0000000 )


      isym =  5     inv. 180 deg rotation - cryst. axis [0,1,0]  

 cryst.   s( 5) = (     1          1          0      )
                  (     0         -1          0      )
                  (     0          0          1      )

 cart.    s( 5) = (  0.5000000  0.8660254  0.0000000 )
                  (  0.8660254 -0.5000000  0.0000000 )
                  (  0.0000000  0.0000000  1.0000000 )


      isym =  6     inv. 180 deg rotation - cryst. axis [1,1,0]  

 cryst.   s( 6) = (     0         -1          0      )    f =( -0.3333334 )
                  (    -1          0          0      )       ( -0.3333334 )
                  (     0          0          1      )       (  0.0000000 )

 cart.    s( 6) = (  0.5000000 -0.8660254  0.0000000 )    f =( -0.1666667 )
                  ( -0.8660254 -0.5000000  0.0000000 )       ( -0.2886752 )
                  (  0.0000000  0.0000000  1.0000000 )       (  0.0000000 )


     point group C_3v (3m)  
     there are  3 classes
     the character table:

       E     2C3   3s_v 
A_1    1.00  1.00  1.00
A_2    1.00  1.00 -1.00
E      2.00 -1.00  0.00

     the symmetry operations in each class and the name of the first element:

     E        1
          identity                                               
     2C3      2    3
          120 deg rotation - cryst. axis [0,0,1]                 
     3s_v     4    5    6
          inv. 180 deg rotation - cart. axis [1,0,0]             

   Cartesian axes

     site n.     atom                  positions (alat units)
         1           Ga  tau(   1) = (   0.1666668   0.0962250   0.8144844  )
         2           Ga  tau(   2) = (   0.0000001   0.3849001   0.2711914  )
         3           Ga  tau(   3) = (   0.0000001   0.3849001   0.8144844  )
         4           Ga  tau(   4) = (  -0.1666665   0.6735752   0.2711914  )
         5           Ga  tau(   5) = (  -0.1666665   0.6735752   0.8144844  )
         6           Ga  tau(   6) = (   0.5000001   0.0962250   0.2711914  )
         7           Ga  tau(   7) = (   0.5000001   0.0962250   0.8144844  )
         8           Ga  tau(   8) = (   0.3333335   0.3849001   0.2711914  )
         9           Ga  tau(   9) = (   0.3333335   0.3849001   0.8144844  )
        10           Ga  tau(  10) = (   0.1666668   0.6735752   0.2711914  )
        11           Ga  tau(  11) = (   0.1666668   0.6735752   0.8144844  )
        12           Ga  tau(  12) = (   0.8333335   0.0962250   0.2711914  )
        13           Ga  tau(  13) = (   0.8333335   0.0962250   0.8144844  )
        14           Ga  tau(  14) = (   0.6666668   0.3849001   0.2711914  )
        15           Ga  tau(  15) = (   0.6666668   0.3849001   0.8144844  )
        16           Ga  tau(  16) = (   0.5000001   0.6735752   0.2711914  )
        17           Ga  tau(  17) = (   0.5000001   0.6735752   0.8144844  )
        18           Ga  tau(  18) = (  -0.0000002   0.1924502   0.5428379  )
        19           Ga  tau(  19) = (  -0.0000002   0.1924502   1.0861309  )
        20           Ga  tau(  20) = (  -0.1666669   0.4811254   0.5428379  )
        21           Ga  tau(  21) = (  -0.1666669   0.4811254   1.0861309  )
        22           Ga  tau(  22) = (  -0.3333335   0.7698005   0.5428379  )
        23           Ga  tau(  23) = (  -0.3333335   0.7698005   1.0861309  )
        24           Ga  tau(  24) = (   0.3333331   0.1924502   0.5428379  )
        25           Ga  tau(  25) = (   0.3333331   0.1924502   1.0861309  )
        26           Ga  tau(  26) = (   0.1666665   0.4811254   0.5428379  )
        27           Ga  tau(  27) = (   0.1666665   0.4811254   1.0861309  )
        28           Ga  tau(  28) = (  -0.0000002   0.7698005   0.5428379  )
        29           Ga  tau(  29) = (  -0.0000002   0.7698005   1.0861309  )
        30           Ga  tau(  30) = (   0.6666665   0.1924502   0.5428379  )
        31           Ga  tau(  31) = (   0.6666665   0.1924502   1.0861309  )
        32           Ga  tau(  32) = (   0.4999998   0.4811254   0.5428379  )
        33           Ga  tau(  33) = (   0.4999998   0.4811254   1.0861309  )
        34           Ga  tau(  34) = (   0.3333331   0.7698005   0.5428379  )
        35           Ga  tau(  35) = (   0.3333331   0.7698005   1.0861309  )
        36           N   tau(  36) = (   0.1666668   0.0962250   0.4758365  )
        37           N   tau(  37) = (   0.1666668   0.0962250   1.0191295  )
        38           N   tau(  38) = (   0.0000001   0.3849001   0.4758365  )
        39           N   tau(  39) = (   0.0000001   0.3849001   1.0191295  )
        40           N   tau(  40) = (  -0.1666665   0.6735752   0.4758365  )
        41           N   tau(  41) = (  -0.1666665   0.6735752   1.0191295  )
        42           N   tau(  42) = (   0.5000001   0.0962250   0.4758365  )
        43           N   tau(  43) = (   0.5000001   0.0962250   1.0191295  )
        44           N   tau(  44) = (   0.3333335   0.3849001   0.4758365  )
        45           N   tau(  45) = (   0.3333335   0.3849001   1.0191295  )
        46           N   tau(  46) = (   0.1666668   0.6735752   0.4758365  )
        47           N   tau(  47) = (   0.1666668   0.6735752   1.0191295  )
        48           N   tau(  48) = (   0.8333335   0.0962250   0.4758365  )
        49           N   tau(  49) = (   0.8333335   0.0962250   1.0191295  )
        50           N   tau(  50) = (   0.6666668   0.3849001   0.4758365  )
        51           N   tau(  51) = (   0.6666668   0.3849001   1.0191295  )
        52           N   tau(  52) = (   0.5000001   0.6735752   0.4758365  )
        53           N   tau(  53) = (   0.5000001   0.6735752   1.0191295  )
        54           N   tau(  54) = (  -0.0000002   0.1924502   0.2041900  )
        55           N   tau(  55) = (  -0.0000002   0.1924502   0.7474830  )
        56           N   tau(  56) = (  -0.1666669   0.4811254   0.2041900  )
        57           N   tau(  57) = (  -0.1666669   0.4811254   0.7474830  )
        58           N   tau(  58) = (  -0.3333335   0.7698005   0.2041900  )
        59           N   tau(  59) = (  -0.3333335   0.7698005   0.7474830  )
        60           N   tau(  60) = (   0.3333331   0.1924502   0.2041900  )
        61           N   tau(  61) = (   0.3333331   0.1924502   0.7474830  )
        62           N   tau(  62) = (   0.1666665   0.4811254   0.2041900  )
        63           N   tau(  63) = (   0.1666665   0.4811254   0.7474830  )
        64           N   tau(  64) = (  -0.0000002   0.7698005   0.2041900  )
        65           N   tau(  65) = (  -0.0000002   0.7698005   0.7474830  )
        66           N   tau(  66) = (   0.6666665   0.1924502   0.2041900  )
        67           N   tau(  67) = (   0.6666665   0.1924502   0.7474830  )
        68           N   tau(  68) = (   0.4999998   0.4811254   0.2041900  )
        69           N   tau(  69) = (   0.4999998   0.4811254   0.7474830  )
        70           N   tau(  70) = (   0.3333331   0.7698005   0.2041900  )
        71           N   tau(  71) = (   0.3333331   0.7698005   0.7474830  )

   Crystallographic axes

     site n.     atom                  positions (cryst. coord.)
         1           Ga  tau(   1) = (  0.2222223  0.1111110  0.7495811  )
         2           Ga  tau(   2) = (  0.2222223  0.4444444  0.2495811  )
         3           Ga  tau(   3) = (  0.2222223  0.4444444  0.7495811  )
         4           Ga  tau(   4) = (  0.2222223  0.7777777  0.2495811  )
         5           Ga  tau(   5) = (  0.2222223  0.7777777  0.7495811  )
         6           Ga  tau(   6) = (  0.5555557  0.1111110  0.2495811  )
         7           Ga  tau(   7) = (  0.5555557  0.1111110  0.7495811  )
         8           Ga  tau(   8) = (  0.5555557  0.4444444  0.2495811  )
         9           Ga  tau(   9) = (  0.5555557  0.4444444  0.7495811  )
        10           Ga  tau(  10) = (  0.5555557  0.7777777  0.2495811  )
        11           Ga  tau(  11) = (  0.5555557  0.7777777  0.7495811  )
        12           Ga  tau(  12) = (  0.8888890  0.1111110  0.2495811  )
        13           Ga  tau(  13) = (  0.8888890  0.1111110  0.7495811  )
        14           Ga  tau(  14) = (  0.8888890  0.4444444  0.2495811  )
        15           Ga  tau(  15) = (  0.8888890  0.4444444  0.7495811  )
        16           Ga  tau(  16) = (  0.8888890  0.7777777  0.2495811  )
        17           Ga  tau(  17) = (  0.8888890  0.7777777  0.7495811  )
        18           Ga  tau(  18) = (  0.1111110  0.2222224  0.4995811  )
        19           Ga  tau(  19) = (  0.1111110  0.2222224  0.9995811  )
        20           Ga  tau(  20) = (  0.1111110  0.5555557  0.4995811  )
        21           Ga  tau(  21) = (  0.1111110  0.5555557  0.9995811  )
        22           Ga  tau(  22) = (  0.1111110  0.8888891  0.4995811  )
        23           Ga  tau(  23) = (  0.1111110  0.8888891  0.9995811  )
        24           Ga  tau(  24) = (  0.4444443  0.2222224  0.4995811  )
        25           Ga  tau(  25) = (  0.4444443  0.2222224  0.9995811  )
        26           Ga  tau(  26) = (  0.4444443  0.5555557  0.4995811  )
        27           Ga  tau(  27) = (  0.4444443  0.5555557  0.9995811  )
        28           Ga  tau(  28) = (  0.4444443  0.8888891  0.4995811  )
        29           Ga  tau(  29) = (  0.4444443  0.8888891  0.9995811  )
        30           Ga  tau(  30) = (  0.7777777  0.2222224  0.4995811  )
        31           Ga  tau(  31) = (  0.7777777  0.2222224  0.9995811  )
        32           Ga  tau(  32) = (  0.7777777  0.5555557  0.4995811  )
        33           Ga  tau(  33) = (  0.7777777  0.5555557  0.9995811  )
        34           Ga  tau(  34) = (  0.7777777  0.8888891  0.4995811  )
        35           Ga  tau(  35) = (  0.7777777  0.8888891  0.9995811  )
        36           N   tau(  36) = (  0.2222223  0.1111110  0.4379189  )
        37           N   tau(  37) = (  0.2222223  0.1111110  0.9379189  )
        38           N   tau(  38) = (  0.2222223  0.4444444  0.4379189  )
        39           N   tau(  39) = (  0.2222223  0.4444444  0.9379189  )
        40           N   tau(  40) = (  0.2222223  0.7777777  0.4379189  )
        41           N   tau(  41) = (  0.2222223  0.7777777  0.9379189  )
        42           N   tau(  42) = (  0.5555557  0.1111110  0.4379189  )
        43           N   tau(  43) = (  0.5555557  0.1111110  0.9379189  )
        44           N   tau(  44) = (  0.5555557  0.4444444  0.4379189  )
        45           N   tau(  45) = (  0.5555557  0.4444444  0.9379189  )
        46           N   tau(  46) = (  0.5555557  0.7777777  0.4379189  )
        47           N   tau(  47) = (  0.5555557  0.7777777  0.9379189  )
        48           N   tau(  48) = (  0.8888890  0.1111110  0.4379189  )
        49           N   tau(  49) = (  0.8888890  0.1111110  0.9379189  )
        50           N   tau(  50) = (  0.8888890  0.4444444  0.4379189  )
        51           N   tau(  51) = (  0.8888890  0.4444444  0.9379189  )
        52           N   tau(  52) = (  0.8888890  0.7777777  0.4379189  )
        53           N   tau(  53) = (  0.8888890  0.7777777  0.9379189  )
        54           N   tau(  54) = (  0.1111110  0.2222224  0.1879189  )
        55           N   tau(  55) = (  0.1111110  0.2222224  0.6879189  )
        56           N   tau(  56) = (  0.1111110  0.5555557  0.1879189  )
        57           N   tau(  57) = (  0.1111110  0.5555557  0.6879189  )
        58           N   tau(  58) = (  0.1111110  0.8888891  0.1879189  )
        59           N   tau(  59) = (  0.1111110  0.8888891  0.6879189  )
        60           N   tau(  60) = (  0.4444443  0.2222224  0.1879189  )
        61           N   tau(  61) = (  0.4444443  0.2222224  0.6879189  )
        62           N   tau(  62) = (  0.4444443  0.5555557  0.1879189  )
        63           N   tau(  63) = (  0.4444443  0.5555557  0.6879189  )
        64           N   tau(  64) = (  0.4444443  0.8888891  0.1879189  )
        65           N   tau(  65) = (  0.4444443  0.8888891  0.6879189  )
        66           N   tau(  66) = (  0.7777777  0.2222224  0.1879189  )
        67           N   tau(  67) = (  0.7777777  0.2222224  0.6879189  )
        68           N   tau(  68) = (  0.7777777  0.5555557  0.1879189  )
        69           N   tau(  69) = (  0.7777777  0.5555557  0.6879189  )
        70           N   tau(  70) = (  0.7777777  0.8888891  0.1879189  )
        71           N   tau(  71) = (  0.7777777  0.8888891  0.6879189  )

     number of k points=     4  Gaussian smearing, width (Ry)=  0.0100
                       cart. coord. in units 2pi/alat
        k(    1) = (   0.0000000   0.0000000   0.0000000), wk =   0.2500000
        k(    2) = (   0.0000000   0.0000000  -0.4601568), wk =   0.2500000
        k(    3) = (   0.0000000  -0.5773503   0.0000000), wk =   0.7500000
        k(    4) = (   0.0000000  -0.5773503  -0.4601568), wk =   0.7500000

                       cryst. coord.
        k(    1) = (   0.0000000   0.0000000   0.0000000), wk =   0.2500000
        k(    2) = (   0.0000000   0.0000000  -0.5000000), wk =   0.2500000
        k(    3) = (   0.0000000  -0.5000000   0.0000000), wk =   0.7500000
        k(    4) = (   0.0000000  -0.5000000  -0.5000000), wk =   0.7500000

     Dense  grid:   647327 G-vectors     FFT dimensions: ( 120, 120, 120)

     Smooth grid:   463355 G-vectors     FFT dimensions: ( 108, 108, 108)

     Dynamical RAM for                 wfc:      10.54 MB

     Dynamical RAM for     wfc (w. buffer):      10.54 MB

     Dynamical RAM for           str. fact:       0.62 MB

     Dynamical RAM for           local pot:       0.00 MB

     Dynamical RAM for          nlocal pot:      25.34 MB

     Dynamical RAM for                qrad:       3.00 MB

     Dynamical RAM for          rho,v,vnew:       2.24 MB

     Dynamical RAM for               rhoin:       0.75 MB

     Dynamical RAM for            rho*nmix:       4.94 MB

     Dynamical RAM for           G-vectors:       1.27 MB

     Dynamical RAM for          h,s,v(r/c):     106.88 MB

     Dynamical RAM for          <psi|beta>:       5.35 MB

     Dynamical RAM for                 psi:      42.18 MB

     Dynamical RAM for                hpsi:      42.18 MB

     Dynamical RAM for                spsi:      42.18 MB

     Dynamical RAM for      wfcinit/wfcrot:      30.17 MB

     Dynamical RAM for           addusdens:      17.37 MB

     Dynamical RAM for          addusforce:      22.83 MB

     Dynamical RAM for         addusstress:      15.63 MB

     Estimated static dynamical RAM per process >      46.89 MB

     Estimated max dynamical RAM per process >     290.59 MB

     Estimated total dynamical RAM >      35.86 GB

     Check: negative core charge=   -0.000003

     Initial potential from superposition of free atoms

     starting charge     634.8964, renormalised to     635.0000


     %%%%%%%%%%%%%%%%%%%%%%%%%%%%%%%%%%%%%%%%%%%%%%%%%%%%%%%%%%%%%%%%%%%%%%%%
     %                                                                      %
     % You are using vdW-DF, which was implemented by the Thonhauser group. %
     % Please cite the following two papers that made this development      %
     % possible and the two reviews that describe the various versions:     %
     %                                                                      %
     %   T. Thonhauser et al., PRL 115, 136402 (2015).                      %
     %   T. Thonhauser et al., PRB 76, 125112 (2007).                       %
     %   K. Berland et al., Rep. Prog. Phys. 78, 066501 (2015).             %
     %   D.C. Langreth et al., J. Phys.: Condens. Matter 21, 084203 (2009). %
     %                                                                      %
     % If you are calculating stress with vdW-DF, please also cite:         %
     %                                                                      %
     %   R. Sabatini et al., J. Phys.: Condens. Matter 24, 424209 (2012).   %
     %                                                                      %
     %%%%%%%%%%%%%%%%%%%%%%%%%%%%%%%%%%%%%%%%%%%%%%%%%%%%%%%%%%%%%%%%%%%%%%%%

     %%%%%%%%%%%%%%%%%%%%%%%%%%%%%%%%%%%%%%%%%%%%%%%%%%%%%%%%%%%%%%%%%%%%%%%%
     %                                                                      %
     %  vdW-DF NEWS:                                                        %
     %                                                                      %
     %  * vdW-DF3 is now available. DOI: 10.1021/acs.jctc.0c00471           %
     %    use with input_dft = 'vdW-DF3-opt1' or 'vdW-DF3-opt2'             %
     %                                                                      %
     %  * Unscreened and range-separated vdW-DF hybrid functionals          %
     %    DOI: 10.1063/1.4986522 and 10.1088/1361-648X/ac2ad2               %
     %    use with input_dft = 'vdW-DF-cx0' (etc) and 'vdW-DF-ahcx'         %
     %                                                                      %
     %%%%%%%%%%%%%%%%%%%%%%%%%%%%%%%%%%%%%%%%%%%%%%%%%%%%%%%%%%%%%%%%%%%%%%%%


     Carrying out vdW-DF run using the following parameters:
     Nqs    =  20  Npoints =  1024  r_max =  100.000
     q_mesh =  0.00001000  0.04494208  0.09755937  0.15916263
               0.23128650  0.31572767  0.41458969  0.53033537
               0.66584808  0.82450364  1.01025438  1.22772762
               1.48234092  1.78043706  2.12944203  2.53805004
               3.01644009  3.57652955  4.23227104  5.00000000


     -----------------------------------------------
     Non-local corr. energy    =      18.19851913 Ry
     -----------------------------------------------

     Starting wfcs are  459 randomized atomic wfcs
     Checking if some PAW data can be deallocated... 
       PAW data deallocated on   58 nodes for type:  1
       PAW data deallocated on   70 nodes for type:  2

     total cpu time spent up to now is        4.5 secs

     Self-consistent Calculation

     iteration #  1     ecut=    70.00 Ry     beta= 0.70
     Davidson diagonalization with overlap

---- Real-time Memory Report at c_bands before calling an iterative solver
           247 MiB given to the printing process from OS
             0 MiB allocation reported by mallinfo(arena+hblkhd)
       2024196 MiB available memory on the node where the printing process lives
------------------
     ethr =  1.00E-02,  avg # of iterations =  4.3


     -----------------------------------------------
     Non-local corr. energy    =      18.98726564 Ry
     -----------------------------------------------


     total cpu time spent up to now is       19.0 secs

     total energy              =  -10944.95116869 Ry
     estimated scf accuracy    <      22.07495295 Ry

     iteration #  2     ecut=    70.00 Ry     beta= 0.70
     Davidson diagonalization with overlap

---- Real-time Memory Report at c_bands before calling an iterative solver
           341 MiB given to the printing process from OS
             0 MiB allocation reported by mallinfo(arena+hblkhd)
       2021300 MiB available memory on the node where the printing process lives
------------------
     ethr =  3.48E-03,  avg # of iterations =  6.3


     -----------------------------------------------
     Non-local corr. energy    =      18.86477617 Ry
     -----------------------------------------------


     total cpu time spent up to now is       37.2 secs

     total energy              =  -10952.99415134 Ry
     estimated scf accuracy    <      29.94113279 Ry

     iteration #  3     ecut=    70.00 Ry     beta= 0.70
     Davidson diagonalization with overlap

---- Real-time Memory Report at c_bands before calling an iterative solver
           411 MiB given to the printing process from OS
             0 MiB allocation reported by mallinfo(arena+hblkhd)
       2021129 MiB available memory on the node where the printing process lives
------------------
     ethr =  3.48E-03,  avg # of iterations =  4.8


     -----------------------------------------------
     Non-local corr. energy    =      18.93563565 Ry
     -----------------------------------------------


     total cpu time spent up to now is       48.6 secs

     total energy              =  -10958.07490981 Ry
     estimated scf accuracy    <       3.57131957 Ry

     iteration #  4     ecut=    70.00 Ry     beta= 0.70
     Davidson diagonalization with overlap

---- Real-time Memory Report at c_bands before calling an iterative solver
           411 MiB given to the printing process from OS
             0 MiB allocation reported by mallinfo(arena+hblkhd)
       2021092 MiB available memory on the node where the printing process lives
------------------
     ethr =  5.62E-04,  avg # of iterations =  9.0


     -----------------------------------------------
     Non-local corr. energy    =      19.10615938 Ry
     -----------------------------------------------


     total cpu time spent up to now is       62.8 secs

     total energy              =  -10958.39229863 Ry
     estimated scf accuracy    <       0.42318968 Ry

     iteration #  5     ecut=    70.00 Ry     beta= 0.70
     Davidson diagonalization with overlap

---- Real-time Memory Report at c_bands before calling an iterative solver
           411 MiB given to the printing process from OS
             0 MiB allocation reported by mallinfo(arena+hblkhd)
       2021066 MiB available memory on the node where the printing process lives
------------------
     ethr =  6.66E-05,  avg # of iterations = 10.8


     -----------------------------------------------
     Non-local corr. energy    =      19.27699442 Ry
     -----------------------------------------------


     total cpu time spent up to now is       88.3 secs

     total energy              =  -10958.45979091 Ry
     estimated scf accuracy    <       1.74249035 Ry

     iteration #  6     ecut=    70.00 Ry     beta= 0.70
     Davidson diagonalization with overlap

---- Real-time Memory Report at c_bands before calling an iterative solver
           415 MiB given to the printing process from OS
             0 MiB allocation reported by mallinfo(arena+hblkhd)
       2021044 MiB available memory on the node where the printing process lives
------------------
     ethr =  6.66E-05,  avg # of iterations = 10.8


     -----------------------------------------------
     Non-local corr. energy    =      19.23398378 Ry
     -----------------------------------------------


     total cpu time spent up to now is      107.1 secs

     total energy              =  -10958.53754172 Ry
     estimated scf accuracy    <       0.20425822 Ry

     iteration #  7     ecut=    70.00 Ry     beta= 0.70
     Davidson diagonalization with overlap

---- Real-time Memory Report at c_bands before calling an iterative solver
           415 MiB given to the printing process from OS
             0 MiB allocation reported by mallinfo(arena+hblkhd)
       2020993 MiB available memory on the node where the printing process lives
------------------
     ethr =  3.22E-05,  avg # of iterations = 11.3


     -----------------------------------------------
     Non-local corr. energy    =      19.18584104 Ry
     -----------------------------------------------


     total cpu time spent up to now is      123.7 secs

     total energy              =  -10958.56136930 Ry
     estimated scf accuracy    <       0.03276314 Ry

     iteration #  8     ecut=    70.00 Ry     beta= 0.70
     Davidson diagonalization with overlap

---- Real-time Memory Report at c_bands before calling an iterative solver
           415 MiB given to the printing process from OS
             0 MiB allocation reported by mallinfo(arena+hblkhd)
       2020907 MiB available memory on the node where the printing process lives
------------------
     ethr =  5.16E-06,  avg # of iterations = 10.0


     -----------------------------------------------
     Non-local corr. energy    =      19.17397860 Ry
     -----------------------------------------------


     total cpu time spent up to now is      140.4 secs

     total energy              =  -10958.56322452 Ry
     estimated scf accuracy    <       0.01864197 Ry

     iteration #  9     ecut=    70.00 Ry     beta= 0.70
     Davidson diagonalization with overlap

---- Real-time Memory Report at c_bands before calling an iterative solver
           415 MiB given to the printing process from OS
             0 MiB allocation reported by mallinfo(arena+hblkhd)
       2020727 MiB available memory on the node where the printing process lives
------------------
     ethr =  2.94E-06,  avg # of iterations =  3.5


     -----------------------------------------------
     Non-local corr. energy    =      19.15702626 Ry
     -----------------------------------------------


     total cpu time spent up to now is      148.2 secs

     total energy              =  -10958.56383777 Ry
     estimated scf accuracy    <       0.00403398 Ry

     iteration # 10     ecut=    70.00 Ry     beta= 0.70
     Davidson diagonalization with overlap

---- Real-time Memory Report at c_bands before calling an iterative solver
           415 MiB given to the printing process from OS
             0 MiB allocation reported by mallinfo(arena+hblkhd)
       2020865 MiB available memory on the node where the printing process lives
------------------
     ethr =  6.35E-07,  avg # of iterations =  6.8


     -----------------------------------------------
     Non-local corr. energy    =      19.15899483 Ry
     -----------------------------------------------


     total cpu time spent up to now is      166.3 secs

     total energy              =  -10958.56511400 Ry
     estimated scf accuracy    <       0.00291384 Ry

     iteration # 11     ecut=    70.00 Ry     beta= 0.70
     Davidson diagonalization with overlap

---- Real-time Memory Report at c_bands before calling an iterative solver
           427 MiB given to the printing process from OS
             0 MiB allocation reported by mallinfo(arena+hblkhd)
       2020775 MiB available memory on the node where the printing process lives
------------------
     ethr =  4.59E-07,  avg # of iterations =  7.0


     -----------------------------------------------
     Non-local corr. energy    =      19.16332826 Ry
     -----------------------------------------------


     total cpu time spent up to now is      177.9 secs

     total energy              =  -10958.56527245 Ry
     estimated scf accuracy    <       0.00073353 Ry

     iteration # 12     ecut=    70.00 Ry     beta= 0.70
     Davidson diagonalization with overlap

---- Real-time Memory Report at c_bands before calling an iterative solver
           427 MiB given to the printing process from OS
             0 MiB allocation reported by mallinfo(arena+hblkhd)
       2020783 MiB available memory on the node where the printing process lives
------------------
     ethr =  1.16E-07,  avg # of iterations =  7.5


     -----------------------------------------------
     Non-local corr. energy    =      19.16555928 Ry
     -----------------------------------------------


     total cpu time spent up to now is      189.7 secs

     total energy              =  -10958.56530717 Ry
     estimated scf accuracy    <       0.00025531 Ry

     iteration # 13     ecut=    70.00 Ry     beta= 0.70
     Davidson diagonalization with overlap

---- Real-time Memory Report at c_bands before calling an iterative solver
           427 MiB given to the printing process from OS
             0 MiB allocation reported by mallinfo(arena+hblkhd)
       2020771 MiB available memory on the node where the printing process lives
------------------
     ethr =  4.02E-08,  avg # of iterations =  8.0


     -----------------------------------------------
     Non-local corr. energy    =      19.16654576 Ry
     -----------------------------------------------


     total cpu time spent up to now is      209.5 secs

     total energy              =  -10958.56535188 Ry
     estimated scf accuracy    <       0.00002747 Ry

     iteration # 14     ecut=    70.00 Ry     beta= 0.70
     Davidson diagonalization with overlap

---- Real-time Memory Report at c_bands before calling an iterative solver
           427 MiB given to the printing process from OS
             0 MiB allocation reported by mallinfo(arena+hblkhd)
       2020754 MiB available memory on the node where the printing process lives
------------------
     ethr =  4.33E-09,  avg # of iterations =  6.8


     -----------------------------------------------
     Non-local corr. energy    =      19.16593936 Ry
     -----------------------------------------------


     total cpu time spent up to now is      232.8 secs

     total energy              =  -10958.56536725 Ry
     estimated scf accuracy    <       0.00000882 Ry

     iteration # 15     ecut=    70.00 Ry     beta= 0.70
     Davidson diagonalization with overlap

---- Real-time Memory Report at c_bands before calling an iterative solver
           441 MiB given to the printing process from OS
             0 MiB allocation reported by mallinfo(arena+hblkhd)
       2020682 MiB available memory on the node where the printing process lives
------------------
     ethr =  1.39E-09,  avg # of iterations =  8.3


     -----------------------------------------------
     Non-local corr. energy    =      19.16558748 Ry
     -----------------------------------------------


     total cpu time spent up to now is      248.7 secs

     total energy              =  -10958.56536718 Ry
     estimated scf accuracy    <       0.00000356 Ry

     iteration # 16     ecut=    70.00 Ry     beta= 0.70
     Davidson diagonalization with overlap

---- Real-time Memory Report at c_bands before calling an iterative solver
           441 MiB given to the printing process from OS
             0 MiB allocation reported by mallinfo(arena+hblkhd)
       2020668 MiB available memory on the node where the printing process lives
------------------
     ethr =  5.60E-10,  avg # of iterations =  6.8


     -----------------------------------------------
     Non-local corr. energy    =      19.16548340 Ry
     -----------------------------------------------


     total cpu time spent up to now is      261.7 secs

     total energy              =  -10958.56536757 Ry
     estimated scf accuracy    <       0.00000046 Ry

     iteration # 17     ecut=    70.00 Ry     beta= 0.70
     Davidson diagonalization with overlap

---- Real-time Memory Report at c_bands before calling an iterative solver
           441 MiB given to the printing process from OS
             0 MiB allocation reported by mallinfo(arena+hblkhd)
       2020662 MiB available memory on the node where the printing process lives
------------------
     ethr =  7.17E-11,  avg # of iterations =  5.0


     -----------------------------------------------
     Non-local corr. energy    =      19.16557808 Ry
     -----------------------------------------------


     total cpu time spent up to now is      276.7 secs

     total energy              =  -10958.56536788 Ry
     estimated scf accuracy    <       0.00000034 Ry

     iteration # 18     ecut=    70.00 Ry     beta= 0.70
     Davidson diagonalization with overlap

---- Real-time Memory Report at c_bands before calling an iterative solver
           441 MiB given to the printing process from OS
             0 MiB allocation reported by mallinfo(arena+hblkhd)
       2020591 MiB available memory on the node where the printing process lives
------------------
     ethr =  5.37E-11,  avg # of iterations =  9.8


     -----------------------------------------------
     Non-local corr. energy    =      19.16560647 Ry
     -----------------------------------------------


     total cpu time spent up to now is      291.6 secs

     total energy              =  -10958.56536788 Ry
     estimated scf accuracy    <       0.00000017 Ry

     iteration # 19     ecut=    70.00 Ry     beta= 0.70
     Davidson diagonalization with overlap

---- Real-time Memory Report at c_bands before calling an iterative solver
           441 MiB given to the printing process from OS
             0 MiB allocation reported by mallinfo(arena+hblkhd)
       2020573 MiB available memory on the node where the printing process lives
------------------
     ethr =  2.65E-11,  avg # of iterations =  9.0


     -----------------------------------------------
     Non-local corr. energy    =      19.16567629 Ry
     -----------------------------------------------


     total cpu time spent up to now is      306.9 secs

     total energy              =  -10958.56536788 Ry
     estimated scf accuracy    <       0.00000011 Ry

     iteration # 20     ecut=    70.00 Ry     beta= 0.70
     Davidson diagonalization with overlap

---- Real-time Memory Report at c_bands before calling an iterative solver
           441 MiB given to the printing process from OS
             0 MiB allocation reported by mallinfo(arena+hblkhd)
       2020565 MiB available memory on the node where the printing process lives
------------------
     ethr =  1.72E-11,  avg # of iterations =  6.8


     -----------------------------------------------
     Non-local corr. energy    =      19.16569947 Ry
     -----------------------------------------------


     total cpu time spent up to now is      319.3 secs

     total energy              =  -10958.56536789 Ry
     estimated scf accuracy    <       0.00000002 Ry

     iteration # 21     ecut=    70.00 Ry     beta= 0.70
     Davidson diagonalization with overlap

---- Real-time Memory Report at c_bands before calling an iterative solver
           441 MiB given to the printing process from OS
             0 MiB allocation reported by mallinfo(arena+hblkhd)
       2020561 MiB available memory on the node where the printing process lives
------------------
     ethr =  2.45E-12,  avg # of iterations =  5.8


     -----------------------------------------------
     Non-local corr. energy    =      19.16569759 Ry
     -----------------------------------------------


     total cpu time spent up to now is      339.1 secs

     total energy              =  -10958.56536790 Ry
     estimated scf accuracy    <       0.00000002 Ry

     iteration # 22     ecut=    70.00 Ry     beta= 0.70
     Davidson diagonalization with overlap

---- Real-time Memory Report at c_bands before calling an iterative solver
           444 MiB given to the printing process from OS
             0 MiB allocation reported by mallinfo(arena+hblkhd)
       2020410 MiB available memory on the node where the printing process lives
------------------
     ethr =  2.45E-12,  avg # of iterations =  7.8


     -----------------------------------------------
     Non-local corr. energy    =      19.16568423 Ry
     -----------------------------------------------


     total cpu time spent up to now is      351.1 secs

     total energy              =  -10958.56536790 Ry
     estimated scf accuracy    <          8.5E-09 Ry

     iteration # 23     ecut=    70.00 Ry     beta= 0.70
     Davidson diagonalization with overlap

---- Real-time Memory Report at c_bands before calling an iterative solver
           444 MiB given to the printing process from OS
             0 MiB allocation reported by mallinfo(arena+hblkhd)
       2020536 MiB available memory on the node where the printing process lives
------------------
     ethr =  1.35E-12,  avg # of iterations =  6.8


     -----------------------------------------------
     Non-local corr. energy    =      19.16567385 Ry
     -----------------------------------------------


     total cpu time spent up to now is      363.0 secs

     total energy              =  -10958.56536790 Ry
     estimated scf accuracy    <          3.8E-09 Ry

     iteration # 24     ecut=    70.00 Ry     beta= 0.70
     Davidson diagonalization with overlap

---- Real-time Memory Report at c_bands before calling an iterative solver
           444 MiB given to the printing process from OS
             0 MiB allocation reported by mallinfo(arena+hblkhd)
       2020539 MiB available memory on the node where the printing process lives
------------------
     ethr =  5.95E-13,  avg # of iterations =  5.8


     -----------------------------------------------
     Non-local corr. energy    =      19.16567025 Ry
     -----------------------------------------------


     total cpu time spent up to now is      376.3 secs

     total energy              =  -10958.56536790 Ry
     estimated scf accuracy    <          1.8E-09 Ry

     iteration # 25     ecut=    70.00 Ry     beta= 0.70
     Davidson diagonalization with overlap

---- Real-time Memory Report at c_bands before calling an iterative solver
           444 MiB given to the printing process from OS
             0 MiB allocation reported by mallinfo(arena+hblkhd)
       2020531 MiB available memory on the node where the printing process lives
------------------
     ethr =  2.87E-13,  avg # of iterations =  6.8


     -----------------------------------------------
     Non-local corr. energy    =      19.16567076 Ry
     -----------------------------------------------


     total cpu time spent up to now is      395.2 secs

     End of self-consistent calculation

          k = 0.0000 0.0000 0.0000 ( 57971 PWs)   bands (ev):

    -7.1954  -6.9058  -6.8610  -6.8560  -6.8560  -6.8178  -6.8045  -6.8045
    -6.7837  -6.7702  -6.7702  -6.7484  -6.7408  -6.7310  -6.7310  -6.7250
    -6.7250  -6.7205  -6.7201  -6.7008  -6.7008  -6.6959  -6.6671  -6.6528
    -6.6460  -6.6460  -6.6292  -6.6169  -6.6169  -6.6083  -6.6082  -6.5797
    -6.2506  -6.1908  -6.1907  -6.1224  -5.6525  -5.6525  -5.6515  -5.6473
    -5.6473  -5.6387  -5.6387  -5.6276  -5.6276  -5.6162  -5.6001  -5.6001
    -5.5969  -5.5931  -5.5931  -5.5890  -5.5890  -5.5843  -5.5677  -5.5666
    -5.5666  -5.5636  -5.5551  -5.5551  -5.5541  -5.5506  -5.5488  -5.5488
    -5.5415  -5.5393  -5.5393  -5.5338  -5.5324  -5.5324  -5.5263  -5.5263
    -5.5187  -5.5182  -5.5182  -5.5130  -5.5130  -5.5104  -5.5099  -5.5099
    -5.5013  -5.5013  -5.4917  -5.4917  -5.4911  -5.4815  -5.4768  -5.4768
    -5.4757  -5.4742  -5.4742  -5.4734  -5.4656  -5.4656  -5.4557  -5.4557
    -5.4524  -5.4524  -5.4496  -5.4492  -5.4448  -5.4448  -5.4423  -5.4408
    -5.4408  -5.4387  -5.4387  -5.4336  -5.4279  -5.4263  -5.4263  -5.4251
    -5.4251  -5.4198  -5.4193  -5.4193  -5.4130  -5.4091  -5.4091  -5.4061
    -5.4061  -5.4027  -5.3990  -5.3990  -5.3987  -5.3957  -5.3956  -5.3938
    -5.3921  -5.3853  -5.3853  -5.3773  -5.3773  -5.3710  -5.3710  -5.3672
    -5.3666  -5.3649  -5.3633  -5.3633  -5.3613  -5.3541  -5.3541  -5.3497
    -5.3497  -5.3492  -5.3355  -5.3343  -5.3343  -5.3308  -5.3308  -5.3294
    -5.3294  -5.3255  -5.3255  -5.3245  -5.3119  -5.3088  -5.3088  -5.3045
    -5.3045  -5.2986  -5.2908  -5.2908  -5.2876  -5.2876  -5.2811  -5.2805
    -5.2805  -5.2677  -5.2633  -5.2341  -5.2341  -5.2202  -5.2202  -5.2096
    -5.1229  -5.0753  -4.7751  -4.7750  -4.7743  -4.7326  -4.7325  -4.6321
    -4.2480  -4.2480  -4.2294  -4.2213  -4.1931  -4.1931  -4.1804  -4.1804
    -4.1270  -4.1270  -4.1117  -3.8824  -3.7527  -3.4565  -3.4386  -3.4386
    -3.4344  -3.3866  -3.3866  -3.3286  -3.3174  -3.2909  -3.2909  -3.1880
    -3.1880  -3.1725  -3.1263   1.8064   2.4947   2.5065   2.5066   2.5141
     2.6391   2.6639   2.6639   2.7129   2.7130   2.8655   3.0510   3.0982
     3.0983   3.1096   3.1503   3.1503   3.1664   3.1665   3.1698   3.1890
     3.2204   3.2217   3.2218   3.2476   3.2476   3.6090   3.6091   3.8305
     3.8669   3.8670   4.0049   4.0049   4.0114   4.3123   4.5596   4.5596
     4.6177   4.6398   4.6398   4.6660   4.6660   4.7097   4.7920   4.7921
     4.8102   5.6596   5.7099   5.7099   5.7642   5.9522   5.9522   6.1604
     6.1730   6.1731   6.2407   6.2699   6.3199   6.3200   6.4191   6.4191
     6.4231   6.4358   6.4754   6.4754   6.5099   6.5099   6.5703   6.5703
     6.7560   6.8309   6.8706   6.8706   6.8857   6.8858   6.8927   6.9146
     6.9678   6.9679   6.9875   7.0632   7.0633   7.0787   7.0893   7.2168
     7.2168   7.2303   7.2466   7.2466   7.3550   7.4337   7.4337   7.5798
     7.5798   7.6837   7.6837   7.6837   7.8204   7.8978   7.8978   7.9778
     7.9780   8.1277   8.3278   8.3279   8.6291   8.7359   8.7359  10.0710
    12.2864  12.3679  12.5351  13.0143  13.0210  13.0210  13.0504  13.0505
    13.1163  13.1739  13.1739  13.1739  13.2228  13.2228  13.2763  13.2763
    13.3052  13.3419  13.4390  13.4390  13.7041  13.9606  13.9607  14.0073
    14.0074  14.0129  14.1922  14.1923  14.4093  14.5786  14.6533  14.6533
    14.8477  15.1550  15.1550  15.2064  15.3380  15.3788  15.3788  15.6921
    15.6931  15.6931  15.7428  15.8785  15.8785  15.8974  15.8974  15.9011
    15.9148  15.9148  15.9400  15.9419  15.9420  16.0317  16.0317  16.1122
    16.1348  16.1348  16.4204  16.6078  16.6078  16.6367

     occupation numbers 
     1.0000   1.0000   1.0000   1.0000   1.0000   1.0000   1.0000   1.0000
     1.0000   1.0000   1.0000   1.0000   1.0000   1.0000   1.0000   1.0000
     1.0000   1.0000   1.0000   1.0000   1.0000   1.0000   1.0000   1.0000
     1.0000   1.0000   1.0000   1.0000   1.0000   1.0000   1.0000   1.0000
     1.0000   1.0000   1.0000   1.0000   1.0000   1.0000   1.0000   1.0000
     1.0000   1.0000   1.0000   1.0000   1.0000   1.0000   1.0000   1.0000
     1.0000   1.0000   1.0000   1.0000   1.0000   1.0000   1.0000   1.0000
     1.0000   1.0000   1.0000   1.0000   1.0000   1.0000   1.0000   1.0000
     1.0000   1.0000   1.0000   1.0000   1.0000   1.0000   1.0000   1.0000
     1.0000   1.0000   1.0000   1.0000   1.0000   1.0000   1.0000   1.0000
     1.0000   1.0000   1.0000   1.0000   1.0000   1.0000   1.0000   1.0000
     1.0000   1.0000   1.0000   1.0000   1.0000   1.0000   1.0000   1.0000
     1.0000   1.0000   1.0000   1.0000   1.0000   1.0000   1.0000   1.0000
     1.0000   1.0000   1.0000   1.0000   1.0000   1.0000   1.0000   1.0000
     1.0000   1.0000   1.0000   1.0000   1.0000   1.0000   1.0000   1.0000
     1.0000   1.0000   1.0000   1.0000   1.0000   1.0000   1.0000   1.0000
     1.0000   1.0000   1.0000   1.0000   1.0000   1.0000   1.0000   1.0000
     1.0000   1.0000   1.0000   1.0000   1.0000   1.0000   1.0000   1.0000
     1.0000   1.0000   1.0000   1.0000   1.0000   1.0000   1.0000   1.0000
     1.0000   1.0000   1.0000   1.0000   1.0000   1.0000   1.0000   1.0000
     1.0000   1.0000   1.0000   1.0000   1.0000   1.0000   1.0000   1.0000
     1.0000   1.0000   1.0000   1.0000   1.0000   1.0000   1.0000   1.0000
     1.0000   1.0000   1.0000   1.0000   1.0000   1.0000   1.0000   1.0000
     1.0000   1.0000   1.0000   1.0000   1.0000   1.0000   1.0000   1.0000
     1.0000   1.0000   1.0000   1.0000   1.0000   1.0000   1.0000   1.0000
     1.0000   1.0000   1.0000   1.0000   1.0000   1.0000   1.0000   1.0000
     1.0000   1.0000   1.0000   1.0000   1.0000   1.0000   1.0000   1.0000
     1.0000   1.0000   1.0000   1.0000   1.0000   1.0000   1.0000   1.0000
     1.0000   1.0000   1.0000   1.0000   1.0000   1.0000   1.0000   1.0000
     1.0000   1.0000   1.0000   1.0000   1.0000   1.0000   1.0000   1.0000
     1.0000   1.0000   1.0000   1.0000   1.0000   1.0000   1.0000   1.0000
     1.0000   1.0000   1.0000   1.0000   1.0000   1.0000   1.0000   1.0000
     1.0000   1.0000   1.0000   1.0000   1.0000   1.0000   1.0000   1.0000
     1.0000   1.0000   1.0000   1.0000   1.0000   1.0000   1.0000   1.0000
     1.0000   1.0000   1.0000   1.0000   1.0000   1.0000   1.0000   1.0000
     1.0000   1.0000   1.0000   1.0000   1.0000   1.0000   1.0000   1.0000
     1.0000   1.0000   1.0000   1.0000   1.0000   1.0000   1.0000   1.0000
     1.0000   1.0000   1.0000   1.0000   1.0000   1.0000   1.0000   1.0000
     1.0000   1.0000   1.0000   1.0000   1.0000   1.0000   1.0000   1.0000
     1.0000   1.0000   0.9966   0.9966   0.3350   0.0622   0.0622   0.0000
     0.0000   0.0000   0.0000   0.0000   0.0000   0.0000   0.0000   0.0000
     0.0000   0.0000   0.0000   0.0000   0.0000   0.0000   0.0000   0.0000
     0.0000   0.0000   0.0000   0.0000   0.0000   0.0000   0.0000   0.0000
     0.0000   0.0000   0.0000   0.0000   0.0000   0.0000   0.0000   0.0000
     0.0000   0.0000   0.0000   0.0000   0.0000   0.0000   0.0000   0.0000
     0.0000   0.0000   0.0000   0.0000   0.0000   0.0000   0.0000   0.0000
     0.0000   0.0000   0.0000   0.0000   0.0000   0.0000   0.0000   0.0000
     0.0000   0.0000   0.0000   0.0000   0.0000   0.0000

          k = 0.0000 0.0000-0.4602 ( 58014 PWs)   bands (ev):

    -7.1108  -7.0377  -6.8415  -6.8415  -6.8299  -6.8030  -6.7926  -6.7925
    -6.7793  -6.7793  -6.7689  -6.7545  -6.7514  -6.7370  -6.7370  -6.7282
    -6.7281  -6.7256  -6.7187  -6.6995  -6.6991  -6.6991  -6.6634  -6.6552
    -6.6552  -6.6515  -6.6322  -6.6190  -6.6189  -6.6081  -6.6081  -6.5819
    -6.2513  -6.1915  -6.1915  -6.1235  -5.6521  -5.6521  -5.6480  -5.6480
    -5.6346  -5.6346  -5.6330  -5.6215  -5.6215  -5.6163  -5.6013  -5.6013
    -5.5968  -5.5967  -5.5949  -5.5912  -5.5912  -5.5841  -5.5716  -5.5716
    -5.5624  -5.5580  -5.5526  -5.5526  -5.5511  -5.5511  -5.5485  -5.5407
    -5.5407  -5.5392  -5.5381  -5.5376  -5.5376  -5.5373  -5.5272  -5.5272
    -5.5184  -5.5184  -5.5164  -5.5098  -5.5094  -5.5094  -5.5070  -5.5070
    -5.5024  -5.5024  -5.4955  -5.4906  -5.4906  -5.4868  -5.4820  -5.4776
    -5.4776  -5.4728  -5.4728  -5.4712  -5.4712  -5.4655  -5.4655  -5.4629
    -5.4629  -5.4565  -5.4552  -5.4509  -5.4509  -5.4478  -5.4478  -5.4409
    -5.4409  -5.4391  -5.4317  -5.4317  -5.4280  -5.4279  -5.4279  -5.4275
    -5.4225  -5.4216  -5.4216  -5.4159  -5.4159  -5.4118  -5.4081  -5.4081
    -5.4078  -5.4078  -5.4036  -5.4036  -5.3975  -5.3970  -5.3881  -5.3879
    -5.3879  -5.3861  -5.3861  -5.3784  -5.3784  -5.3784  -5.3735  -5.3735
    -5.3705  -5.3676  -5.3635  -5.3617  -5.3617  -5.3577  -5.3534  -5.3534
    -5.3475  -5.3475  -5.3436  -5.3365  -5.3365  -5.3335  -5.3313  -5.3313
    -5.3285  -5.3285  -5.3254  -5.3245  -5.3245  -5.3124  -5.3086  -5.3086
    -5.3035  -5.3035  -5.2980  -5.2926  -5.2926  -5.2865  -5.2865  -5.2821
    -5.2821  -5.2766  -5.2680  -5.2635  -5.2345  -5.2345  -5.2203  -5.2203
    -5.2100  -4.6669  -4.6664  -4.6664  -4.6424  -4.6424  -4.6185  -4.6129
    -4.6128  -4.6110  -4.5360  -4.5359  -4.4330  -4.3014  -4.1780  -3.6708
    -3.6708  -3.6560  -3.6211  -3.6144  -3.6144  -3.5908  -3.5908  -3.5295
    -3.5295  -3.5232  -3.4565  -3.4385  -3.4385  -3.4361  -3.3371  -3.3175
    -3.2763  -3.2762  -3.1242   2.5839   2.6286   2.6287   2.6314   2.6694
     2.6876   2.6876   2.6941   2.7356   2.7445   2.7445   2.7475   2.7490
     2.7616   2.7616   2.7887   2.7888   2.8696   2.8863   2.9184   2.9184
     3.5062   3.7802   3.7802   3.8076   3.8077   3.8131   3.8358   3.8359
     3.8590   3.8840   3.8841   3.9059   3.9522   3.9522   4.1576   4.1576
     4.7976   4.9289   4.9289   4.9398   5.0009   5.0013   5.0013   5.0190
     5.0190   5.1107   5.1107   5.4462   5.4506   5.4506   5.6183   5.6183
     6.1497   6.2956   6.3231   6.3391   6.3392   6.3528   6.3585   6.3585
     6.3908   6.3908   6.3924   6.4079   6.4080   6.4370   6.4482   6.4482
     6.5729   6.6611   6.7049   6.8313   6.8314   6.9023   7.2445   7.2715
     7.2715   7.2919   7.3058   7.3059   7.3460   7.3460   7.3744   7.3878
     7.4001   7.4001   7.4369   7.4526   7.4526   7.4680   7.4761   7.4797
     7.4797   7.5251   7.5251   7.5676   7.5677   7.6588   7.7186   7.7187
     8.0949   8.0950   8.3188   8.3189   8.4309   8.7162   8.7162  11.2116
    11.3356  12.4290  12.5899  12.6672  12.6697  12.6697  12.7133  12.7133
    12.7444  12.7445  12.7842  12.8009  12.8903  12.8903  13.2095  13.9660
    13.9895  13.9895  13.9953  13.9954  14.0569  14.0570  14.0841  14.1099
    14.2973  14.2973  14.5828  14.5828  14.5871  14.8053  14.8053  15.1518
    15.1814  15.2144  15.2144  15.2615  15.2615  15.2788  15.3008  15.4212
    15.4212  15.4259  15.4259  15.4464  15.4527  15.4945  15.4946  15.6037
    15.6725  15.6725  15.9857  16.2926  16.3098  16.3098  16.3152  16.3223
    16.3223  16.3714  16.3714  16.4612  16.4612  16.5304

     occupation numbers 
     1.0000   1.0000   1.0000   1.0000   1.0000   1.0000   1.0000   1.0000
     1.0000   1.0000   1.0000   1.0000   1.0000   1.0000   1.0000   1.0000
     1.0000   1.0000   1.0000   1.0000   1.0000   1.0000   1.0000   1.0000
     1.0000   1.0000   1.0000   1.0000   1.0000   1.0000   1.0000   1.0000
     1.0000   1.0000   1.0000   1.0000   1.0000   1.0000   1.0000   1.0000
     1.0000   1.0000   1.0000   1.0000   1.0000   1.0000   1.0000   1.0000
     1.0000   1.0000   1.0000   1.0000   1.0000   1.0000   1.0000   1.0000
     1.0000   1.0000   1.0000   1.0000   1.0000   1.0000   1.0000   1.0000
     1.0000   1.0000   1.0000   1.0000   1.0000   1.0000   1.0000   1.0000
     1.0000   1.0000   1.0000   1.0000   1.0000   1.0000   1.0000   1.0000
     1.0000   1.0000   1.0000   1.0000   1.0000   1.0000   1.0000   1.0000
     1.0000   1.0000   1.0000   1.0000   1.0000   1.0000   1.0000   1.0000
     1.0000   1.0000   1.0000   1.0000   1.0000   1.0000   1.0000   1.0000
     1.0000   1.0000   1.0000   1.0000   1.0000   1.0000   1.0000   1.0000
     1.0000   1.0000   1.0000   1.0000   1.0000   1.0000   1.0000   1.0000
     1.0000   1.0000   1.0000   1.0000   1.0000   1.0000   1.0000   1.0000
     1.0000   1.0000   1.0000   1.0000   1.0000   1.0000   1.0000   1.0000
     1.0000   1.0000   1.0000   1.0000   1.0000   1.0000   1.0000   1.0000
     1.0000   1.0000   1.0000   1.0000   1.0000   1.0000   1.0000   1.0000
     1.0000   1.0000   1.0000   1.0000   1.0000   1.0000   1.0000   1.0000
     1.0000   1.0000   1.0000   1.0000   1.0000   1.0000   1.0000   1.0000
     1.0000   1.0000   1.0000   1.0000   1.0000   1.0000   1.0000   1.0000
     1.0000   1.0000   1.0000   1.0000   1.0000   1.0000   1.0000   1.0000
     1.0000   1.0000   1.0000   1.0000   1.0000   1.0000   1.0000   1.0000
     1.0000   1.0000   1.0000   1.0000   1.0000   1.0000   1.0000   1.0000
     1.0000   1.0000   1.0000   1.0000   1.0000   1.0000   1.0000   1.0000
     1.0000   1.0000   1.0000   1.0000   1.0000   1.0000   1.0000   1.0000
     1.0000   1.0000   1.0000   1.0000   1.0000   1.0000   1.0000   1.0000
     1.0000   1.0000   1.0000   1.0000   1.0000   1.0000   1.0000   1.0000
     1.0000   1.0000   1.0000   1.0000   1.0000   1.0000   1.0000   1.0000
     1.0000   1.0000   1.0000   1.0000   1.0000   1.0000   1.0000   1.0000
     1.0000   1.0000   1.0000   1.0000   1.0000   1.0000   1.0000   1.0000
     1.0000   1.0000   1.0000   1.0000   1.0000   1.0000   1.0000   1.0000
     1.0000   1.0000   1.0000   1.0000   1.0000   1.0000   1.0000   1.0000
     1.0000   1.0000   1.0000   1.0000   1.0000   1.0000   1.0000   1.0000
     1.0000   1.0000   1.0000   1.0000   1.0000   1.0000   1.0000   1.0000
     1.0000   1.0000   1.0000   1.0000   1.0000   1.0000   1.0000   1.0000
     1.0000   1.0000   1.0000   1.0000   1.0000   1.0000   1.0000   1.0000
     1.0000   1.0000   1.0000   1.0000   1.0000   1.0000   1.0000   1.0000
     1.0000   1.0000   0.9974   0.9974   0.9489   0.0915   0.0915   0.0000
     0.0000   0.0000   0.0000   0.0000   0.0000   0.0000   0.0000   0.0000
     0.0000   0.0000   0.0000   0.0000   0.0000   0.0000   0.0000   0.0000
     0.0000   0.0000   0.0000   0.0000   0.0000   0.0000   0.0000   0.0000
     0.0000   0.0000   0.0000   0.0000   0.0000   0.0000   0.0000   0.0000
     0.0000   0.0000   0.0000   0.0000   0.0000   0.0000   0.0000   0.0000
     0.0000   0.0000   0.0000   0.0000   0.0000   0.0000   0.0000   0.0000
     0.0000   0.0000   0.0000   0.0000   0.0000   0.0000   0.0000   0.0000
     0.0000   0.0000   0.0000   0.0000   0.0000   0.0000

          k = 0.0000-0.5774 0.0000 ( 57942 PWs)   bands (ev):

    -7.0584  -7.0079  -6.8679  -6.8676  -6.8420  -6.8116  -6.8031  -6.7999
    -6.7915  -6.7677  -6.7528  -6.7466  -6.7405  -6.7400  -6.7368  -6.7256
    -6.7177  -6.7173  -6.7121  -6.7107  -6.7072  -6.7035  -6.6643  -6.6603
    -6.6523  -6.6467  -6.6321  -6.6246  -6.6210  -6.6041  -6.5927  -6.5900
    -6.2430  -6.1984  -6.1905  -6.1209  -5.6501  -5.6446  -5.6445  -5.6393
    -5.6381  -5.6279  -5.6252  -5.6129  -5.6101  -5.6029  -5.6008  -5.5997
    -5.5975  -5.5934  -5.5918  -5.5888  -5.5879  -5.5810  -5.5752  -5.5749
    -5.5747  -5.5705  -5.5694  -5.5634  -5.5605  -5.5595  -5.5551  -5.5519
    -5.5475  -5.5418  -5.5390  -5.5370  -5.5356  -5.5294  -5.5290  -5.5263
    -5.5206  -5.5176  -5.5172  -5.5134  -5.5132  -5.5045  -5.5034  -5.5024
    -5.4994  -5.4946  -5.4911  -5.4899  -5.4882  -5.4879  -5.4870  -5.4831
    -5.4790  -5.4755  -5.4754  -5.4696  -5.4681  -5.4668  -5.4651  -5.4637
    -5.4572  -5.4572  -5.4558  -5.4557  -5.4479  -5.4473  -5.4458  -5.4441
    -5.4423  -5.4413  -5.4375  -5.4375  -5.4327  -5.4306  -5.4297  -5.4277
    -5.4271  -5.4257  -5.4242  -5.4204  -5.4187  -5.4180  -5.4142  -5.4133
    -5.4102  -5.4101  -5.4051  -5.4037  -5.3996  -5.3963  -5.3893  -5.3889
    -5.3876  -5.3859  -5.3813  -5.3786  -5.3782  -5.3777  -5.3731  -5.3724
    -5.3658  -5.3627  -5.3597  -5.3586  -5.3586  -5.3559  -5.3495  -5.3490
    -5.3452  -5.3428  -5.3408  -5.3373  -5.3373  -5.3340  -5.3293  -5.3286
    -5.3283  -5.3228  -5.3210  -5.3198  -5.3167  -5.3128  -5.3117  -5.3100
    -5.3060  -5.3029  -5.2958  -5.2958  -5.2903  -5.2875  -5.2802  -5.2777
    -5.2740  -5.2693  -5.2676  -5.2651  -5.2364  -5.2324  -5.2263  -5.2212
    -5.2085  -4.9829  -4.9718  -4.8926  -4.8656  -4.8536  -4.7622  -4.4132
    -4.3805  -4.3762  -4.2928  -4.0790  -4.0788  -4.0646  -4.0169  -3.9127
    -3.7541  -3.7294  -3.7239  -3.6887  -3.6880  -3.6815  -3.6795  -3.6607
    -3.6371  -3.6030  -3.5857  -3.4040  -3.3524  -3.3186  -3.2633  -3.2057
    -3.1435  -3.1169  -3.1013   2.0643   2.1214   2.1424   2.2076   2.3071
     2.4732   2.4955   2.5006   2.5078   2.5274   2.5510   2.5639   2.5996
     2.6454   2.6498   2.6775   2.6995   2.7890   3.1469   3.3896   3.5192
     3.5493   3.5978   3.6236   3.7205   3.7305   3.7516   4.1760   4.4299
     4.4767   4.4802   4.5025   4.5151   4.5656   4.5671   4.5950   4.7293
     4.7531   4.8868   4.8996   5.0552   5.0908   5.0969   5.1474   5.4770
     5.5864   5.5894   5.6012   5.6181   5.6345   5.6949   5.6994   5.8562
     5.9314   5.9720   6.1172   6.1662   6.3497   6.4178   6.4506   6.4633
     6.4820   6.5459   6.5571   6.5919   6.6004   6.6027   6.6116   6.6581
     6.6659   6.6768   6.6982   6.7213   6.7228   6.7312   6.7466   6.7779
     6.7878   6.8160   6.8268   6.8367   6.8403   6.8468   6.8765   6.9004
     6.9144   6.9479   6.9897   7.0002   7.0457   7.0789   7.1975   7.3478
     7.4571   7.5001   7.5335   7.5507   7.6156   7.6493   7.6518   7.7140
     7.9065   8.0562   8.0655   8.2208   8.2422   8.6067   8.6657  11.5397
    11.6562  12.8479  12.8686  13.0012  13.0524  13.2279  13.2416  13.2790
    13.3743  13.5523  13.6319  13.6974  13.7324  13.7418  13.7448  13.7712
    13.7879  13.8090  13.8175  13.8589  13.9069  13.9144  13.9835  14.0430
    14.1614  14.3663  14.3743  14.4279  14.4652  14.4879  14.5298  14.7301
    14.7956  14.8024  14.9289  15.0016  15.0518  15.0591  15.1919  15.3750
    15.7944  15.8227  15.8576  15.8648  15.9186  15.9248  15.9620  15.9913
    16.0412  16.0578  16.0969  16.1087  16.1457  16.1487  16.1992  16.2093
    16.2222  16.2270  16.2456  16.3178  16.3490  16.4147

     occupation numbers 
     1.0000   1.0000   1.0000   1.0000   1.0000   1.0000   1.0000   1.0000
     1.0000   1.0000   1.0000   1.0000   1.0000   1.0000   1.0000   1.0000
     1.0000   1.0000   1.0000   1.0000   1.0000   1.0000   1.0000   1.0000
     1.0000   1.0000   1.0000   1.0000   1.0000   1.0000   1.0000   1.0000
     1.0000   1.0000   1.0000   1.0000   1.0000   1.0000   1.0000   1.0000
     1.0000   1.0000   1.0000   1.0000   1.0000   1.0000   1.0000   1.0000
     1.0000   1.0000   1.0000   1.0000   1.0000   1.0000   1.0000   1.0000
     1.0000   1.0000   1.0000   1.0000   1.0000   1.0000   1.0000   1.0000
     1.0000   1.0000   1.0000   1.0000   1.0000   1.0000   1.0000   1.0000
     1.0000   1.0000   1.0000   1.0000   1.0000   1.0000   1.0000   1.0000
     1.0000   1.0000   1.0000   1.0000   1.0000   1.0000   1.0000   1.0000
     1.0000   1.0000   1.0000   1.0000   1.0000   1.0000   1.0000   1.0000
     1.0000   1.0000   1.0000   1.0000   1.0000   1.0000   1.0000   1.0000
     1.0000   1.0000   1.0000   1.0000   1.0000   1.0000   1.0000   1.0000
     1.0000   1.0000   1.0000   1.0000   1.0000   1.0000   1.0000   1.0000
     1.0000   1.0000   1.0000   1.0000   1.0000   1.0000   1.0000   1.0000
     1.0000   1.0000   1.0000   1.0000   1.0000   1.0000   1.0000   1.0000
     1.0000   1.0000   1.0000   1.0000   1.0000   1.0000   1.0000   1.0000
     1.0000   1.0000   1.0000   1.0000   1.0000   1.0000   1.0000   1.0000
     1.0000   1.0000   1.0000   1.0000   1.0000   1.0000   1.0000   1.0000
     1.0000   1.0000   1.0000   1.0000   1.0000   1.0000   1.0000   1.0000
     1.0000   1.0000   1.0000   1.0000   1.0000   1.0000   1.0000   1.0000
     1.0000   1.0000   1.0000   1.0000   1.0000   1.0000   1.0000   1.0000
     1.0000   1.0000   1.0000   1.0000   1.0000   1.0000   1.0000   1.0000
     1.0000   1.0000   1.0000   1.0000   1.0000   1.0000   1.0000   1.0000
     1.0000   1.0000   1.0000   1.0000   1.0000   1.0000   1.0000   1.0000
     1.0000   1.0000   1.0000   1.0000   1.0000   1.0000   1.0000   1.0000
     1.0000   1.0000   1.0000   1.0000   1.0000   1.0000   1.0000   1.0000
     1.0000   1.0000   1.0000   1.0000   1.0000   1.0000   1.0000   1.0000
     1.0000   1.0000   1.0000   1.0000   1.0000   1.0000   1.0000   1.0000
     1.0000   1.0000   1.0000   1.0000   1.0000   1.0000   1.0000   1.0000
     1.0000   1.0000   1.0000   1.0000   1.0000   1.0000   1.0000   1.0000
     1.0000   1.0000   1.0000   1.0000   1.0000   1.0000   1.0000   1.0000
     1.0000   1.0000   1.0000   1.0000   1.0000   1.0000   1.0000   1.0000
     1.0000   1.0000   1.0000   1.0000   1.0000   1.0000   1.0000   1.0000
     1.0000   1.0000   1.0000   1.0000   1.0000   1.0000   1.0000   1.0000
     1.0000   1.0000   1.0000   1.0000   1.0000   1.0000   1.0000   1.0000
     1.0000   1.0000   1.0000   1.0000   1.0000   1.0000   1.0000   1.0000
     1.0000   1.0000   1.0000   1.0000   1.0000   1.0000   1.0000   1.0000
     1.0000   1.0000   1.0000   0.9999   0.9998   0.4234   0.2098   0.0000
     0.0000   0.0000   0.0000   0.0000   0.0000   0.0000   0.0000   0.0000
     0.0000   0.0000   0.0000   0.0000   0.0000   0.0000   0.0000   0.0000
     0.0000   0.0000   0.0000   0.0000   0.0000   0.0000   0.0000   0.0000
     0.0000   0.0000   0.0000   0.0000   0.0000   0.0000   0.0000   0.0000
     0.0000   0.0000   0.0000   0.0000   0.0000   0.0000   0.0000   0.0000
     0.0000   0.0000   0.0000   0.0000   0.0000   0.0000   0.0000   0.0000
     0.0000   0.0000   0.0000   0.0000   0.0000   0.0000   0.0000   0.0000
     0.0000   0.0000   0.0000   0.0000   0.0000   0.0000

          k = 0.0000-0.5774-0.4602 ( 57848 PWs)   bands (ev):

    -6.9888  -6.9574  -6.9430  -6.8933  -6.8455  -6.8116  -6.8083  -6.7960
    -6.7935  -6.7643  -6.7532  -6.7473  -6.7416  -6.7397  -6.7355  -6.7272
    -6.7206  -6.7153  -6.7127  -6.7124  -6.7074  -6.7043  -6.6689  -6.6587
    -6.6557  -6.6536  -6.6319  -6.6264  -6.6213  -6.6053  -6.5950  -6.5916
    -6.2435  -6.1992  -6.1912  -6.1221  -5.6503  -5.6439  -5.6438  -5.6366
    -5.6347  -5.6255  -5.6227  -5.6128  -5.6091  -5.6019  -5.5987  -5.5985
    -5.5975  -5.5938  -5.5925  -5.5916  -5.5879  -5.5817  -5.5783  -5.5763
    -5.5756  -5.5719  -5.5678  -5.5623  -5.5606  -5.5548  -5.5525  -5.5512
    -5.5484  -5.5414  -5.5390  -5.5377  -5.5368  -5.5358  -5.5352  -5.5280
    -5.5221  -5.5210  -5.5180  -5.5132  -5.5075  -5.5071  -5.5065  -5.5040
    -5.5010  -5.4930  -5.4911  -5.4899  -5.4884  -5.4879  -5.4843  -5.4840
    -5.4778  -5.4763  -5.4734  -5.4703  -5.4674  -5.4671  -5.4650  -5.4641
    -5.4611  -5.4608  -5.4587  -5.4543  -5.4537  -5.4514  -5.4505  -5.4487
    -5.4454  -5.4424  -5.4418  -5.4378  -5.4329  -5.4324  -5.4288  -5.4267
    -5.4240  -5.4213  -5.4162  -5.4139  -5.4134  -5.4099  -5.4096  -5.4077
    -5.4044  -5.4003  -5.3987  -5.3978  -5.3947  -5.3929  -5.3889  -5.3885
    -5.3835  -5.3801  -5.3788  -5.3777  -5.3760  -5.3731  -5.3730  -5.3696
    -5.3657  -5.3655  -5.3613  -5.3603  -5.3536  -5.3531  -5.3491  -5.3471
    -5.3460  -5.3428  -5.3402  -5.3381  -5.3358  -5.3304  -5.3300  -5.3276
    -5.3240  -5.3228  -5.3208  -5.3158  -5.3081  -5.3081  -5.3056  -5.3056
    -5.3035  -5.2955  -5.2928  -5.2892  -5.2886  -5.2835  -5.2821  -5.2760
    -5.2714  -5.2693  -5.2689  -5.2670  -5.2607  -5.2330  -5.2324  -5.2275
    -5.2216  -5.2092  -5.2088  -4.8764  -4.8651  -4.8120  -4.7238  -4.1670
    -4.1154  -4.1104  -4.0585  -4.0178  -4.0158  -4.0069  -3.9823  -3.9580
    -3.9451  -3.9152  -3.8988  -3.8704  -3.7833  -3.7470  -3.6885  -3.6691
    -3.5435  -3.4715  -3.4257  -3.4005  -3.3748  -3.3699  -3.3284  -3.2714
    -3.2360  -3.2207  -3.1498   1.9902   2.1071   2.3577   2.3700   2.3935
     2.4092   2.4338   2.4357   2.5391   2.6139   2.7617   2.8433   2.8703
     2.8913   2.9045   2.9455   2.9565   3.0009   3.0298   3.0682   3.0842
     3.1115   3.1335   3.1913   3.1993   3.2305   3.2589   4.1605   4.4850
     4.4937   4.5717   4.7852   4.8735   4.8862   4.9031   4.9236   4.9531
     5.0814   5.0828   5.1622   5.2122   5.2576   5.3163   5.3583   5.3831
     5.5127   5.5925   5.6364   5.6569   5.6977   5.7083   5.7381   5.8109
     5.8555   5.8746   5.9028   6.0155   6.0283   6.0794   6.1056   6.1421
     6.1691   6.2241   6.2258   6.2327   6.2874   6.3176   6.3344   6.3573
     6.3884   6.4101   6.4160   6.5346   6.5987   6.8064   6.8882   6.9062
     6.9720   6.9776   7.0186   7.0237   7.0398   7.0837   7.1076   7.1335
     7.1349   7.1601   7.1730   7.2156   7.2438   7.2942   7.3487   7.3516
     7.4808   7.5359   7.6027   7.6210   7.6697   7.7225   7.7561   7.7806
     7.8727   7.9708   8.0687   8.0749   8.2044   8.5678   8.6508  12.1104
    12.1399  12.1529  12.3176  12.7380  12.7856  13.0755  13.0889  13.1318
    13.2407  13.4964  13.5653  13.5800  13.5927  13.6039  13.6091  13.6299
    13.6611  13.6699  13.6913  13.7747  13.7997  13.8831  14.1680  14.7386
    14.7564  14.7791  14.7836  14.8027  14.8152  14.8210  14.8376  14.8453
    14.9597  15.0140  15.1914  15.4429  15.4585  15.4812  15.4988  15.5123
    15.5343  15.5841  15.5869  15.6253  15.6491  15.7520  15.7671  15.8132
    15.8679  15.9830  16.0637  16.0796  16.0812  16.1809  16.1989  16.2030
    16.2279  16.2345  16.2369  16.2566  16.2656  16.2666

     occupation numbers 
     1.0000   1.0000   1.0000   1.0000   1.0000   1.0000   1.0000   1.0000
     1.0000   1.0000   1.0000   1.0000   1.0000   1.0000   1.0000   1.0000
     1.0000   1.0000   1.0000   1.0000   1.0000   1.0000   1.0000   1.0000
     1.0000   1.0000   1.0000   1.0000   1.0000   1.0000   1.0000   1.0000
     1.0000   1.0000   1.0000   1.0000   1.0000   1.0000   1.0000   1.0000
     1.0000   1.0000   1.0000   1.0000   1.0000   1.0000   1.0000   1.0000
     1.0000   1.0000   1.0000   1.0000   1.0000   1.0000   1.0000   1.0000
     1.0000   1.0000   1.0000   1.0000   1.0000   1.0000   1.0000   1.0000
     1.0000   1.0000   1.0000   1.0000   1.0000   1.0000   1.0000   1.0000
     1.0000   1.0000   1.0000   1.0000   1.0000   1.0000   1.0000   1.0000
     1.0000   1.0000   1.0000   1.0000   1.0000   1.0000   1.0000   1.0000
     1.0000   1.0000   1.0000   1.0000   1.0000   1.0000   1.0000   1.0000
     1.0000   1.0000   1.0000   1.0000   1.0000   1.0000   1.0000   1.0000
     1.0000   1.0000   1.0000   1.0000   1.0000   1.0000   1.0000   1.0000
     1.0000   1.0000   1.0000   1.0000   1.0000   1.0000   1.0000   1.0000
     1.0000   1.0000   1.0000   1.0000   1.0000   1.0000   1.0000   1.0000
     1.0000   1.0000   1.0000   1.0000   1.0000   1.0000   1.0000   1.0000
     1.0000   1.0000   1.0000   1.0000   1.0000   1.0000   1.0000   1.0000
     1.0000   1.0000   1.0000   1.0000   1.0000   1.0000   1.0000   1.0000
     1.0000   1.0000   1.0000   1.0000   1.0000   1.0000   1.0000   1.0000
     1.0000   1.0000   1.0000   1.0000   1.0000   1.0000   1.0000   1.0000
     1.0000   1.0000   1.0000   1.0000   1.0000   1.0000   1.0000   1.0000
     1.0000   1.0000   1.0000   1.0000   1.0000   1.0000   1.0000   1.0000
     1.0000   1.0000   1.0000   1.0000   1.0000   1.0000   1.0000   1.0000
     1.0000   1.0000   1.0000   1.0000   1.0000   1.0000   1.0000   1.0000
     1.0000   1.0000   1.0000   1.0000   1.0000   1.0000   1.0000   1.0000
     1.0000   1.0000   1.0000   1.0000   1.0000   1.0000   1.0000   1.0000
     1.0000   1.0000   1.0000   1.0000   1.0000   1.0000   1.0000   1.0000
     1.0000   1.0000   1.0000   1.0000   1.0000   1.0000   1.0000   1.0000
     1.0000   1.0000   1.0000   1.0000   1.0000   1.0000   1.0000   1.0000
     1.0000   1.0000   1.0000   1.0000   1.0000   1.0000   1.0000   1.0000
     1.0000   1.0000   1.0000   1.0000   1.0000   1.0000   1.0000   1.0000
     1.0000   1.0000   1.0000   1.0000   1.0000   1.0000   1.0000   1.0000
     1.0000   1.0000   1.0000   1.0000   1.0000   1.0000   1.0000   1.0000
     1.0000   1.0000   1.0000   1.0000   1.0000   1.0000   1.0000   1.0000
     1.0000   1.0000   1.0000   1.0000   1.0000   1.0000   1.0000   1.0000
     1.0000   1.0000   1.0000   1.0000   1.0000   1.0000   1.0000   1.0000
     1.0000   1.0000   1.0000   1.0000   1.0000   1.0000   1.0000   1.0000
     1.0000   1.0000   1.0000   1.0000   1.0000   1.0000   1.0000   1.0000
     1.0000   1.0000   1.0000   1.0000   1.0000   0.5834   0.2572   0.0000
     0.0000   0.0000   0.0000   0.0000   0.0000   0.0000   0.0000   0.0000
     0.0000   0.0000   0.0000   0.0000   0.0000   0.0000   0.0000   0.0000
     0.0000   0.0000   0.0000   0.0000   0.0000   0.0000   0.0000   0.0000
     0.0000   0.0000   0.0000   0.0000   0.0000   0.0000   0.0000   0.0000
     0.0000   0.0000   0.0000   0.0000   0.0000   0.0000   0.0000   0.0000
     0.0000   0.0000   0.0000   0.0000   0.0000   0.0000   0.0000   0.0000
     0.0000   0.0000   0.0000   0.0000   0.0000   0.0000   0.0000   0.0000
     0.0000   0.0000   0.0000   0.0000   0.0000   0.0000

     the Fermi energy is     8.5881 ev

!    total energy              =  -10958.56536790 Ry
     total all-electron energy =   -140241.085241 Ry
     estimated scf accuracy    <          3.2E-10 Ry
     smearing contrib. (-TS)   =      -0.00929831 Ry
     internal energy E=F+TS    =  -10958.55606959 Ry

     The total energy is F=E-TS. E is the sum of the following terms:
     one-electron contribution =   -3403.38558697 Ry
     hartree contribution      =    2360.07627843 Ry
     xc contribution           =   -1598.14250492 Ry
     ewald contribution        =   -3959.71243187 Ry
     one-center paw contrib.   =   -4357.39182426 Ry
      -> PAW hartree energy AE =     144.70650417 Ry
      -> PAW hartree energy PS =    -143.30104798 Ry
      -> PAW xc energy AE      =    -156.95442445 Ry
      -> PAW xc energy PS      =      39.74306757 Ry
      -> total E_H with PAW    =    2361.48173463 Ry
      -> total E_XC with PAW   =   -1715.35386180 Ry

     convergence has been achieved in  25 iterations


     -----------------------------------------------
     Non-local corr. energy    =      19.16567076 Ry
     -----------------------------------------------


     Forces acting on atoms (cartesian axes, Ry/au):

     atom    1 type  1   force =     0.00000000    0.00000000    0.00046412
     atom    2 type  1   force =     0.02203609   -0.02654835    0.00616693
     atom    3 type  1   force =     0.00060886    0.00196209   -0.00199914
     atom    4 type  1   force =    -0.01197350    0.03235799    0.00616693
     atom    5 type  1   force =     0.00200365   -0.00045375   -0.00199914
     atom    6 type  1   force =    -0.03400959   -0.00580964    0.00616693
     atom    7 type  1   force =     0.00139479   -0.00150833   -0.00199914
     atom    8 type  1   force =    -0.02203609   -0.02654835    0.00616693
     atom    9 type  1   force =    -0.00060886    0.00196209   -0.00199914
     atom   10 type  1   force =     0.00000000    0.00000000   -0.00124144
     atom   11 type  1   force =     0.00000000    0.00000000   -0.00054904
     atom   12 type  1   force =     0.03400959   -0.00580964    0.00616693
     atom   13 type  1   force =    -0.00139479   -0.00150833   -0.00199914
     atom   14 type  1   force =     0.00000000    0.00000000    0.00562429
     atom   15 type  1   force =     0.00000000    0.00000000   -0.00138194
     atom   16 type  1   force =     0.01197350    0.03235799    0.00616693
     atom   17 type  1   force =    -0.00200365   -0.00045375   -0.00199914
     atom   18 type  1   force =     0.01471070   -0.00849323   -0.02790352
     atom   19 type  1   force =     0.01372860   -0.00792621    0.02562875
     atom   20 type  1   force =     0.00335898    0.00193931   -0.00236197
     atom   21 type  1   force =     0.00001110    0.00000641   -0.00317051
     atom   22 type  1   force =     0.00000000    0.01698645   -0.02790352
     atom   23 type  1   force =     0.00000000    0.01585243    0.02562875
     atom   24 type  1   force =    -0.01471070   -0.00849323   -0.02790352
     atom   25 type  1   force =    -0.01372860   -0.00792621    0.02562875
     atom   26 type  1   force =     0.00000000   -0.00305430   -0.00375726
     atom   27 type  1   force =     0.00000000   -0.00049071    0.00422144
     atom   28 type  1   force =    -0.00264510    0.00152715   -0.00375726
     atom   29 type  1   force =    -0.00042497    0.00024536    0.00422144
     atom   30 type  1   force =     0.00000000   -0.00387862   -0.00236197
     atom   31 type  1   force =     0.00000000   -0.00001282   -0.00317051
     atom   32 type  1   force =    -0.00335898    0.00193931   -0.00236197
     atom   33 type  1   force =    -0.00001110    0.00000641   -0.00317051
     atom   34 type  1   force =     0.00264510    0.00152715   -0.00375726
     atom   35 type  1   force =     0.00042497    0.00024536    0.00422144
     atom   36 type  2   force =     0.00000000    0.00000000    0.04746458
     atom   37 type  2   force =     0.00000000    0.00000000   -0.01434694
     atom   38 type  2   force =    -0.00390421    0.00661359    0.00255797
     atom   39 type  2   force =    -0.00084740    0.00339028   -0.00262303
     atom   40 type  2   force =     0.00377543   -0.00668794    0.00255797
     atom   41 type  2   force =     0.00251237   -0.00242901   -0.00262303
     atom   42 type  2   force =     0.00767964    0.00007435    0.00255797
     atom   43 type  2   force =     0.00335977   -0.00096127   -0.00262303
     atom   44 type  2   force =     0.00390421    0.00661359    0.00255797
     atom   45 type  2   force =     0.00084740    0.00339028   -0.00262303
     atom   46 type  2   force =     0.00000000    0.00000000    0.00089050
     atom   47 type  2   force =     0.00000000    0.00000000   -0.00197970
     atom   48 type  2   force =    -0.00767964    0.00007435    0.00255797
     atom   49 type  2   force =    -0.00335977   -0.00096127   -0.00262303
     atom   50 type  2   force =     0.00000000    0.00000000   -0.00247117
     atom   51 type  2   force =     0.00000000    0.00000000    0.00254969
     atom   52 type  2   force =    -0.00377543   -0.00668794    0.00255797
     atom   53 type  2   force =    -0.00251237   -0.00242901   -0.00262303
     atom   54 type  2   force =    -0.03914612    0.02260103   -0.01603214
     atom   55 type  2   force =    -0.00101371    0.00058527    0.00595696
     atom   56 type  2   force =    -0.00668846   -0.00386158   -0.00552206
     atom   57 type  2   force =    -0.00098470   -0.00056852    0.00241733
     atom   58 type  2   force =    -0.00000000   -0.04520205   -0.01603214
     atom   59 type  2   force =     0.00000000   -0.00117053    0.00595696
     atom   60 type  2   force =     0.03914612    0.02260103   -0.01603214
     atom   61 type  2   force =     0.00101371    0.00058527    0.00595696
     atom   62 type  2   force =     0.00000000    0.00647204   -0.00144479
     atom   63 type  2   force =     0.00000000   -0.00036375    0.00208801
     atom   64 type  2   force =     0.00560495   -0.00323602   -0.00144479
     atom   65 type  2   force =    -0.00031502    0.00018188    0.00208801
[...]
     atom   40 type  2   force =     0.00000000    0.00000000    0.00000000
     atom   41 type  2   force =     0.00000000    0.00000000    0.00000000
     atom   42 type  2   force =     0.00000000    0.00000000    0.00000000
     atom   43 type  2   force =     0.00000000    0.00000000    0.00000000
     atom   44 type  2   force =     0.00000000    0.00000000    0.00000000
     atom   45 type  2   force =     0.00000000    0.00000000    0.00000000
     atom   46 type  2   force =     0.00000000    0.00000000    0.00000000
     atom   47 type  2   force =     0.00000000    0.00000000    0.00000000
     atom   48 type  2   force =     0.00000000    0.00000000    0.00000000
     atom   49 type  2   force =     0.00000000    0.00000000    0.00000000
     atom   50 type  2   force =     0.00000000    0.00000000    0.00000000
     atom   51 type  2   force =     0.00000000    0.00000000    0.00000000
     atom   52 type  2   force =     0.00000000    0.00000000    0.00000000
     atom   53 type  2   force =     0.00000000    0.00000000    0.00000000
     atom   54 type  2   force =     0.00000000    0.00000000    0.00000000
     atom   55 type  2   force =     0.00000000    0.00000000    0.00000000
     atom   56 type  2   force =     0.00000000    0.00000000    0.00000000
     atom   57 type  2   force =     0.00000000    0.00000000    0.00000000
     atom   58 type  2   force =     0.00000000    0.00000000    0.00000000
     atom   59 type  2   force =     0.00000000    0.00000000    0.00000000
     atom   60 type  2   force =     0.00000000    0.00000000    0.00000000
     atom   61 type  2   force =     0.00000000    0.00000000    0.00000000
     atom   62 type  2   force =     0.00000000    0.00000000    0.00000000
     atom   63 type  2   force =     0.00000000    0.00000000    0.00000000
     atom   64 type  2   force =     0.00000000    0.00000000    0.00000000
     atom   65 type  2   force =     0.00000000    0.00000000    0.00000000
     atom   66 type  2   force =     0.00000000    0.00000000    0.00000000
     atom   67 type  2   force =     0.00000000    0.00000000    0.00000000
     atom   68 type  2   force =     0.00000000    0.00000000    0.00000000
     atom   69 type  2   force =     0.00000000    0.00000000    0.00000000
     atom   70 type  2   force =     0.00000000    0.00000000    0.00000000
     atom   71 type  2   force =     0.00000000    0.00000000    0.00000000
     The SCF correction term to forces
     atom    1 type  1   force =    -0.00000000    0.00000000   -0.00000133
     atom    2 type  1   force =     0.00000071   -0.00000227   -0.00000002
     atom    3 type  1   force =    -0.00000031    0.00000017   -0.00000048
     atom    4 type  1   force =    -0.00000161    0.00000175   -0.00000002
     atom    5 type  1   force =    -0.00000001   -0.00000035   -0.00000048
     atom    6 type  1   force =    -0.00000232    0.00000052   -0.00000002
     atom    7 type  1   force =     0.00000030    0.00000018   -0.00000048
     atom    8 type  1   force =    -0.00000071   -0.00000227   -0.00000002
     atom    9 type  1   force =     0.00000031    0.00000017   -0.00000048
     atom   10 type  1   force =     0.00000000   -0.00000000    0.00000035
     atom   11 type  1   force =     0.00000000   -0.00000000   -0.00000072
     atom   12 type  1   force =     0.00000232    0.00000052   -0.00000002
     atom   13 type  1   force =    -0.00000030    0.00000018   -0.00000048
     atom   14 type  1   force =    -0.00000000    0.00000000    0.00000078
     atom   15 type  1   force =    -0.00000000    0.00000000   -0.00000116
     atom   16 type  1   force =     0.00000161    0.00000175   -0.00000002
     atom   17 type  1   force =     0.00000001   -0.00000035   -0.00000048
     atom   18 type  1   force =     0.00000067   -0.00000039   -0.00000014
     atom   19 type  1   force =    -0.00000040    0.00000023    0.00000168
     atom   20 type  1   force =    -0.00000015   -0.00000009    0.00000125
     atom   21 type  1   force =     0.00000017    0.00000010   -0.00000135
     atom   22 type  1   force =     0.00000000    0.00000078   -0.00000014
     atom   23 type  1   force =    -0.00000000   -0.00000047    0.00000168
     atom   24 type  1   force =    -0.00000067   -0.00000039   -0.00000014
     atom   25 type  1   force =     0.00000040    0.00000023    0.00000168
     atom   26 type  1   force =     0.00000000    0.00000020    0.00000134
     atom   27 type  1   force =    -0.00000000   -0.00000037   -0.00000101
     atom   28 type  1   force =     0.00000017   -0.00000010    0.00000134
     atom   29 type  1   force =    -0.00000032    0.00000019   -0.00000101
     atom   30 type  1   force =     0.00000000    0.00000018    0.00000125
     atom   31 type  1   force =    -0.00000000   -0.00000019   -0.00000135
     atom   32 type  1   force =     0.00000015   -0.00000009    0.00000125
     atom   33 type  1   force =    -0.00000017    0.00000010   -0.00000135
     atom   34 type  1   force =    -0.00000017   -0.00000010    0.00000134
     atom   35 type  1   force =     0.00000032    0.00000019   -0.00000101
     atom   36 type  2   force =    -0.00000000    0.00000000   -0.00000024
     atom   37 type  2   force =     0.00000000   -0.00000000    0.00000016
     atom   38 type  2   force =    -0.00000018   -0.00000014    0.00000051
     atom   39 type  2   force =     0.00000004   -0.00000006   -0.00000028
     atom   40 type  2   force =    -0.00000021   -0.00000009    0.00000051
     atom   41 type  2   force =    -0.00000003    0.00000006   -0.00000028
     atom   42 type  2   force =    -0.00000003    0.00000023    0.00000051
     atom   43 type  2   force =    -0.00000007   -0.00000001   -0.00000028
     atom   44 type  2   force =     0.00000018   -0.00000014    0.00000051
     atom   45 type  2   force =    -0.00000004   -0.00000006   -0.00000028
     atom   46 type  2   force =     0.00000000   -0.00000000    0.00000093
     atom   47 type  2   force =    -0.00000000    0.00000000   -0.00000093
     atom   48 type  2   force =     0.00000003    0.00000023    0.00000051
     atom   49 type  2   force =     0.00000007   -0.00000001   -0.00000028
     atom   50 type  2   force =    -0.00000000    0.00000000    0.00000094
     atom   51 type  2   force =     0.00000000   -0.00000000   -0.00000063
     atom   52 type  2   force =     0.00000021   -0.00000009    0.00000051
     atom   53 type  2   force =     0.00000003    0.00000006   -0.00000028
     atom   54 type  2   force =     0.00000056   -0.00000032    0.00000011
     atom   55 type  2   force =    -0.00000014    0.00000008   -0.00000024
     atom   56 type  2   force =    -0.00000001   -0.00000001    0.00000002
     atom   57 type  2   force =    -0.00000017   -0.00000010   -0.00000034
     atom   58 type  2   force =     0.00000000    0.00000064    0.00000011
     atom   59 type  2   force =     0.00000000   -0.00000016   -0.00000024
     atom   60 type  2   force =    -0.00000056   -0.00000032    0.00000011
     atom   61 type  2   force =     0.00000014    0.00000008   -0.00000024
     atom   62 type  2   force =    -0.00000000   -0.00000049   -0.00000012
     atom   63 type  2   force =     0.00000000    0.00000055   -0.00000000
     atom   64 type  2   force =    -0.00000042    0.00000024   -0.00000012
     atom   65 type  2   force =     0.00000048   -0.00000028   -0.00000000
     atom   66 type  2   force =    -0.00000000    0.00000001    0.00000002
     atom   67 type  2   force =     0.00000000    0.00000020   -0.00000034
     atom   68 type  2   force =     0.00000001   -0.00000001    0.00000002
     atom   69 type  2   force =     0.00000017   -0.00000010   -0.00000034
     atom   70 type  2   force =     0.00000042    0.00000024   -0.00000012
     atom   71 type  2   force =    -0.00000048   -0.00000028   -0.00000000

     Total force =     0.002691     Total SCF correction =     0.000009


     Computing stress (Cartesian axis) and pressure



     -----------------------------------------------
     Non-local corr. energy    =      19.17394435 Ry
     -----------------------------------------------

          total   stress  (Ry/bohr**3)                   (kbar)     P=        4.27
   0.00002045  -0.00000000   0.00000000            3.01       -0.00        0.00
   0.00000000   0.00002045   0.00000000            0.00        3.01        0.00
   0.00000000   0.00000000   0.00004627            0.00        0.00        6.81

     kinetic stress (kbar)  18134.95      0.00      0.00
                                0.00  18134.95     -0.00
                                0.00     -0.00  18150.24

     local   stress (kbar)   4063.59     -0.07     -0.00
                               -0.07   4063.50      0.00
                               -0.00      0.00   2554.79

     nonloc. stress (kbar)     57.66      0.00      0.00
                                0.00     57.66      0.00
                                0.00      0.00     61.68

     hartree stress (kbar)  19623.17     -0.00     -0.00
                               -0.00  19623.17      0.00
                               -0.00      0.00  20296.13

     exc-cor stress (kbar)   5047.93      0.00      0.00
                                0.00   5047.93      0.00
                                0.00      0.00   5048.65

     corecor stress (kbar) -13735.55     -0.00      0.00
                               -0.00 -13735.55      0.00
                                0.00      0.00 -13735.42

     ewald   stress (kbar) -33346.99      0.09      0.00
                                0.09 -33346.87     -0.00
                                0.00     -0.00 -32526.60

     hubbard stress (kbar)      0.00      0.00      0.00
                                0.00      0.00      0.00
                                0.00      0.00      0.00

     DFT-D   stress (kbar)      0.00      0.00      0.00
                                0.00      0.00      0.00
                                0.00      0.00      0.00

     XDM     stress (kbar)      0.00      0.00      0.00
                                0.00      0.00      0.00
                                0.00      0.00      0.00

     dft-nl  stress (kbar)    158.23     -0.00     -0.00
                               -0.00    158.23     -0.00
                               -0.00     -0.00    157.34

     TS-vdW  stress (kbar)      0.00      0.00      0.00
                                0.00      0.00      0.00
                                0.00      0.00      0.00

     MDB     stress (kbar)      0.00      0.00      0.00
                                0.00      0.00      0.00
                                0.00      0.00      0.00

     3D-RISM stress (kbar)      0.00      0.00      0.00
                                0.00      0.00      0.00
                                0.00      0.00      0.00

     Energy error            =      1.8E-05 Ry
     Gradient error          =      8.6E-04 Ry/Bohr

     bfgs converged in  12 scf cycles and  11 bfgs steps
     (criteria: energy <  1.0E-04 Ry, force <  1.0E-03 Ry/Bohr)

     End of BFGS Geometry Optimization

     Final energy             =  -10958.6071566435 Ry

     File ./GaN.bfgs deleted, as requested
Begin final coordinates

ATOMIC_POSITIONS (angstrom)
Ga            1.6222756606        0.9366198184        7.9014179748
Ga            0.0239534541        3.7379018589        2.6566785016
Ga           -0.0009898461        3.7488066971        7.9234561096
Ga           -1.6177266581        6.5813752231        2.6566785016
Ga           -1.6207544413        6.5543212724        7.9234561096
Ga            4.8474181741        0.9201664325        2.6566785016
Ga            4.8693336911        0.9363155450        7.9234561096
Ga            3.2205978671        3.7379018589        2.6566785016
Ga            3.2455411673        3.7488066971        7.9234561096
Ga            1.6222756606        6.5563425246        2.6427243572
Ga            1.6222756606        6.5563425246        7.9289719606
Ga            8.1307783983        0.9201664325        2.6566785016
Ga            8.1088628813        0.9363155450        7.9234561096
Ga            6.4890982862        3.7464811715        2.6357297630
Ga            6.4890982862        3.7464811715        7.9292870432
Ga            4.8622779793        6.5813752231        2.6566785016
Ga            4.8653057625        6.5543212724        7.9234561096
Ga            0.0029778674        1.8715220396        5.2587769559
Ga            0.0029694821        1.8715268809       10.5842204485
Ga           -1.6238014993        4.6822231522        5.2822900774
Ga           -1.6205636149        4.6840925457       10.5732906761
Ga           -3.2445503819        7.4964059665        5.2587769559
Ga           -3.2445503819        7.4963962840       10.5842204485
Ga            3.2415666201        1.8715220396        5.2587769559
Ga            3.2415750054        1.8715268809       10.5842204485
Ga            1.6222722437        4.6845359871        5.2905918854
Ga            1.6222722437        4.6823535795       10.5665064257
Ga            0.0012383460        7.4922490590        5.2905918854
Ga           -0.0006516745        7.4933402628       10.5665064257
Ga            6.4890948693        1.8750037413        5.2822900774
Ga            6.4890948693        1.8712649544       10.5732906761
Ga            4.8683459868        4.6822231522        5.2822900774
Ga            4.8651081024        4.6840925457       10.5732906761
Ga            3.2433061415        7.4922490590        5.2905918854
Ga            3.2451961620        7.4933402628       10.5665064257
N             1.6222756606        0.9366198184        4.8103103148
N             1.6222756606        0.9366198184        9.9137028016
N             0.0005929871        3.7536405356        4.6367135783
N             0.0016514187        3.7514231412        9.9104635288
N            -1.6157767978        6.5532751269        4.6367135783
N            -1.6171679020        6.5553004527        9.9104635288
N             4.8727285014        0.9325278520        4.6367135783
N             4.8702789657        0.9327199206        9.9104635288
N             3.2439583341        3.7536405356        4.6367135783
N             3.2428999025        3.7514231412        9.9104635288
N             1.6222756606        6.5563425246        4.6333049603
N             1.6222756606        6.5563425246        9.9190423123
N             8.1054680710        0.9325278520        4.6367135783
N             8.1079176067        0.9327199206        9.9104635288
N             6.4890982862        3.7464811715        4.6262578575
N             6.4890982862        3.7464811715        9.9230587240
N             4.8603281190        6.5532751269        4.6367135783
N             4.8617192232        6.5553004527        9.9104635288
N            -0.1570839865        1.9639337940        1.9333419346
N            -0.0094935681        1.8787224262        7.2797380818
N            -1.6203337360        4.6842252663        1.9890197268
N            -1.6238722668        4.6821822946        7.2725764598
N            -3.2445503819        7.3115824576        1.9333419346
N            -3.2445503819        7.4820051932        7.2797380818
N             3.4016284740        1.9639337940        1.9333419346
N             3.2540380556        1.8787224262        7.2797380818
N             1.6222722437        4.6889759883        1.9855506938
N             1.6222722437        4.6850548618        7.2759588763
N             0.0050834998        7.4900290584        1.9855506938
N             0.0016877047        7.4919896216        7.2759588763
N             6.4890948693        1.8709995131        1.9890197268
N             6.4890948693        1.8750854566        7.2725764598
N             4.8648782235        4.6842252663        1.9890197268
N             4.8684167543        4.6821822946        7.2725764598
N             3.2394609877        7.4900290584        1.9855506938
N             3.2428567828        7.4919896216        7.2759588763
End final coordinates



     Writing all to output data dir ./GaN.save/
 
     init_run     :      3.61s CPU      3.86s WALL (       1 calls)
     electrons    :   3904.82s CPU   3993.65s WALL (      12 calls)
     update_pot   :     14.24s CPU     14.40s WALL (      11 calls)
     forces       :     23.17s CPU     23.66s WALL (      12 calls)
     stress       :    211.57s CPU    213.38s WALL (      12 calls)

     Called by init_run:
     wfcinit      :      2.00s CPU      2.13s WALL (       1 calls)
     wfcinit:atom :      0.02s CPU      0.02s WALL (       1 calls)
     wfcinit:wfcr :      1.92s CPU      2.02s WALL (       1 calls)
     potinit      :      0.93s CPU      1.00s WALL (       1 calls)
     hinit0       :      0.42s CPU      0.43s WALL (       1 calls)

     Called by electrons:
     c_bands      :   3610.08s CPU   3691.46s WALL (     233 calls)
     sum_band     :    144.09s CPU    146.07s WALL (     233 calls)
     v_of_rho     :     91.53s CPU     93.67s WALL (     244 calls)
     v_h          :      0.84s CPU      0.86s WALL (     244 calls)
     v_xc         :     99.78s CPU    102.05s WALL (     268 calls)
     newd         :     10.81s CPU     11.17s WALL (     244 calls)
     PAW_pot      :     45.61s CPU     46.27s WALL (     255 calls)
     mix_rho      :      4.75s CPU      4.98s WALL (     233 calls)
     vdW_kernel   :      0.26s CPU      0.26s WALL (       1 calls)

     Called by c_bands:
     init_us_2    :     12.90s CPU     13.17s WALL (     478 calls)
     init_us_2:cp :     12.90s CPU     13.16s WALL (     478 calls)
     cegterg      :   2556.02s CPU   2631.17s WALL (     233 calls)

     Called by sum_band:
     sum_band:wei :      0.26s CPU      0.27s WALL (     233 calls)
     sum_band:loo :    125.94s CPU    127.49s WALL (     233 calls)
     sum_band:buf :      0.00s CPU      0.00s WALL (     233 calls)
     sum_band:ini :      6.40s CPU      6.54s WALL (     233 calls)
     sum_band:cal :     49.11s CPU     49.53s WALL (     244 calls)
     sum_band:bec :      1.21s CPU      1.24s WALL (     244 calls)
     addusdens    :     11.03s CPU     11.26s WALL (     233 calls)
     addusd:skk   :      0.95s CPU      0.97s WALL (     466 calls)
     addusd:dgemm :      6.97s CPU      7.13s WALL (     466 calls)
     addusd:qvan2 :      2.57s CPU      2.60s WALL (     466 calls)

     Called by *egterg:
     cdiaghg      :   1388.69s CPU   1428.11s WALL (    1898 calls)
     cegterg:over :    187.14s CPU    193.53s WALL (    1677 calls)
     cegterg:upda :    114.65s CPU    118.79s WALL (    1677 calls)
     cegterg:last :     52.69s CPU     53.10s WALL (     244 calls)
     h_psi        :    612.42s CPU    623.55s WALL (    1911 calls)
     s_psi        :    129.45s CPU    130.54s WALL (    1911 calls)
     g_psi        :      0.86s CPU      0.88s WALL (    1677 calls)

     Called by h_psi:
     h_psi:calbec :    139.34s CPU    140.58s WALL (    1911 calls)
     vloc_psi     :    338.55s CPU    342.60s WALL (    1911 calls)
     add_vuspsi   :    128.89s CPU    130.03s WALL (    1911 calls)

     General routines
     calbec       :    200.65s CPU    202.43s WALL (    2215 calls)
     fft          :     42.46s CPU     42.99s WALL (   17388 calls)
     ffts         :      0.82s CPU      0.83s WALL (     477 calls)
     fftw         :    364.71s CPU    369.24s WALL (  560458 calls)
     interpolate  :      1.09s CPU      1.12s WALL (     244 calls)
 
     Parallel routines

     PAW routines
     PAW_pot      :     45.61s CPU     46.27s WALL (     255 calls)
     PAW_symme    :      0.49s CPU      0.50s WALL (     488 calls)
 
     PWSCF        :      1h 9m CPU      1h10m WALL

 
   This run was terminated on:  16:29:53  25Jan2024            

=------------------------------------------------------------------------------=
   JOB DONE.
=------------------------------------------------------------------------------=
