
     Program PWSCF v.7.1 starts on 19Feb2024 at  7:16: 8 

     This program is part of the open-source Quantum ESPRESSO suite
     for quantum simulation of materials; please cite
         "P. Giannozzi et al., J. Phys.:Condens. Matter 21 395502 (2009);
         "P. Giannozzi et al., J. Phys.:Condens. Matter 29 465901 (2017);
         "P. Giannozzi et al., J. Chem. Phys. 152 154105 (2020);
          URL http://www.quantum-espresso.org", 
     in publications or presentations arising from this work. More details at
     http://www.quantum-espresso.org/quote

     Parallel version (MPI & OpenMP), running on     128 processor cores
     Number of MPI processes:               128
     Threads/MPI process:                     1

     MPI processes distributed on     1 nodes
     1924977 MiB available memory on the printing compute node when the environment starts
 
     Reading input from espresso.pwi
Warning: card &CELL ignored
Warning: card    CELL_DYNAMICS    = 'BFGS' ignored
Warning: card / ignored

     Current dimensions of program PWSCF are:
     Max number of different atomic species (ntypx) = 10
     Max number of k-points (npk) =  40000
     Max angular momentum in pseudopotentials (lmaxx) =  4
     file Ga.pbe-dn-kjpaw_psl.1.0.0.UPF: wavefunction(s)  4S renormalized
     file N.pbe-n-kjpaw_psl.1.0.0.UPF: wavefunction(s)  2S renormalized

     **************************************************************************
     Initializing libbeef V0.1.2 with the BEEF-vdW functional.
     Citation: Wellendorff et al., PRB 85, 235149 (2012).
     **************************************************************************


     IMPORTANT: XC functional enforced from input :
     Exchange-correlation= BEEF-VDW
                           (   1   4  43  14   2   0   0)
     Any further DFT definition will be discarded
     Please, verify this is what you really want

 
     K-points division:     npool     =       4
     R & G space division:  proc/nbgrp/npool/nimage =      32
     Subspace diagonalization in iterative solution of the eigenvalue problem:
     a serial algorithm will be used

 
     Parallelization info
     --------------------
     sticks:   dense  smooth     PW     G-vecs:    dense   smooth      PW
     Min         253     203     54                20226    14477    1979
     Max         255     204     56                20235    14484    1982
     Sum        8137    6505   1735               647327   463355   63361
 
     Using Slab Decomposition
 


     bravais-lattice index     =            4
     lattice parameter (alat)  =      18.3939  a.u.
     unit-cell volume          =    5856.2271 (a.u.)^3
     number of atoms/cell      =           71
     number of atomic types    =            2
     number of electrons       =       635.00
     number of Kohn-Sham states=          382
     kinetic-energy cutoff     =      70.0000  Ry
     charge density cutoff     =     350.0000  Ry
     scf convergence threshold =      1.0E-07
     mixing beta               =       0.7000
     number of iterations used =            8  plain     mixing
     Exchange-correlation= BEEF-VDW
                           (   1   4  43  14   2   0   0)

     celldm(1)=  18.393924  celldm(2)=   0.000000  celldm(3)=   1.086586
     celldm(4)=   0.000000  celldm(5)=   0.000000  celldm(6)=   0.000000

     crystal axes: (cart. coord. in units of alat)
               a(1) = (   1.000000   0.000000   0.000000 )  
               a(2) = (  -0.500000   0.866025   0.000000 )  
               a(3) = (   0.000000   0.000000   1.086586 )  

     reciprocal axes: (cart. coord. in units 2 pi/alat)
               b(1) = (  1.000000  0.577350 -0.000000 )  
               b(2) = (  0.000000  1.154701  0.000000 )  
               b(3) = (  0.000000 -0.000000  0.920314 )  


     PseudoPot. # 1 for Ga read from file:
     //group///packages/espresso/pseudo/psl_1.0.0/pslibrary.1.0.0/pbe/PSEUDOPOTENTIALS/Ga.pbe-dn-kjpaw_psl.1.0.0.UPF
     MD5 check sum: cd2a01e492f15b435d17032472d8505c
     Pseudo is Projector augmented-wave + core cor, Zval = 13.0
     Generated using 'atomic' code by A. Dal Corso  v.7.1
     Shape of augmentation charge: PSQ
     Using radial grid of 1205 points,  6 beta functions with: 
                l(1) =   0
                l(2) =   0
                l(3) =   1
                l(4) =   1
                l(5) =   2
                l(6) =   2
     Q(r) pseudized with 0 coefficients 


     PseudoPot. # 2 for N  read from file:
     //group///packages/espresso/pseudo/psl_1.0.0/pslibrary.1.0.0/pbe/PSEUDOPOTENTIALS/N.pbe-n-kjpaw_psl.1.0.0.UPF
     MD5 check sum: f77f775694dac7e2c3fe1c82443d1a16
     Pseudo is Projector augmented-wave + core cor, Zval =  5.0
     Generated using 'atomic' code by A. Dal Corso  v.7.1
     Shape of augmentation charge: PSQ
     Using radial grid of 1085 points,  4 beta functions with: 
                l(1) =   0
                l(2) =   0
                l(3) =   1
                l(4) =   1
     Q(r) pseudized with 0 coefficients 


     atomic species   valence    mass     pseudopotential
        Ga            13.00    69.72300     Ga( 1.00)
        N              5.00    14.00700     N ( 1.00)

      6 Sym. Ops. (no inversion) found ( 4 have fractional translation)


                                    s                        frac. trans.

      isym =  1     identity                                     

 cryst.   s( 1) = (     1          0          0      )
                  (     0          1          0      )
                  (     0          0          1      )

 cart.    s( 1) = (  1.0000000  0.0000000  0.0000000 )
                  (  0.0000000  1.0000000  0.0000000 )
                  (  0.0000000  0.0000000  1.0000000 )


      isym =  2     120 deg rotation - cryst. axis [0,0,1]       

 cryst.   s( 2) = (     0          1          0      )    f =( -0.3333334 )
                  (    -1         -1          0      )       (  0.0000003 )
                  (     0          0          1      )       (  0.0000000 )

 cart.    s( 2) = ( -0.5000000 -0.8660254  0.0000000 )    f =( -0.3333335 )
                  (  0.8660254 -0.5000000  0.0000000 )       (  0.0000002 )
                  (  0.0000000  0.0000000  1.0000000 )       (  0.0000000 )


      isym =  3     120 deg rotation - cryst. axis [0,0,-1]      

 cryst.   s( 3) = (    -1         -1          0      )    f =( -0.3333336 )
                  (     1          0          0      )       ( -0.3333334 )
                  (     0          0          1      )       (  0.0000000 )

 cart.    s( 3) = ( -0.5000000  0.8660254  0.0000000 )    f =( -0.1666669 )
                  ( -0.8660254 -0.5000000  0.0000000 )       ( -0.2886752 )
                  (  0.0000000  0.0000000  1.0000000 )       (  0.0000000 )


      isym =  4     inv. 180 deg rotation - cart. axis [1,0,0]   

 cryst.   s( 4) = (    -1          0          0      )    f =( -0.3333336 )
                  (     1          1          0      )       (  0.0000000 )
                  (     0          0          1      )       (  0.0000000 )

 cart.    s( 4) = ( -1.0000000  0.0000000  0.0000000 )    f =( -0.3333336 )
                  (  0.0000000  1.0000000  0.0000000 )       (  0.0000000 )
                  (  0.0000000  0.0000000  1.0000000 )       (  0.0000000 )


      isym =  5     inv. 180 deg rotation - cryst. axis [0,1,0]  

 cryst.   s( 5) = (     1          1          0      )
                  (     0         -1          0      )
                  (     0          0          1      )

 cart.    s( 5) = (  0.5000000  0.8660254  0.0000000 )
                  (  0.8660254 -0.5000000  0.0000000 )
                  (  0.0000000  0.0000000  1.0000000 )


      isym =  6     inv. 180 deg rotation - cryst. axis [1,1,0]  

 cryst.   s( 6) = (     0         -1          0      )    f =( -0.3333334 )
                  (    -1          0          0      )       ( -0.3333334 )
                  (     0          0          1      )       (  0.0000000 )

 cart.    s( 6) = (  0.5000000 -0.8660254  0.0000000 )    f =( -0.1666667 )
                  ( -0.8660254 -0.5000000  0.0000000 )       ( -0.2886752 )
                  (  0.0000000  0.0000000  1.0000000 )       (  0.0000000 )


     point group C_3v (3m)  
     there are  3 classes
     the character table:

       E     2C3   3s_v 
A_1    1.00  1.00  1.00
A_2    1.00  1.00 -1.00
E      2.00 -1.00  0.00

     the symmetry operations in each class and the name of the first element:

     E        1
          identity                                               
     2C3      2    3
          120 deg rotation - cryst. axis [0,0,1]                 
     3s_v     4    5    6
          inv. 180 deg rotation - cart. axis [1,0,0]             

   Cartesian axes

     site n.     atom                  positions (alat units)
         1           Ga  tau(   1) = (   0.1666668   0.0962250   0.8144844  )
         2           Ga  tau(   2) = (   0.0000001   0.3849001   0.2711914  )
         3           Ga  tau(   3) = (   0.0000001   0.3849001   0.8144844  )
         4           Ga  tau(   4) = (  -0.1666665   0.6735752   0.2711914  )
         5           Ga  tau(   5) = (  -0.1666665   0.6735752   0.8144844  )
         6           Ga  tau(   6) = (   0.5000001   0.0962250   0.2711914  )
         7           Ga  tau(   7) = (   0.5000001   0.0962250   0.8144844  )
         8           Ga  tau(   8) = (   0.3333335   0.3849001   0.2711914  )
         9           Ga  tau(   9) = (   0.3333335   0.3849001   0.8144844  )
        10           Ga  tau(  10) = (   0.1666668   0.6735752   0.2711914  )
        11           Ga  tau(  11) = (   0.1666668   0.6735752   0.8144844  )
        12           Ga  tau(  12) = (   0.8333335   0.0962250   0.2711914  )
        13           Ga  tau(  13) = (   0.8333335   0.0962250   0.8144844  )
        14           Ga  tau(  14) = (   0.6666668   0.3849001   0.2711914  )
        15           Ga  tau(  15) = (   0.6666668   0.3849001   0.8144844  )
        16           Ga  tau(  16) = (   0.5000001   0.6735752   0.2711914  )
        17           Ga  tau(  17) = (   0.5000001   0.6735752   0.8144844  )
        18           Ga  tau(  18) = (  -0.0000002   0.1924502   0.5428379  )
        19           Ga  tau(  19) = (  -0.0000002   0.1924502   1.0861309  )
        20           Ga  tau(  20) = (  -0.1666669   0.4811254   0.5428379  )
        21           Ga  tau(  21) = (  -0.1666669   0.4811254   1.0861309  )
        22           Ga  tau(  22) = (  -0.3333335   0.7698005   0.5428379  )
        23           Ga  tau(  23) = (  -0.3333335   0.7698005   1.0861309  )
        24           Ga  tau(  24) = (   0.3333331   0.1924502   0.5428379  )
        25           Ga  tau(  25) = (   0.3333331   0.1924502   1.0861309  )
        26           Ga  tau(  26) = (   0.1666665   0.4811254   0.5428379  )
        27           Ga  tau(  27) = (   0.1666665   0.4811254   1.0861309  )
        28           Ga  tau(  28) = (  -0.0000002   0.7698005   0.5428379  )
        29           Ga  tau(  29) = (  -0.0000002   0.7698005   1.0861309  )
        30           Ga  tau(  30) = (   0.6666665   0.1924502   0.5428379  )
        31           Ga  tau(  31) = (   0.6666665   0.1924502   1.0861309  )
        32           Ga  tau(  32) = (   0.4999998   0.4811254   0.5428379  )
        33           Ga  tau(  33) = (   0.4999998   0.4811254   1.0861309  )
        34           Ga  tau(  34) = (   0.3333331   0.7698005   0.5428379  )
        35           Ga  tau(  35) = (   0.3333331   0.7698005   1.0861309  )
        36           N   tau(  36) = (   0.1666668   0.0962250   0.4758365  )
        37           N   tau(  37) = (   0.1666668   0.0962250   1.0191295  )
        38           N   tau(  38) = (   0.0000001   0.3849001   0.4758365  )
        39           N   tau(  39) = (   0.0000001   0.3849001   1.0191295  )
        40           N   tau(  40) = (  -0.1666665   0.6735752   0.4758365  )
        41           N   tau(  41) = (  -0.1666665   0.6735752   1.0191295  )
        42           N   tau(  42) = (   0.5000001   0.0962250   0.4758365  )
        43           N   tau(  43) = (   0.5000001   0.0962250   1.0191295  )
        44           N   tau(  44) = (   0.3333335   0.3849001   0.4758365  )
        45           N   tau(  45) = (   0.3333335   0.3849001   1.0191295  )
        46           N   tau(  46) = (   0.1666668   0.6735752   0.4758365  )
        47           N   tau(  47) = (   0.1666668   0.6735752   1.0191295  )
        48           N   tau(  48) = (   0.8333335   0.0962250   0.4758365  )
        49           N   tau(  49) = (   0.8333335   0.0962250   1.0191295  )
        50           N   tau(  50) = (   0.6666668   0.3849001   0.4758365  )
        51           N   tau(  51) = (   0.6666668   0.3849001   1.0191295  )
        52           N   tau(  52) = (   0.5000001   0.6735752   0.4758365  )
        53           N   tau(  53) = (   0.5000001   0.6735752   1.0191295  )
        54           N   tau(  54) = (  -0.0000002   0.1924502   0.2041900  )
        55           N   tau(  55) = (  -0.0000002   0.1924502   0.7474830  )
        56           N   tau(  56) = (  -0.1666669   0.4811254   0.2041900  )
        57           N   tau(  57) = (  -0.1666669   0.4811254   0.7474830  )
        58           N   tau(  58) = (  -0.3333335   0.7698005   0.2041900  )
        59           N   tau(  59) = (  -0.3333335   0.7698005   0.7474830  )
        60           N   tau(  60) = (   0.3333331   0.1924502   0.2041900  )
        61           N   tau(  61) = (   0.3333331   0.1924502   0.7474830  )
        62           N   tau(  62) = (   0.1666665   0.4811254   0.2041900  )
        63           N   tau(  63) = (   0.1666665   0.4811254   0.7474830  )
        64           N   tau(  64) = (  -0.0000002   0.7698005   0.2041900  )
        65           N   tau(  65) = (  -0.0000002   0.7698005   0.7474830  )
        66           N   tau(  66) = (   0.6666665   0.1924502   0.2041900  )
        67           N   tau(  67) = (   0.6666665   0.1924502   0.7474830  )
        68           N   tau(  68) = (   0.4999998   0.4811254   0.2041900  )
        69           N   tau(  69) = (   0.4999998   0.4811254   0.7474830  )
        70           N   tau(  70) = (   0.3333331   0.7698005   0.2041900  )
        71           N   tau(  71) = (   0.3333331   0.7698005   0.7474830  )

   Crystallographic axes

     site n.     atom                  positions (cryst. coord.)
         1           Ga  tau(   1) = (  0.2222223  0.1111110  0.7495811  )
         2           Ga  tau(   2) = (  0.2222223  0.4444444  0.2495811  )
         3           Ga  tau(   3) = (  0.2222223  0.4444444  0.7495811  )
         4           Ga  tau(   4) = (  0.2222223  0.7777777  0.2495811  )
         5           Ga  tau(   5) = (  0.2222223  0.7777777  0.7495811  )
         6           Ga  tau(   6) = (  0.5555557  0.1111110  0.2495811  )
         7           Ga  tau(   7) = (  0.5555557  0.1111110  0.7495811  )
         8           Ga  tau(   8) = (  0.5555557  0.4444444  0.2495811  )
         9           Ga  tau(   9) = (  0.5555557  0.4444444  0.7495811  )
        10           Ga  tau(  10) = (  0.5555557  0.7777777  0.2495811  )
        11           Ga  tau(  11) = (  0.5555557  0.7777777  0.7495811  )
        12           Ga  tau(  12) = (  0.8888890  0.1111110  0.2495811  )
        13           Ga  tau(  13) = (  0.8888890  0.1111110  0.7495811  )
        14           Ga  tau(  14) = (  0.8888890  0.4444444  0.2495811  )
        15           Ga  tau(  15) = (  0.8888890  0.4444444  0.7495811  )
        16           Ga  tau(  16) = (  0.8888890  0.7777777  0.2495811  )
        17           Ga  tau(  17) = (  0.8888890  0.7777777  0.7495811  )
        18           Ga  tau(  18) = (  0.1111110  0.2222224  0.4995811  )
        19           Ga  tau(  19) = (  0.1111110  0.2222224  0.9995811  )
        20           Ga  tau(  20) = (  0.1111110  0.5555557  0.4995811  )
        21           Ga  tau(  21) = (  0.1111110  0.5555557  0.9995811  )
        22           Ga  tau(  22) = (  0.1111110  0.8888891  0.4995811  )
        23           Ga  tau(  23) = (  0.1111110  0.8888891  0.9995811  )
        24           Ga  tau(  24) = (  0.4444443  0.2222224  0.4995811  )
        25           Ga  tau(  25) = (  0.4444443  0.2222224  0.9995811  )
        26           Ga  tau(  26) = (  0.4444443  0.5555557  0.4995811  )
        27           Ga  tau(  27) = (  0.4444443  0.5555557  0.9995811  )
        28           Ga  tau(  28) = (  0.4444443  0.8888891  0.4995811  )
        29           Ga  tau(  29) = (  0.4444443  0.8888891  0.9995811  )
        30           Ga  tau(  30) = (  0.7777777  0.2222224  0.4995811  )
        31           Ga  tau(  31) = (  0.7777777  0.2222224  0.9995811  )
        32           Ga  tau(  32) = (  0.7777777  0.5555557  0.4995811  )
        33           Ga  tau(  33) = (  0.7777777  0.5555557  0.9995811  )
        34           Ga  tau(  34) = (  0.7777777  0.8888891  0.4995811  )
        35           Ga  tau(  35) = (  0.7777777  0.8888891  0.9995811  )
        36           N   tau(  36) = (  0.2222223  0.1111110  0.4379189  )
        37           N   tau(  37) = (  0.2222223  0.1111110  0.9379189  )
        38           N   tau(  38) = (  0.2222223  0.4444444  0.4379189  )
        39           N   tau(  39) = (  0.2222223  0.4444444  0.9379189  )
        40           N   tau(  40) = (  0.2222223  0.7777777  0.4379189  )
        41           N   tau(  41) = (  0.2222223  0.7777777  0.9379189  )
        42           N   tau(  42) = (  0.5555557  0.1111110  0.4379189  )
        43           N   tau(  43) = (  0.5555557  0.1111110  0.9379189  )
        44           N   tau(  44) = (  0.5555557  0.4444444  0.4379189  )
        45           N   tau(  45) = (  0.5555557  0.4444444  0.9379189  )
        46           N   tau(  46) = (  0.5555557  0.7777777  0.4379189  )
        47           N   tau(  47) = (  0.5555557  0.7777777  0.9379189  )
        48           N   tau(  48) = (  0.8888890  0.1111110  0.4379189  )
        49           N   tau(  49) = (  0.8888890  0.1111110  0.9379189  )
        50           N   tau(  50) = (  0.8888890  0.4444444  0.4379189  )
        51           N   tau(  51) = (  0.8888890  0.4444444  0.9379189  )
        52           N   tau(  52) = (  0.8888890  0.7777777  0.4379189  )
        53           N   tau(  53) = (  0.8888890  0.7777777  0.9379189  )
        54           N   tau(  54) = (  0.1111110  0.2222224  0.1879189  )
        55           N   tau(  55) = (  0.1111110  0.2222224  0.6879189  )
        56           N   tau(  56) = (  0.1111110  0.5555557  0.1879189  )
        57           N   tau(  57) = (  0.1111110  0.5555557  0.6879189  )
        58           N   tau(  58) = (  0.1111110  0.8888891  0.1879189  )
        59           N   tau(  59) = (  0.1111110  0.8888891  0.6879189  )
        60           N   tau(  60) = (  0.4444443  0.2222224  0.1879189  )
        61           N   tau(  61) = (  0.4444443  0.2222224  0.6879189  )
        62           N   tau(  62) = (  0.4444443  0.5555557  0.1879189  )
        63           N   tau(  63) = (  0.4444443  0.5555557  0.6879189  )
        64           N   tau(  64) = (  0.4444443  0.8888891  0.1879189  )
        65           N   tau(  65) = (  0.4444443  0.8888891  0.6879189  )
        66           N   tau(  66) = (  0.7777777  0.2222224  0.1879189  )
        67           N   tau(  67) = (  0.7777777  0.2222224  0.6879189  )
        68           N   tau(  68) = (  0.7777777  0.5555557  0.1879189  )
        69           N   tau(  69) = (  0.7777777  0.5555557  0.6879189  )
        70           N   tau(  70) = (  0.7777777  0.8888891  0.1879189  )
        71           N   tau(  71) = (  0.7777777  0.8888891  0.6879189  )

     number of k points=     4  Gaussian smearing, width (Ry)=  0.0100
                       cart. coord. in units 2pi/alat
        k(    1) = (   0.0000000   0.0000000   0.0000000), wk =   0.2500000
        k(    2) = (   0.0000000   0.0000000  -0.4601568), wk =   0.2500000
        k(    3) = (   0.0000000  -0.5773503   0.0000000), wk =   0.7500000
        k(    4) = (   0.0000000  -0.5773503  -0.4601568), wk =   0.7500000

                       cryst. coord.
        k(    1) = (   0.0000000   0.0000000   0.0000000), wk =   0.2500000
        k(    2) = (   0.0000000   0.0000000  -0.5000000), wk =   0.2500000
        k(    3) = (   0.0000000  -0.5000000   0.0000000), wk =   0.7500000
        k(    4) = (   0.0000000  -0.5000000  -0.5000000), wk =   0.7500000

     Dense  grid:   647327 G-vectors     FFT dimensions: ( 120, 120, 120)

     Smooth grid:   463355 G-vectors     FFT dimensions: ( 108, 108, 108)

     Dynamical RAM for                 wfc:      10.54 MB

     Dynamical RAM for     wfc (w. buffer):      10.54 MB

     Dynamical RAM for           str. fact:       0.62 MB

     Dynamical RAM for           local pot:       0.00 MB

     Dynamical RAM for          nlocal pot:      25.34 MB

     Dynamical RAM for                qrad:       3.00 MB

     Dynamical RAM for          rho,v,vnew:       2.24 MB

     Dynamical RAM for               rhoin:       0.75 MB

     Dynamical RAM for            rho*nmix:       4.94 MB

     Dynamical RAM for           G-vectors:       1.27 MB

     Dynamical RAM for          h,s,v(r/c):     106.88 MB

     Dynamical RAM for          <psi|beta>:       5.35 MB

     Dynamical RAM for                 psi:      42.18 MB

     Dynamical RAM for                hpsi:      42.18 MB

     Dynamical RAM for                spsi:      42.18 MB

     Dynamical RAM for      wfcinit/wfcrot:      24.43 MB

     Dynamical RAM for           addusdens:      17.37 MB

     Dynamical RAM for          addusforce:      22.83 MB

     Dynamical RAM for         addusstress:      15.63 MB

     Estimated static dynamical RAM per process >      46.89 MB

     Estimated max dynamical RAM per process >     290.59 MB

     Estimated total dynamical RAM >      35.86 GB

     Atomic positions and unit cell read from directory:
     ./GaN.save/
     Atomic positions from file used, from input discarded
 

     Check: negative core charge=   -0.000003

     The initial density is read from file :
     ./GaN.save/charge-density



     %%%%%%%%%%%%%%%%%%%%%%%%%%%%%%%%%%%%%%%%%%%%%%%%%%%%%%%%%%%%%%%%%%%%%%%%
     %                                                                      %
     % You are using vdW-DF, which was implemented by the Thonhauser group. %
     % Please cite the following two papers that made this development      %
     % possible and the two reviews that describe the various versions:     %
     %                                                                      %
     %   T. Thonhauser et al., PRL 115, 136402 (2015).                      %
     %   T. Thonhauser et al., PRB 76, 125112 (2007).                       %
     %   K. Berland et al., Rep. Prog. Phys. 78, 066501 (2015).             %
     %   D.C. Langreth et al., J. Phys.: Condens. Matter 21, 084203 (2009). %
     %                                                                      %
     % If you are calculating stress with vdW-DF, please also cite:         %
     %                                                                      %
     %   R. Sabatini et al., J. Phys.: Condens. Matter 24, 424209 (2012).   %
     %                                                                      %
     %%%%%%%%%%%%%%%%%%%%%%%%%%%%%%%%%%%%%%%%%%%%%%%%%%%%%%%%%%%%%%%%%%%%%%%%

     %%%%%%%%%%%%%%%%%%%%%%%%%%%%%%%%%%%%%%%%%%%%%%%%%%%%%%%%%%%%%%%%%%%%%%%%
     %                                                                      %
     %  vdW-DF NEWS:                                                        %
     %                                                                      %
     %  * vdW-DF3 is now available. DOI: 10.1021/acs.jctc.0c00471           %
     %    use with input_dft = 'vdW-DF3-opt1' or 'vdW-DF3-opt2'             %
     %                                                                      %
     %  * Unscreened and range-separated vdW-DF hybrid functionals          %
     %    DOI: 10.1063/1.4986522 and 10.1088/1361-648X/ac2ad2               %
     %    use with input_dft = 'vdW-DF-cx0' (etc) and 'vdW-DF-ahcx'         %
     %                                                                      %
     %%%%%%%%%%%%%%%%%%%%%%%%%%%%%%%%%%%%%%%%%%%%%%%%%%%%%%%%%%%%%%%%%%%%%%%%


     Carrying out vdW-DF run using the following parameters:
     Nqs    =  20  Npoints =  1024  r_max =  100.000
     q_mesh =  0.00001000  0.04494208  0.09755937  0.15916263
               0.23128650  0.31572767  0.41458969  0.53033537
               0.66584808  0.82450364  1.01025438  1.22772762
               1.48234092  1.78043706  2.12944203  2.53805004
               3.01644009  3.57652955  4.23227104  5.00000000


     -----------------------------------------------
     Non-local corr. energy    =      19.17392444 Ry
     -----------------------------------------------

     Starting wfcs from file
     Checking if some PAW data can be deallocated... 
       PAW data deallocated on   58 nodes for type:  1
       PAW data deallocated on   70 nodes for type:  2

     total cpu time spent up to now is        4.8 secs

     Self-consistent Calculation

     iteration #  1     ecut=    70.00 Ry     beta= 0.70
     Davidson diagonalization with overlap

---- Real-time Memory Report at c_bands before calling an iterative solver
           197 MiB given to the printing process from OS
             0 MiB allocation reported by mallinfo(arena+hblkhd)
       1914975 MiB available memory on the node where the printing process lives
------------------
     ethr =  1.00E-05,  avg # of iterations =  1.0

     Threshold (ethr) on eigenvalues was too large:
     Diagonalizing with lowered threshold

     Davidson diagonalization with overlap

---- Real-time Memory Report at c_bands before calling an iterative solver
           348 MiB given to the printing process from OS
             0 MiB allocation reported by mallinfo(arena+hblkhd)
       1908769 MiB available memory on the node where the printing process lives
------------------
     ethr =  2.09E-11,  avg # of iterations = 13.0


     -----------------------------------------------
     Non-local corr. energy    =      19.17394513 Ry
     -----------------------------------------------


     total cpu time spent up to now is       34.8 secs

     total energy              =  -10958.60715654 Ry
     estimated scf accuracy    <       0.00000015 Ry

     iteration #  2     ecut=    70.00 Ry     beta= 0.70
     Davidson diagonalization with overlap

---- Real-time Memory Report at c_bands before calling an iterative solver
           370 MiB given to the printing process from OS
             0 MiB allocation reported by mallinfo(arena+hblkhd)
       1908525 MiB available memory on the node where the printing process lives
------------------
     ethr =  2.34E-11,  avg # of iterations = 14.0


     -----------------------------------------------
     Non-local corr. energy    =      19.17394282 Ry
     -----------------------------------------------


     total cpu time spent up to now is       66.8 secs

     total energy              =  -10958.60715628 Ry
     estimated scf accuracy    <       0.00000375 Ry

     iteration #  3     ecut=    70.00 Ry     beta= 0.70
     Davidson diagonalization with overlap

---- Real-time Memory Report at c_bands before calling an iterative solver
           430 MiB given to the printing process from OS
             0 MiB allocation reported by mallinfo(arena+hblkhd)
       1908396 MiB available memory on the node where the printing process lives
------------------
     ethr =  2.34E-11,  avg # of iterations = 13.5


     -----------------------------------------------
     Non-local corr. energy    =      19.17394266 Ry
     -----------------------------------------------


     total cpu time spent up to now is       97.5 secs

     total energy              =  -10958.60715659 Ry
     estimated scf accuracy    <       0.00000141 Ry

     iteration #  4     ecut=    70.00 Ry     beta= 0.70
     Davidson diagonalization with overlap

---- Real-time Memory Report at c_bands before calling an iterative solver
           430 MiB given to the printing process from OS
             0 MiB allocation reported by mallinfo(arena+hblkhd)
       1908365 MiB available memory on the node where the printing process lives
------------------
     ethr =  2.34E-11,  avg # of iterations = 11.5


     -----------------------------------------------
     Non-local corr. energy    =      19.17394530 Ry
     -----------------------------------------------


     total cpu time spent up to now is      119.0 secs

     End of self-consistent calculation

          k = 0.0000 0.0000 0.0000 ( 57971 PWs)   bands (ev):

    -7.1822  -6.8494  -6.8350  -6.7999  -6.7999  -6.7967  -6.7733  -6.7733
    -6.7462  -6.7288  -6.7000  -6.7000  -6.6968  -6.6915  -6.6908  -6.6908
    -6.6831  -6.6831  -6.6799  -6.6785  -6.6784  -6.6767  -6.6736  -6.6724
    -6.6724  -6.6655  -6.6530  -6.6530  -6.6466  -6.6406  -6.6348  -6.6348
    -6.5125  -6.4889  -6.4889  -6.4356  -5.6085  -5.5976  -5.5976  -5.5906
    -5.5906  -5.5795  -5.5795  -5.5730  -5.5730  -5.5679  -5.5626  -5.5625
    -5.5600  -5.5531  -5.5531  -5.5527  -5.5527  -5.5479  -5.5479  -5.5441
    -5.5434  -5.5387  -5.5387  -5.5384  -5.5338  -5.5338  -5.5221  -5.5221
    -5.5213  -5.5205  -5.5080  -5.5075  -5.5075  -5.5048  -5.5048  -5.5008
    -5.5008  -5.4978  -5.4948  -5.4948  -5.4902  -5.4863  -5.4863  -5.4837
    -5.4837  -5.4812  -5.4752  -5.4752  -5.4711  -5.4700  -5.4700  -5.4628
    -5.4625  -5.4544  -5.4544  -5.4484  -5.4467  -5.4459  -5.4459  -5.4449
    -5.4449  -5.4369  -5.4369  -5.4343  -5.4329  -5.4329  -5.4298  -5.4284
    -5.4252  -5.4252  -5.4209  -5.4195  -5.4195  -5.4150  -5.4096  -5.4096
    -5.4090  -5.4090  -5.4086  -5.4073  -5.4073  -5.4067  -5.4044  -5.4044
    -5.3967  -5.3967  -5.3964  -5.3927  -5.3927  -5.3909  -5.3884  -5.3868
    -5.3868  -5.3807  -5.3807  -5.3787  -5.3786  -5.3786  -5.3754  -5.3754
    -5.3698  -5.3697  -5.3697  -5.3666  -5.3636  -5.3636  -5.3579  -5.3576
    -5.3576  -5.3561  -5.3561  -5.3546  -5.3450  -5.3450  -5.3443  -5.3436
    -5.3436  -5.3409  -5.3388  -5.3388  -5.3337  -5.3337  -5.3290  -5.3253
    -5.3253  -5.3226  -5.3164  -5.3164  -5.3098  -5.3085  -5.3085  -5.3046
    -5.3046  -5.2910  -5.2819  -5.2803  -5.2803  -5.2573  -5.2552  -5.2552
    -5.1165  -5.0858  -4.7736  -4.7736  -4.7662  -4.7320  -4.7320  -4.6142
    -4.2337  -4.2337  -4.2155  -4.2118  -4.1936  -4.1935  -4.1874  -4.1874
    -4.1473  -4.1473  -4.1360  -3.8588  -3.7658  -3.4104  -3.4005  -3.3971
    -3.3971  -3.3815  -3.3677  -3.3677  -3.3123  -3.3007  -3.3007  -3.2287
    -3.2223  -3.2223  -3.1540   1.8002   2.4522   2.4978   2.4978   2.5564
     2.6458   2.6558   2.6559   2.6619   2.6620   2.8987   3.0980   3.0994
     3.1077   3.1077   3.1163   3.1164   3.1429   3.1470   3.1471   3.1602
     3.1997   3.1998   3.2145   3.2454   3.2454   3.6126   3.6126   3.8150
     3.8650   3.8650   3.9778   3.9778   4.0488   4.4107   4.5484   4.5484
     4.6101   4.6102   4.6171   4.6244   4.6245   4.6913   4.7706   4.8536
     4.8537   5.6345   5.6976   5.6976   5.7634   5.9402   5.9402   6.1511
     6.1793   6.1793   6.2130   6.2491   6.3229   6.3229   6.4302   6.4302
     6.4357   6.4429   6.4429   6.4584   6.4711   6.4711   6.5287   6.5287
     6.7804   6.8388   6.8766   6.8766   6.8812   6.8876   6.8876   6.8910
     6.8910   6.9087   6.9947   7.0110   7.0259   7.0322   7.0322   7.1715
     7.1715   7.2072   7.2391   7.2392   7.3977   7.3977   7.4828   7.5424
     7.5425   7.6914   7.7040   7.7040   7.7850   7.8374   7.8374   7.9365
     7.9367   8.1242   8.3223   8.3224   8.5638   8.6832   8.6832  10.0881
    12.3339  12.3644  12.5806  13.0420  13.0420  13.0559  13.1129  13.1212
    13.1213  13.1925  13.2192  13.2192  13.2657  13.2657  13.2861  13.2861
    13.2997  13.4201  13.4708  13.4708  13.6486  13.9798  13.9799  14.0137
    14.0543  14.0543  14.2811  14.2812  14.5840  14.5969  14.7230  14.7230
    15.0351  15.1832  15.2205  15.2205  15.3766  15.4233  15.4233  15.7225
    15.7225  15.7650  15.8120  15.8820  15.8820  15.9144  15.9145  15.9434
    15.9615  15.9616  15.9753  16.0131  16.0131  16.0473  16.0474  16.2045
    16.2576  16.2576  16.4956  16.6349  16.6349  16.6823

     occupation numbers 
     1.0000   1.0000   1.0000   1.0000   1.0000   1.0000   1.0000   1.0000
     1.0000   1.0000   1.0000   1.0000   1.0000   1.0000   1.0000   1.0000
     1.0000   1.0000   1.0000   1.0000   1.0000   1.0000   1.0000   1.0000
     1.0000   1.0000   1.0000   1.0000   1.0000   1.0000   1.0000   1.0000
     1.0000   1.0000   1.0000   1.0000   1.0000   1.0000   1.0000   1.0000
     1.0000   1.0000   1.0000   1.0000   1.0000   1.0000   1.0000   1.0000
     1.0000   1.0000   1.0000   1.0000   1.0000   1.0000   1.0000   1.0000
     1.0000   1.0000   1.0000   1.0000   1.0000   1.0000   1.0000   1.0000
     1.0000   1.0000   1.0000   1.0000   1.0000   1.0000   1.0000   1.0000
     1.0000   1.0000   1.0000   1.0000   1.0000   1.0000   1.0000   1.0000
     1.0000   1.0000   1.0000   1.0000   1.0000   1.0000   1.0000   1.0000
     1.0000   1.0000   1.0000   1.0000   1.0000   1.0000   1.0000   1.0000
     1.0000   1.0000   1.0000   1.0000   1.0000   1.0000   1.0000   1.0000
     1.0000   1.0000   1.0000   1.0000   1.0000   1.0000   1.0000   1.0000
     1.0000   1.0000   1.0000   1.0000   1.0000   1.0000   1.0000   1.0000
     1.0000   1.0000   1.0000   1.0000   1.0000   1.0000   1.0000   1.0000
     1.0000   1.0000   1.0000   1.0000   1.0000   1.0000   1.0000   1.0000
     1.0000   1.0000   1.0000   1.0000   1.0000   1.0000   1.0000   1.0000
     1.0000   1.0000   1.0000   1.0000   1.0000   1.0000   1.0000   1.0000
     1.0000   1.0000   1.0000   1.0000   1.0000   1.0000   1.0000   1.0000
     1.0000   1.0000   1.0000   1.0000   1.0000   1.0000   1.0000   1.0000
     1.0000   1.0000   1.0000   1.0000   1.0000   1.0000   1.0000   1.0000
     1.0000   1.0000   1.0000   1.0000   1.0000   1.0000   1.0000   1.0000
     1.0000   1.0000   1.0000   1.0000   1.0000   1.0000   1.0000   1.0000
     1.0000   1.0000   1.0000   1.0000   1.0000   1.0000   1.0000   1.0000
     1.0000   1.0000   1.0000   1.0000   1.0000   1.0000   1.0000   1.0000
     1.0000   1.0000   1.0000   1.0000   1.0000   1.0000   1.0000   1.0000
     1.0000   1.0000   1.0000   1.0000   1.0000   1.0000   1.0000   1.0000
     1.0000   1.0000   1.0000   1.0000   1.0000   1.0000   1.0000   1.0000
     1.0000   1.0000   1.0000   1.0000   1.0000   1.0000   1.0000   1.0000
     1.0000   1.0000   1.0000   1.0000   1.0000   1.0000   1.0000   1.0000
     1.0000   1.0000   1.0000   1.0000   1.0000   1.0000   1.0000   1.0000
     1.0000   1.0000   1.0000   1.0000   1.0000   1.0000   1.0000   1.0000
     1.0000   1.0000   1.0000   1.0000   1.0000   1.0000   1.0000   1.0000
     1.0000   1.0000   1.0000   1.0000   1.0000   1.0000   1.0000   1.0000
     1.0000   1.0000   1.0000   1.0000   1.0000   1.0000   1.0000   1.0000
     1.0000   1.0000   1.0000   1.0000   1.0000   1.0000   1.0000   1.0000
     1.0000   1.0000   1.0000   1.0000   1.0000   1.0000   1.0000   1.0000
     1.0000   1.0000   1.0000   1.0000   1.0000   1.0000   1.0000   1.0000
     1.0000   1.0000   0.9907   0.9907   0.4374   0.0809   0.0808   0.0000
     0.0000   0.0000   0.0000   0.0000   0.0000   0.0000   0.0000   0.0000
     0.0000   0.0000   0.0000   0.0000   0.0000   0.0000   0.0000   0.0000
     0.0000   0.0000   0.0000   0.0000   0.0000   0.0000   0.0000   0.0000
     0.0000   0.0000   0.0000   0.0000   0.0000   0.0000   0.0000   0.0000
     0.0000   0.0000   0.0000   0.0000   0.0000   0.0000   0.0000   0.0000
     0.0000   0.0000   0.0000   0.0000   0.0000   0.0000   0.0000   0.0000
     0.0000   0.0000   0.0000   0.0000   0.0000   0.0000   0.0000   0.0000
     0.0000   0.0000   0.0000   0.0000   0.0000   0.0000

          k = 0.0000 0.0000-0.4602 ( 58014 PWs)   bands (ev):

    -7.0752  -7.0390  -6.7627  -6.7627  -6.7611  -6.7580  -6.7545  -6.7498
    -6.7497  -6.7440  -6.7440  -6.7344  -6.7222  -6.7174  -6.7174  -6.6945
    -6.6830  -6.6806  -6.6806  -6.6742  -6.6742  -6.6718  -6.6718  -6.6704
    -6.6664  -6.6620  -6.6513  -6.6504  -6.6504  -6.6494  -6.6352  -6.6352
    -6.5152  -6.4906  -6.4906  -6.4346  -5.5959  -5.5959  -5.5842  -5.5842
    -5.5750  -5.5697  -5.5697  -5.5681  -5.5679  -5.5679  -5.5641  -5.5640
    -5.5586  -5.5586  -5.5573  -5.5573  -5.5573  -5.5521  -5.5521  -5.5441
    -5.5416  -5.5416  -5.5356  -5.5356  -5.5331  -5.5284  -5.5284  -5.5211
    -5.5211  -5.5190  -5.5161  -5.5111  -5.5111  -5.5098  -5.5044  -5.4985
    -5.4985  -5.4969  -5.4967  -5.4947  -5.4947  -5.4941  -5.4877  -5.4877
    -5.4801  -5.4801  -5.4792  -5.4739  -5.4733  -5.4706  -5.4664  -5.4664
    -5.4571  -5.4571  -5.4535  -5.4497  -5.4497  -5.4491  -5.4491  -5.4488
    -5.4436  -5.4436  -5.4374  -5.4374  -5.4335  -5.4329  -5.4329  -5.4309
    -5.4309  -5.4306  -5.4258  -5.4258  -5.4229  -5.4222  -5.4182  -5.4182
    -5.4152  -5.4115  -5.4115  -5.4096  -5.4048  -5.4048  -5.4011  -5.3979
    -5.3979  -5.3954  -5.3937  -5.3937  -5.3884  -5.3884  -5.3861  -5.3861
    -5.3829  -5.3814  -5.3797  -5.3797  -5.3761  -5.3761  -5.3752  -5.3727
    -5.3727  -5.3676  -5.3667  -5.3667  -5.3667  -5.3618  -5.3618  -5.3590
    -5.3590  -5.3573  -5.3561  -5.3561  -5.3483  -5.3476  -5.3470  -5.3470
    -5.3422  -5.3422  -5.3402  -5.3401  -5.3401  -5.3351  -5.3351  -5.3291
    -5.3259  -5.3259  -5.3183  -5.3183  -5.3163  -5.3090  -5.3064  -5.3064
    -5.3046  -5.3046  -5.2912  -5.2826  -5.2826  -5.2819  -5.2589  -5.2558
    -5.2558  -4.6584  -4.6584  -4.6402  -4.6288  -4.6226  -4.6226  -4.6159
    -4.6159  -4.5993  -4.5686  -4.5685  -4.4274  -4.3153  -4.1706  -3.6323
    -3.6320  -3.6320  -3.6167  -3.6007  -3.6007  -3.5976  -3.5976  -3.5624
    -3.5624  -3.5210  -3.4578  -3.4002  -3.3963  -3.3963  -3.3819  -3.3497
    -3.3194  -3.3194  -3.1587   2.6525   2.6592   2.6675   2.6675   2.6703
     2.6767   2.6767   2.6776   2.6859   2.6859   2.7315   2.7392   2.7466
     2.7466   2.7734   2.7819   2.7894   2.7894   2.8463   2.8467   2.8467
     3.5800   3.8068   3.8068   3.8233   3.8234   3.8279   3.8350   3.8351
     3.8534   3.8609   3.8609   3.9111   3.9111   3.9260   4.1513   4.1514
     4.7709   4.9379   4.9379   4.9500   4.9664   4.9664   4.9767   4.9767
     4.9818   5.0898   5.0898   5.4333   5.4454   5.4454   5.6068   5.6068
     6.2163   6.2758   6.3235   6.3235   6.3521   6.3675   6.3675   6.3692
     6.3763   6.3798   6.3798   6.4013   6.4013   6.4059   6.4475   6.4475
     6.5027   6.6624   6.7579   6.7580   6.7786   6.9081   7.2396   7.2881
     7.2881   7.3074   7.3130   7.3130   7.3146   7.3232   7.3232   7.3793
     7.3793   7.4167   7.4407   7.4407   7.4488   7.4505   7.4561   7.4561
     7.4617   7.4921   7.4922   7.5589   7.5590   7.5865   7.5866   7.5904
     8.0871   8.0871   8.2932   8.2932   8.3784   8.6666   8.6666  11.2318
    11.3552  12.4563  12.5978  12.6927  12.7086  12.7086  12.7298  12.7298
    12.7706  12.7706  12.7997  12.8572  12.9707  12.9707  13.2710  14.0096
    14.0238  14.0258  14.0259  14.0349  14.0350  14.0635  14.0636  14.0742
    14.3977  14.3978  14.6550  14.6550  14.7874  14.7874  14.8820  15.2211
    15.2242  15.2452  15.2452  15.2905  15.2905  15.3249  15.3531  15.4184
    15.5010  15.5010  15.5160  15.5160  15.5390  15.5517  15.5517  15.6440
    15.7271  15.7271  16.0216  16.2907  16.3194  16.3194  16.3567  16.3567
    16.3570  16.3661  16.3661  16.6348  16.6348  16.6570

     occupation numbers 
     1.0000   1.0000   1.0000   1.0000   1.0000   1.0000   1.0000   1.0000
     1.0000   1.0000   1.0000   1.0000   1.0000   1.0000   1.0000   1.0000
     1.0000   1.0000   1.0000   1.0000   1.0000   1.0000   1.0000   1.0000
     1.0000   1.0000   1.0000   1.0000   1.0000   1.0000   1.0000   1.0000
     1.0000   1.0000   1.0000   1.0000   1.0000   1.0000   1.0000   1.0000
     1.0000   1.0000   1.0000   1.0000   1.0000   1.0000   1.0000   1.0000
     1.0000   1.0000   1.0000   1.0000   1.0000   1.0000   1.0000   1.0000
     1.0000   1.0000   1.0000   1.0000   1.0000   1.0000   1.0000   1.0000
     1.0000   1.0000   1.0000   1.0000   1.0000   1.0000   1.0000   1.0000
     1.0000   1.0000   1.0000   1.0000   1.0000   1.0000   1.0000   1.0000
     1.0000   1.0000   1.0000   1.0000   1.0000   1.0000   1.0000   1.0000
     1.0000   1.0000   1.0000   1.0000   1.0000   1.0000   1.0000   1.0000
     1.0000   1.0000   1.0000   1.0000   1.0000   1.0000   1.0000   1.0000
     1.0000   1.0000   1.0000   1.0000   1.0000   1.0000   1.0000   1.0000
     1.0000   1.0000   1.0000   1.0000   1.0000   1.0000   1.0000   1.0000
     1.0000   1.0000   1.0000   1.0000   1.0000   1.0000   1.0000   1.0000
     1.0000   1.0000   1.0000   1.0000   1.0000   1.0000   1.0000   1.0000
     1.0000   1.0000   1.0000   1.0000   1.0000   1.0000   1.0000   1.0000
     1.0000   1.0000   1.0000   1.0000   1.0000   1.0000   1.0000   1.0000
     1.0000   1.0000   1.0000   1.0000   1.0000   1.0000   1.0000   1.0000
     1.0000   1.0000   1.0000   1.0000   1.0000   1.0000   1.0000   1.0000
     1.0000   1.0000   1.0000   1.0000   1.0000   1.0000   1.0000   1.0000
     1.0000   1.0000   1.0000   1.0000   1.0000   1.0000   1.0000   1.0000
     1.0000   1.0000   1.0000   1.0000   1.0000   1.0000   1.0000   1.0000
     1.0000   1.0000   1.0000   1.0000   1.0000   1.0000   1.0000   1.0000
     1.0000   1.0000   1.0000   1.0000   1.0000   1.0000   1.0000   1.0000
     1.0000   1.0000   1.0000   1.0000   1.0000   1.0000   1.0000   1.0000
     1.0000   1.0000   1.0000   1.0000   1.0000   1.0000   1.0000   1.0000
     1.0000   1.0000   1.0000   1.0000   1.0000   1.0000   1.0000   1.0000
     1.0000   1.0000   1.0000   1.0000   1.0000   1.0000   1.0000   1.0000
     1.0000   1.0000   1.0000   1.0000   1.0000   1.0000   1.0000   1.0000
     1.0000   1.0000   1.0000   1.0000   1.0000   1.0000   1.0000   1.0000
     1.0000   1.0000   1.0000   1.0000   1.0000   1.0000   1.0000   1.0000
     1.0000   1.0000   1.0000   1.0000   1.0000   1.0000   1.0000   1.0000
     1.0000   1.0000   1.0000   1.0000   1.0000   1.0000   1.0000   1.0000
     1.0000   1.0000   1.0000   1.0000   1.0000   1.0000   1.0000   1.0000
     1.0000   1.0000   1.0000   1.0000   1.0000   1.0000   1.0000   1.0000
     1.0000   1.0000   1.0000   1.0000   1.0000   1.0000   1.0000   1.0000
     1.0000   1.0000   1.0000   1.0000   1.0000   1.0000   1.0000   1.0000
     1.0000   1.0000   0.9960   0.9960   0.9615   0.1101   0.1100   0.0000
     0.0000   0.0000   0.0000   0.0000   0.0000   0.0000   0.0000   0.0000
     0.0000   0.0000   0.0000   0.0000   0.0000   0.0000   0.0000   0.0000
     0.0000   0.0000   0.0000   0.0000   0.0000   0.0000   0.0000   0.0000
     0.0000   0.0000   0.0000   0.0000   0.0000   0.0000   0.0000   0.0000
     0.0000   0.0000   0.0000   0.0000   0.0000   0.0000   0.0000   0.0000
     0.0000   0.0000   0.0000   0.0000   0.0000   0.0000   0.0000   0.0000
     0.0000   0.0000   0.0000   0.0000   0.0000   0.0000   0.0000   0.0000
     0.0000   0.0000   0.0000   0.0000   0.0000   0.0000

          k = 0.0000-0.5774 0.0000 ( 57942 PWs)   bands (ev):

    -7.0312  -6.9899  -6.8265  -6.8132  -6.7796  -6.7727  -6.7667  -6.7470
    -6.7330  -6.7279  -6.7160  -6.7155  -6.7123  -6.7105  -6.7005  -6.6969
    -6.6910  -6.6906  -6.6806  -6.6796  -6.6768  -6.6733  -6.6706  -6.6658
    -6.6644  -6.6547  -6.6524  -6.6516  -6.6494  -6.6474  -6.6375  -6.6370
    -6.5110  -6.4928  -6.4891  -6.4368  -5.5923  -5.5854  -5.5809  -5.5801
    -5.5731  -5.5718  -5.5685  -5.5666  -5.5636  -5.5603  -5.5587  -5.5573
    -5.5544  -5.5528  -5.5523  -5.5477  -5.5461  -5.5431  -5.5419  -5.5405
    -5.5372  -5.5363  -5.5333  -5.5329  -5.5319  -5.5290  -5.5290  -5.5261
    -5.5245  -5.5221  -5.5172  -5.5139  -5.5137  -5.5130  -5.5115  -5.5065
    -5.5063  -5.5046  -5.5020  -5.5013  -5.4992  -5.4960  -5.4931  -5.4921
    -5.4903  -5.4866  -5.4838  -5.4830  -5.4797  -5.4758  -5.4752  -5.4707
    -5.4675  -5.4647  -5.4609  -5.4608  -5.4559  -5.4514  -5.4502  -5.4464
    -5.4452  -5.4441  -5.4434  -5.4406  -5.4398  -5.4350  -5.4343  -5.4332
    -5.4306  -5.4276  -5.4259  -5.4245  -5.4218  -5.4196  -5.4159  -5.4146
    -5.4141  -5.4127  -5.4095  -5.4085  -5.4081  -5.4069  -5.4049  -5.4024
    -5.4016  -5.3985  -5.3983  -5.3976  -5.3957  -5.3942  -5.3902  -5.3879
    -5.3870  -5.3838  -5.3828  -5.3788  -5.3773  -5.3760  -5.3742  -5.3733
    -5.3683  -5.3673  -5.3647  -5.3639  -5.3623  -5.3613  -5.3568  -5.3554
    -5.3523  -5.3506  -5.3495  -5.3474  -5.3464  -5.3433  -5.3417  -5.3406
    -5.3382  -5.3365  -5.3356  -5.3348  -5.3319  -5.3310  -5.3286  -5.3278
    -5.3243  -5.3231  -5.3206  -5.3129  -5.3113  -5.3087  -5.3065  -5.3012
    -5.3011  -5.2970  -5.2932  -5.2857  -5.2801  -5.2782  -5.2613  -5.2612
    -5.2516  -4.9838  -4.9733  -4.8875  -4.8671  -4.8482  -4.7571  -4.4106
    -4.3823  -4.3787  -4.3110  -4.0814  -4.0649  -4.0524  -3.9885  -3.8995
    -3.7189  -3.7172  -3.7040  -3.6898  -3.6886  -3.6863  -3.6804  -3.6699
    -3.6397  -3.6004  -3.5821  -3.4535  -3.3552  -3.3175  -3.2738  -3.2055
    -3.1524  -3.1421  -3.1297   2.0724   2.1240   2.1479   2.1997   2.2773
     2.4858   2.4930   2.5033   2.5091   2.5297   2.5540   2.5809   2.5851
     2.6084   2.6176   2.6191   2.6846   2.6932   3.1925   3.3749   3.5012
     3.5392   3.5688   3.6459   3.7128   3.7331   3.7940   4.2608   4.4634
     4.4648   4.4723   4.4888   4.5053   4.5154   4.5310   4.5925   4.7345
     4.7406   4.8945   4.8992   5.0428   5.0648   5.0891   5.1784   5.4620
     5.5706   5.5745   5.5764   5.5914   5.5973   5.6903   5.7359   5.7821
     5.8995   5.9618   6.1239   6.1871   6.3701   6.3933   6.4549   6.4624
     6.4730   6.5368   6.5440   6.5682   6.5771   6.5912   6.6227   6.6289
     6.6860   6.6877   6.6895   6.7015   6.7221   6.7413   6.7465   6.7654
     6.7727   6.8089   6.8189   6.8202   6.8265   6.8353   6.8396   6.8496
     6.8533   6.8745   6.9295   6.9438   6.9724   6.9999   7.1860   7.3378
     7.4651   7.4792   7.4956   7.5485   7.5528   7.5852   7.6447   7.7963
     7.9098   8.0513   8.0743   8.2028   8.2383   8.5388   8.6365  11.5578
    11.6857  12.8692  12.9117  13.0393  13.0920  13.2619  13.2669  13.3020
    13.4008  13.5836  13.6435  13.7022  13.7600  13.7663  13.7784  13.7869
    13.8245  13.8658  13.8702  13.9047  13.9519  14.0124  14.0246  14.0791
    14.2271  14.4155  14.4291  14.4684  14.5261  14.5331  14.6142  14.7364
    14.7808  14.8518  14.9796  14.9824  15.1078  15.1432  15.2660  15.3653
    15.8205  15.8490  15.8718  15.8884  15.9432  15.9591  15.9717  16.0203
    16.0807  16.0845  16.1034  16.1330  16.1742  16.1774  16.2270  16.2383
    16.3156  16.3503  16.4126  16.4152  16.4434  16.4513

     occupation numbers 
     1.0000   1.0000   1.0000   1.0000   1.0000   1.0000   1.0000   1.0000
     1.0000   1.0000   1.0000   1.0000   1.0000   1.0000   1.0000   1.0000
     1.0000   1.0000   1.0000   1.0000   1.0000   1.0000   1.0000   1.0000
     1.0000   1.0000   1.0000   1.0000   1.0000   1.0000   1.0000   1.0000
     1.0000   1.0000   1.0000   1.0000   1.0000   1.0000   1.0000   1.0000
     1.0000   1.0000   1.0000   1.0000   1.0000   1.0000   1.0000   1.0000
     1.0000   1.0000   1.0000   1.0000   1.0000   1.0000   1.0000   1.0000
     1.0000   1.0000   1.0000   1.0000   1.0000   1.0000   1.0000   1.0000
     1.0000   1.0000   1.0000   1.0000   1.0000   1.0000   1.0000   1.0000
     1.0000   1.0000   1.0000   1.0000   1.0000   1.0000   1.0000   1.0000
     1.0000   1.0000   1.0000   1.0000   1.0000   1.0000   1.0000   1.0000
     1.0000   1.0000   1.0000   1.0000   1.0000   1.0000   1.0000   1.0000
     1.0000   1.0000   1.0000   1.0000   1.0000   1.0000   1.0000   1.0000
     1.0000   1.0000   1.0000   1.0000   1.0000   1.0000   1.0000   1.0000
     1.0000   1.0000   1.0000   1.0000   1.0000   1.0000   1.0000   1.0000
     1.0000   1.0000   1.0000   1.0000   1.0000   1.0000   1.0000   1.0000
     1.0000   1.0000   1.0000   1.0000   1.0000   1.0000   1.0000   1.0000
     1.0000   1.0000   1.0000   1.0000   1.0000   1.0000   1.0000   1.0000
     1.0000   1.0000   1.0000   1.0000   1.0000   1.0000   1.0000   1.0000
     1.0000   1.0000   1.0000   1.0000   1.0000   1.0000   1.0000   1.0000
     1.0000   1.0000   1.0000   1.0000   1.0000   1.0000   1.0000   1.0000
     1.0000   1.0000   1.0000   1.0000   1.0000   1.0000   1.0000   1.0000
     1.0000   1.0000   1.0000   1.0000   1.0000   1.0000   1.0000   1.0000
     1.0000   1.0000   1.0000   1.0000   1.0000   1.0000   1.0000   1.0000
     1.0000   1.0000   1.0000   1.0000   1.0000   1.0000   1.0000   1.0000
     1.0000   1.0000   1.0000   1.0000   1.0000   1.0000   1.0000   1.0000
     1.0000   1.0000   1.0000   1.0000   1.0000   1.0000   1.0000   1.0000
     1.0000   1.0000   1.0000   1.0000   1.0000   1.0000   1.0000   1.0000
     1.0000   1.0000   1.0000   1.0000   1.0000   1.0000   1.0000   1.0000
     1.0000   1.0000   1.0000   1.0000   1.0000   1.0000   1.0000   1.0000
     1.0000   1.0000   1.0000   1.0000   1.0000   1.0000   1.0000   1.0000
     1.0000   1.0000   1.0000   1.0000   1.0000   1.0000   1.0000   1.0000
     1.0000   1.0000   1.0000   1.0000   1.0000   1.0000   1.0000   1.0000
     1.0000   1.0000   1.0000   1.0000   1.0000   1.0000   1.0000   1.0000
     1.0000   1.0000   1.0000   1.0000   1.0000   1.0000   1.0000   1.0000
     1.0000   1.0000   1.0000   1.0000   1.0000   1.0000   1.0000   1.0000
     1.0000   1.0000   1.0000   1.0000   1.0000   1.0000   1.0000   1.0000
     1.0000   1.0000   1.0000   1.0000   1.0000   1.0000   1.0000   1.0000
     1.0000   1.0000   1.0000   1.0000   1.0000   1.0000   1.0000   1.0000
     1.0000   1.0000   1.0000   0.9998   0.9994   0.5407   0.1805   0.0000
     0.0000   0.0000   0.0000   0.0000   0.0000   0.0000   0.0000   0.0000
     0.0000   0.0000   0.0000   0.0000   0.0000   0.0000   0.0000   0.0000
     0.0000   0.0000   0.0000   0.0000   0.0000   0.0000   0.0000   0.0000
     0.0000   0.0000   0.0000   0.0000   0.0000   0.0000   0.0000   0.0000
     0.0000   0.0000   0.0000   0.0000   0.0000   0.0000   0.0000   0.0000
     0.0000   0.0000   0.0000   0.0000   0.0000   0.0000   0.0000   0.0000
     0.0000   0.0000   0.0000   0.0000   0.0000   0.0000   0.0000   0.0000
     0.0000   0.0000   0.0000   0.0000   0.0000   0.0000

          k = 0.0000-0.5774-0.4602 ( 57848 PWs)   bands (ev):

    -6.9423  -6.9242  -6.9178  -6.8799  -6.7828  -6.7710  -6.7633  -6.7565
    -6.7219  -6.7166  -6.7129  -6.7093  -6.7076  -6.7048  -6.6991  -6.6983
    -6.6929  -6.6917  -6.6861  -6.6825  -6.6793  -6.6748  -6.6741  -6.6717
    -6.6655  -6.6651  -6.6605  -6.6506  -6.6498  -6.6476  -6.6361  -6.6353
    -6.5142  -6.4942  -6.4908  -6.4356  -5.5845  -5.5810  -5.5773  -5.5742
    -5.5730  -5.5705  -5.5640  -5.5612  -5.5592  -5.5552  -5.5547  -5.5537
    -5.5536  -5.5531  -5.5529  -5.5487  -5.5468  -5.5464  -5.5447  -5.5439
    -5.5418  -5.5396  -5.5373  -5.5357  -5.5344  -5.5301  -5.5288  -5.5269
    -5.5249  -5.5222  -5.5215  -5.5206  -5.5171  -5.5168  -5.5153  -5.5132
    -5.5094  -5.5055  -5.5047  -5.5031  -5.4991  -5.4950  -5.4937  -5.4926
    -5.4896  -5.4871  -5.4815  -5.4811  -5.4802  -5.4794  -5.4761  -5.4760
    -5.4742  -5.4727  -5.4698  -5.4646  -5.4599  -5.4532  -5.4475  -5.4430
    -5.4399  -5.4388  -5.4383  -5.4355  -5.4350  -5.4335  -5.4313  -5.4291
    -5.4282  -5.4261  -5.4252  -5.4229  -5.4208  -5.4174  -5.4173  -5.4153
    -5.4124  -5.4118  -5.4090  -5.4082  -5.4059  -5.4035  -5.4016  -5.4006
    -5.3975  -5.3948  -5.3934  -5.3923  -5.3906  -5.3887  -5.3882  -5.3866
    -5.3822  -5.3814  -5.3808  -5.3781  -5.3779  -5.3722  -5.3718  -5.3685
    -5.3672  -5.3659  -5.3635  -5.3601  -5.3561  -5.3551  -5.3532  -5.3523
    -5.3503  -5.3476  -5.3455  -5.3452  -5.3442  -5.3437  -5.3413  -5.3412
    -5.3394  -5.3387  -5.3367  -5.3342  -5.3318  -5.3282  -5.3239  -5.3233
    -5.3221  -5.3189  -5.3153  -5.3119  -5.3086  -5.3084  -5.3024  -5.3018
    -5.2987  -5.2945  -5.2888  -5.2836  -5.2800  -5.2757  -5.2707  -5.2627
    -5.2534  -5.2522  -5.2111  -4.8621  -4.8427  -4.8308  -4.7326  -4.1426
    -4.1199  -4.1126  -4.0715  -3.9958  -3.9785  -3.9752  -3.9700  -3.9651
    -3.9599  -3.9366  -3.8745  -3.8712  -3.8152  -3.7334  -3.7167  -3.6787
    -3.5055  -3.4475  -3.4331  -3.3718  -3.3577  -3.3521  -3.3458  -3.3367
    -3.2562  -3.2515  -3.1873   2.0119   2.0761   2.3785   2.3874   2.3962
     2.4035   2.4063   2.4209   2.4794   2.6167   2.7799   2.8387   2.8583
     2.8782   2.9058   2.9258   2.9590   2.9879   3.0211   3.0779   3.0791
     3.0904   3.1191   3.1258   3.1263   3.2415   3.2740   4.3057   4.5017
     4.5026   4.5693   4.7099   4.8812   4.8958   4.8987   4.9215   4.9288
     5.0352   5.0696   5.1488   5.2169   5.2548   5.3171   5.3201   5.3725
     5.5347   5.6101   5.6157   5.6284   5.6506   5.6830   5.7025   5.8034
     5.8646   5.8693   5.9318   6.0201   6.0545   6.0596   6.1056   6.1270
     6.1361   6.1934   6.2094   6.2240   6.2527   6.3122   6.3350   6.3487
     6.3579   6.3822   6.3887   6.4054   6.5867   6.8038   6.8700   6.9313
     6.9605   6.9834   7.0148   7.0344   7.0549   7.0622   7.0647   7.1088
     7.1285   7.1563   7.1664   7.1909   7.2013   7.2102   7.2817   7.3123
     7.5175   7.5420   7.5732   7.6023   7.6614   7.7358   7.7413   7.7746
     7.8736   7.9956   8.0140   8.0251   8.1188   8.5524   8.6260  12.1515
    12.1733  12.1902  12.3144  12.7753  12.8170  13.1214  13.1392  13.1589
    13.2289  13.5242  13.6029  13.6208  13.6307  13.6458  13.6550  13.6613
    13.6615  13.6630  13.7199  13.7837  13.8813  13.9896  14.3339  14.7789
    14.7841  14.8146  14.8307  14.8331  14.8433  14.8652  14.8828  14.9276
    14.9797  15.0392  15.1635  15.4691  15.4723  15.5075  15.5211  15.5535
    15.5691  15.6588  15.6809  15.7190  15.7214  15.7726  15.8039  15.8409
    15.9041  16.0469  16.0736  16.0881  16.1389  16.1904  16.1968  16.2238
    16.2568  16.2582  16.2681  16.3406  16.3728  16.4229

     occupation numbers 
     1.0000   1.0000   1.0000   1.0000   1.0000   1.0000   1.0000   1.0000
     1.0000   1.0000   1.0000   1.0000   1.0000   1.0000   1.0000   1.0000
     1.0000   1.0000   1.0000   1.0000   1.0000   1.0000   1.0000   1.0000
     1.0000   1.0000   1.0000   1.0000   1.0000   1.0000   1.0000   1.0000
     1.0000   1.0000   1.0000   1.0000   1.0000   1.0000   1.0000   1.0000
     1.0000   1.0000   1.0000   1.0000   1.0000   1.0000   1.0000   1.0000
     1.0000   1.0000   1.0000   1.0000   1.0000   1.0000   1.0000   1.0000
     1.0000   1.0000   1.0000   1.0000   1.0000   1.0000   1.0000   1.0000
     1.0000   1.0000   1.0000   1.0000   1.0000   1.0000   1.0000   1.0000
     1.0000   1.0000   1.0000   1.0000   1.0000   1.0000   1.0000   1.0000
     1.0000   1.0000   1.0000   1.0000   1.0000   1.0000   1.0000   1.0000
     1.0000   1.0000   1.0000   1.0000   1.0000   1.0000   1.0000   1.0000
     1.0000   1.0000   1.0000   1.0000   1.0000   1.0000   1.0000   1.0000
     1.0000   1.0000   1.0000   1.0000   1.0000   1.0000   1.0000   1.0000
     1.0000   1.0000   1.0000   1.0000   1.0000   1.0000   1.0000   1.0000
     1.0000   1.0000   1.0000   1.0000   1.0000   1.0000   1.0000   1.0000
     1.0000   1.0000   1.0000   1.0000   1.0000   1.0000   1.0000   1.0000
     1.0000   1.0000   1.0000   1.0000   1.0000   1.0000   1.0000   1.0000
     1.0000   1.0000   1.0000   1.0000   1.0000   1.0000   1.0000   1.0000
     1.0000   1.0000   1.0000   1.0000   1.0000   1.0000   1.0000   1.0000
     1.0000   1.0000   1.0000   1.0000   1.0000   1.0000   1.0000   1.0000
     1.0000   1.0000   1.0000   1.0000   1.0000   1.0000   1.0000   1.0000
     1.0000   1.0000   1.0000   1.0000   1.0000   1.0000   1.0000   1.0000
     1.0000   1.0000   1.0000   1.0000   1.0000   1.0000   1.0000   1.0000
     1.0000   1.0000   1.0000   1.0000   1.0000   1.0000   1.0000   1.0000
     1.0000   1.0000   1.0000   1.0000   1.0000   1.0000   1.0000   1.0000
     1.0000   1.0000   1.0000   1.0000   1.0000   1.0000   1.0000   1.0000
     1.0000   1.0000   1.0000   1.0000   1.0000   1.0000   1.0000   1.0000
     1.0000   1.0000   1.0000   1.0000   1.0000   1.0000   1.0000   1.0000
     1.0000   1.0000   1.0000   1.0000   1.0000   1.0000   1.0000   1.0000
     1.0000   1.0000   1.0000   1.0000   1.0000   1.0000   1.0000   1.0000
     1.0000   1.0000   1.0000   1.0000   1.0000   1.0000   1.0000   1.0000
     1.0000   1.0000   1.0000   1.0000   1.0000   1.0000   1.0000   1.0000
     1.0000   1.0000   1.0000   1.0000   1.0000   1.0000   1.0000   1.0000
     1.0000   1.0000   1.0000   1.0000   1.0000   1.0000   1.0000   1.0000
     1.0000   1.0000   1.0000   1.0000   1.0000   1.0000   1.0000   1.0000
     1.0000   1.0000   1.0000   1.0000   1.0000   1.0000   1.0000   1.0000
     1.0000   1.0000   1.0000   1.0000   1.0000   1.0000   1.0000   1.0000
     1.0000   1.0000   1.0000   1.0000   1.0000   1.0000   1.0000   1.0000
     1.0000   1.0000   1.0000   1.0000   1.0000   0.4843   0.2107   0.0000
     0.0000   0.0000   0.0000   0.0000   0.0000   0.0000   0.0000   0.0000
     0.0000   0.0000   0.0000   0.0000   0.0000   0.0000   0.0000   0.0000
     0.0000   0.0000   0.0000   0.0000   0.0000   0.0000   0.0000   0.0000
     0.0000   0.0000   0.0000   0.0000   0.0000   0.0000   0.0000   0.0000
     0.0000   0.0000   0.0000   0.0000   0.0000   0.0000   0.0000   0.0000
     0.0000   0.0000   0.0000   0.0000   0.0000   0.0000   0.0000   0.0000
     0.0000   0.0000   0.0000   0.0000   0.0000   0.0000   0.0000   0.0000
     0.0000   0.0000   0.0000   0.0000   0.0000   0.0000

     the Fermi energy is     8.5486 ev

!    total energy              =  -10958.60715664 Ry
     total all-electron energy =   -140241.127030 Ry
     estimated scf accuracy    <          3.9E-09 Ry
     smearing contrib. (-TS)   =      -0.00932825 Ry
     internal energy E=F+TS    =  -10958.59782839 Ry

     The total energy is F=E-TS. E is the sum of the following terms:
     one-electron contribution =   -3422.71800279 Ry
     hartree contribution      =    2370.37496773 Ry
     xc contribution           =   -1598.50992882 Ry
     ewald contribution        =   -3949.94869836 Ry
     one-center paw contrib.   =   -4357.79616615 Ry
      -> PAW hartree energy AE =     144.41097355 Ry
      -> PAW hartree energy PS =    -142.98922270 Ry
      -> PAW xc energy AE      =    -156.93420580 Ry
      -> PAW xc energy PS      =      39.72039925 Ry
      -> total E_H with PAW    =    2371.79671857 Ry
      -> total E_XC with PAW   =   -1715.72373536 Ry

     convergence has been achieved in   4 iterations


     -----------------------------------------------
     Non-local corr. energy    =      19.17394530 Ry
     -----------------------------------------------


     Forces acting on atoms (cartesian axes, Ry/au):

     atom    1 type  1   force =     0.00000000    0.00000000    0.00031134
     atom    2 type  1   force =     0.00009580   -0.00011678    0.00003883
     atom    3 type  1   force =     0.00002202   -0.00007599   -0.00002245
     atom    4 type  1   force =    -0.00005323    0.00014135    0.00003883
     atom    5 type  1   force =    -0.00005480    0.00005707   -0.00002245
     atom    6 type  1   force =    -0.00014903   -0.00002458    0.00003883
     atom    7 type  1   force =    -0.00007682    0.00001892   -0.00002245
     atom    8 type  1   force =    -0.00009580   -0.00011678    0.00003883
     atom    9 type  1   force =    -0.00002202   -0.00007599   -0.00002245
     atom   10 type  1   force =     0.00000000    0.00000000    0.00006623
     atom   11 type  1   force =     0.00000000    0.00000000    0.00014515
     atom   12 type  1   force =     0.00014903   -0.00002458    0.00003883
     atom   13 type  1   force =     0.00007682    0.00001892   -0.00002245
     atom   14 type  1   force =     0.00000000    0.00000000   -0.00023992
     atom   15 type  1   force =     0.00000000    0.00000000    0.00025862
     atom   16 type  1   force =     0.00005323    0.00014135    0.00003883
     atom   17 type  1   force =     0.00005480    0.00005707   -0.00002245
     atom   18 type  1   force =     0.00006052   -0.00003494    0.00052182
     atom   19 type  1   force =    -0.00005068    0.00002926   -0.00058339
     atom   20 type  1   force =    -0.00014404   -0.00008316   -0.00003634
     atom   21 type  1   force =     0.00004800    0.00002771   -0.00001282
     atom   22 type  1   force =     0.00000000    0.00006988    0.00052182
     atom   23 type  1   force =     0.00000000   -0.00005852   -0.00058339
     atom   24 type  1   force =    -0.00006052   -0.00003494    0.00052182
     atom   25 type  1   force =     0.00005068    0.00002926   -0.00058339
     atom   26 type  1   force =     0.00000000    0.00000833   -0.00011592
     atom   27 type  1   force =     0.00000000   -0.00004315    0.00005870
     atom   28 type  1   force =     0.00000721   -0.00000416   -0.00011592
     atom   29 type  1   force =    -0.00003737    0.00002157    0.00005870
     atom   30 type  1   force =     0.00000000    0.00016633   -0.00003634
     atom   31 type  1   force =     0.00000000   -0.00005543   -0.00001282
     atom   32 type  1   force =     0.00014404   -0.00008316   -0.00003634
     atom   33 type  1   force =    -0.00004800    0.00002771   -0.00001282
     atom   34 type  1   force =    -0.00000721   -0.00000416   -0.00011592
     atom   35 type  1   force =     0.00003737    0.00002157    0.00005870
     atom   36 type  2   force =     0.00000000    0.00000000    0.00024291
     atom   37 type  2   force =     0.00000000    0.00000000    0.00086184
     atom   38 type  2   force =     0.00009341   -0.00041517   -0.00002084
     atom   39 type  2   force =     0.00015811   -0.00019365    0.00004658
     atom   40 type  2   force =    -0.00031285    0.00028848   -0.00002084
     atom   41 type  2   force =    -0.00008865    0.00023375    0.00004658
     atom   42 type  2   force =    -0.00040626    0.00012669   -0.00002084
     atom   43 type  2   force =    -0.00024676   -0.00004010    0.00004658
     atom   44 type  2   force =    -0.00009341   -0.00041517   -0.00002084
     atom   45 type  2   force =    -0.00015811   -0.00019365    0.00004658
     atom   46 type  2   force =     0.00000000    0.00000000   -0.00023416
     atom   47 type  2   force =     0.00000000    0.00000000    0.00026530
     atom   48 type  2   force =     0.00040626    0.00012669   -0.00002084
     atom   49 type  2   force =     0.00024676   -0.00004010    0.00004658
     atom   50 type  2   force =     0.00000000    0.00000000    0.00011421
     atom   51 type  2   force =     0.00000000    0.00000000   -0.00047898
     atom   52 type  2   force =     0.00031285    0.00028848   -0.00002084
     atom   53 type  2   force =     0.00008865    0.00023375    0.00004658
     atom   54 type  2   force =     0.00011725   -0.00006770   -0.00039438
     atom   55 type  2   force =     0.00013380   -0.00007725   -0.00005280
     atom   56 type  2   force =     0.00046602    0.00026906    0.00016262
     atom   57 type  2   force =    -0.00017196   -0.00009928    0.00002760
     atom   58 type  2   force =     0.00000000    0.00013539   -0.00039438
     atom   59 type  2   force =    -0.00000000    0.00015450   -0.00005280
     atom   60 type  2   force =    -0.00011725   -0.00006770   -0.00039438
     atom   61 type  2   force =    -0.00013380   -0.00007725   -0.00005280
     atom   62 type  2   force =     0.00000000   -0.00025986    0.00011909
     atom   63 type  2   force =     0.00000000    0.00025144   -0.00021593
     atom   64 type  2   force =    -0.00022505    0.00012993    0.00011909
     atom   65 type  2   force =     0.00021775   -0.00012572   -0.00021593
     atom   66 type  2   force =     0.00000000   -0.00053811    0.00016262
     atom   67 type  2   force =     0.00000000    0.00019857    0.00002760
     atom   68 type  2   force =    -0.00046602    0.00026906    0.00016262
     atom   69 type  2   force =     0.00017196   -0.00009928    0.00002760
     atom   70 type  2   force =     0.00022505    0.00012993    0.00011909
     atom   71 type  2   force =    -0.00021775   -0.00012572   -0.00021593
     The non-local contrib.  to forces
     atom    1 type  1   force =     0.00000000    0.00000000    0.01801908
     atom    2 type  1   force =     0.01435097    0.12036053    0.04220935
     atom    3 type  1   force =     0.00370185    0.01078021   -0.01090126
     atom    4 type  1   force =     0.11141076   -0.04775196    0.04220935
     atom    5 type  1   force =     0.01118686   -0.00218421   -0.01090126
     atom    6 type  1   force =     0.09705979   -0.07260857    0.04220935
     atom    7 type  1   force =     0.00748501   -0.00859600   -0.01090126
     atom    8 type  1   force =    -0.01435097    0.12036053    0.04220935
     atom    9 type  1   force =    -0.00370185    0.01078021   -0.01090126
     atom   10 type  1   force =     0.00000000   -0.00000000    0.00606741
     atom   11 type  1   force =     0.00000000   -0.00000000    0.00114139
     atom   12 type  1   force =    -0.09705979   -0.07260857    0.04220935
     atom   13 type  1   force =    -0.00748501   -0.00859600   -0.01090126
     atom   14 type  1   force =    -0.00000000   -0.00000000   -0.01521515
     atom   15 type  1   force =     0.00000000    0.00000000    0.00536147
     atom   16 type  1   force =    -0.11141076   -0.04775196    0.04220935
     atom   17 type  1   force =    -0.01118686   -0.00218421   -0.01090126
     atom   18 type  1   force =    -0.12359327    0.07135661    0.02080170
     atom   19 type  1   force =     0.04811482   -0.02777910   -0.12069157
     atom   20 type  1   force =    -0.00857915   -0.00495318    0.00126484
     atom   21 type  1   force =     0.00007014    0.00004050    0.00771694
     atom   22 type  1   force =     0.00000000   -0.14271322    0.02080170
     atom   23 type  1   force =     0.00000000    0.05555820   -0.12069157
     atom   24 type  1   force =     0.12359327    0.07135661    0.02080170
     atom   25 type  1   force =    -0.04811482   -0.02777910   -0.12069157
     atom   26 type  1   force =    -0.00000000    0.00313855   -0.00516670
     atom   27 type  1   force =    -0.00000000    0.00093110    0.01951685
     atom   28 type  1   force =     0.00271807   -0.00156928   -0.00516670
     atom   29 type  1   force =     0.00080635   -0.00046555    0.01951685
     atom   30 type  1   force =     0.00000000    0.00990635    0.00126484
     atom   31 type  1   force =    -0.00000000   -0.00008099    0.00771694
     atom   32 type  1   force =     0.00857915   -0.00495318    0.00126484
     atom   33 type  1   force =    -0.00007014    0.00004050    0.00771694
     atom   34 type  1   force =    -0.00271807   -0.00156928   -0.00516670
     atom   35 type  1   force =    -0.00080635   -0.00046555    0.01951685
     atom   36 type  2   force =     0.00000000    0.00000000    0.41665205
     atom   37 type  2   force =     0.00000000    0.00000000    0.03946744
     atom   38 type  2   force =     0.00038981   -0.00403265   -0.00490740
     atom   39 type  2   force =     0.01422722    0.02497283    0.00366138
     atom   40 type  2   force =    -0.00329747    0.00235391   -0.00490740
     atom   41 type  2   force =     0.02874071   -0.00016528    0.00366138
     atom   42 type  2   force =    -0.00368728    0.00167874   -0.00490740
     atom   43 type  2   force =     0.01451350   -0.02480755    0.00366138
     atom   44 type  2   force =    -0.00038981   -0.00403265   -0.00490740
     atom   45 type  2   force =    -0.01422722    0.02497283    0.00366138
     atom   46 type  2   force =     0.00000000   -0.00000000    0.01204311
     atom   47 type  2   force =     0.00000000   -0.00000000    0.01122723
     atom   48 type  2   force =     0.00368728    0.00167874   -0.00490740
     atom   49 type  2   force =    -0.01451350   -0.02480755    0.00366138
     atom   50 type  2   force =     0.00000000    0.00000000    0.01548999
     atom   51 type  2   force =     0.00000000   -0.00000000    0.00924257
     atom   52 type  2   force =     0.00329747    0.00235391   -0.00490740
     atom   53 type  2   force =    -0.02874071   -0.00016528    0.00366138
     atom   54 type  2   force =    -0.32880172    0.18983376   -0.13755406
     atom   55 type  2   force =    -0.01116290    0.00644490    0.06039645
     atom   56 type  2   force =    -0.01971464   -0.01138226   -0.01140217
     atom   57 type  2   force =     0.00132144    0.00076294    0.01139542
     atom   58 type  2   force =     0.00000000   -0.37966752   -0.13755406
     atom   59 type  2   force =     0.00000000   -0.01288981    0.06039645
     atom   60 type  2   force =     0.32880172    0.18983376   -0.13755406
     atom   61 type  2   force =     0.01116290    0.00644490    0.06039645
     atom   62 type  2   force =     0.00000000   -0.01068662    0.03378322
     atom   63 type  2   force =     0.00000000    0.00302190    0.00409148
     atom   64 type  2   force =    -0.00925489    0.00534331    0.03378322
     atom   65 type  2   force =     0.00261704   -0.00151095    0.00409148
     atom   66 type  2   force =     0.00000000    0.02276451   -0.01140217
     atom   67 type  2   force =     0.00000000   -0.00152587    0.01139542
     atom   68 type  2   force =     0.01971464   -0.01138226   -0.01140217
     atom   69 type  2   force =    -0.00132144    0.00076294    0.01139542
     atom   70 type  2   force =     0.00925489    0.00534331    0.03378322
     atom   71 type  2   force =    -0.00261704   -0.00151095    0.00409148
     The ionic contribution  to forces
     atom    1 type  1   force =    -0.00003477    0.00002027    0.94121024
     atom    2 type  1   force =     3.74241978   -5.74927910    0.04094944
     atom    3 type  1   force =     0.41099599   -0.93329987    0.37231705
     atom    4 type  1   force =    -3.10784874    6.11571675    0.04094547
     atom    5 type  1   force =    -0.60279780    0.82264300    0.37231745
     atom    6 type  1   force =    -6.85028890   -0.36638073    0.04094517
     atom    7 type  1   force =    -1.01382618    0.11071834    0.37231726
     atom    8 type  1   force =    -3.74248161   -5.74926676    0.04095151
     atom    9 type  1   force =    -0.41106319   -0.93329845    0.37231728
     atom   10 type  1   force =    -0.00003298    0.00002190   -0.11417866
     atom   11 type  1   force =    -0.00003272    0.00002177    0.37389459
     atom   12 type  1   force =     6.85023383   -0.36638883    0.04094880
     atom   13 type  1   force =     1.01376179    0.11071866    0.37231673
     atom   14 type  1   force =    -0.00003269    0.00002175    0.02436956
     atom   15 type  1   force =    -0.00003187    0.00002127    0.37883193
     atom   16 type  1   force =     3.10777270    6.11572093    0.04095114
     atom   17 type  1   force =     0.60273099    0.82264472    0.37231716
     atom   18 type  1   force =     3.32361997   -1.91889716   -6.72530893
     atom   19 type  1   force =     4.62080192   -2.66782546    6.29314110
     atom   20 type  1   force =     0.12451975    0.07185670   -1.66207167
     atom   21 type  1   force =     0.32229554    0.18604404    2.01937466
     atom   22 type  1   force =     0.00003971    3.83772152   -6.72533729
     atom   23 type  1   force =     0.00003933    5.33558918    6.29316363
     atom   24 type  1   force =    -3.32354550   -1.91889999   -6.72533576
     atom   25 type  1   force =    -4.62073672   -2.66783323    6.29316298
     atom   26 type  1   force =     0.00003409   -2.00827446   -2.16798433
     atom   27 type  1   force =     0.00003376   -2.17583580    2.68793561
     atom   28 type  1   force =    -1.73917326    1.00411102   -2.16799075
     atom   29 type  1   force =    -1.88428573    1.08789177    2.68794181
     atom   30 type  1   force =     0.00002939   -0.14377007   -1.66207146
     atom   31 type  1   force =     0.00002821   -0.37214260    2.01937478
     atom   32 type  1   force =    -0.12445419    0.07185283   -1.66207190
     atom   33 type  1   force =    -0.32223056    0.18603914    2.01937629
     atom   34 type  1   force =     1.73923327    1.00410622   -2.16798474
     atom   35 type  1   force =     1.88434547    1.08788719    2.68793575
     atom   36 type  2   force =    -0.00003664    0.00002240   -8.77330842
     atom   37 type  2   force =    -0.00002999    0.00001824    2.57283130
     atom   38 type  2   force =     0.66260499   -1.24377099   -1.28918714
     atom   39 type  2   force =     0.34055568   -0.76255333    0.81712894
     atom   40 type  2   force =    -0.74586579    1.19577297   -1.28918765
     atom   41 type  2   force =    -0.49014204    0.67625946    0.81712875
     atom   42 type  2   force =    -1.40850090    0.04805428   -1.28918753
     atom   43 type  2   force =    -0.83072714    0.08634776    0.81712898
     atom   44 type  2   force =    -0.66266555   -1.24377074   -1.28918651
     atom   45 type  2   force =    -0.34061573   -0.76255257    0.81712857
     atom   46 type  2   force =    -0.00002950    0.00001913   -0.79728681
     atom   47 type  2   force =    -0.00002976    0.00001929    0.49377787
     atom   48 type  2   force =     1.40844161    0.04805490   -1.28918684
     atom   49 type  2   force =     0.83067017    0.08634891    0.81712925
     atom   50 type  2   force =    -0.00002909    0.00001907   -0.78805789
     atom   51 type  2   force =    -0.00002923    0.00001917    0.38680186
     atom   52 type  2   force =     0.74580618    1.19577385   -1.28918637
     atom   53 type  2   force =     0.49008386    0.67626136    0.81712868
     atom   54 type  2   force =     6.83761961   -3.94770550    2.51113510
     atom   55 type  2   force =     0.32530304   -0.18781652   -0.67993628
     atom   56 type  2   force =     0.41342256    0.23866015    0.23817264
     atom   57 type  2   force =    -0.00754821   -0.00439319   -0.32670662
     atom   58 type  2   force =     0.00005168    7.89541727    2.51116329
     atom   59 type  2   force =     0.00003069    0.37557429   -0.67993548
     atom   60 type  2   force =    -6.83760404   -3.94775623    2.51116171
     atom   61 type  2   force =    -0.32524271   -0.18781702   -0.67993583
     atom   62 type  2   force =     0.00002939   -1.57477872   -0.00789838
     atom   63 type  2   force =     0.00002993   -0.36069060   -0.29524580
     atom   64 type  2   force =    -1.36375908    0.78736544   -0.00789760
     atom   65 type  2   force =    -0.31232184    0.18031783   -0.29524579
     atom   66 type  2   force =     0.00002447   -0.47736794    0.23817242
     atom   67 type  2   force =     0.00002925    0.00873019   -0.32670681
     atom   68 type  2   force =    -0.41336451    0.23865497    0.23817314
     atom   69 type  2   force =     0.00760735   -0.00439351   -0.32670674
     atom   70 type  2   force =     1.36381216    0.78736207   -0.00789823
     atom   71 type  2   force =     0.31238103    0.18031738   -0.29524567
     The local contribution  to forces
     atom    1 type  1   force =    -0.00015890    0.00020151   -0.95922736
     atom    2 type  1   force =    -3.75636546    5.63074317   -0.08316127
     atom    3 type  1   force =    -0.41479786    0.92284828   -0.36174804
     atom    4 type  1   force =     2.99795324   -6.06807303   -0.08315592
     atom    5 type  1   force =     0.59154848   -0.82019469   -0.36174629
     atom    6 type  1   force =     6.75415981    0.43790333   -0.08316192
     atom    7 type  1   force =     1.00619521   -0.10203402   -0.36174674
     atom    8 type  1   force =     3.75607050    5.63076499   -0.08315689
     atom    9 type  1   force =     0.41447933    0.92284778   -0.36174644
     atom   10 type  1   force =    -0.00015143    0.00021060    0.10776769
     atom   11 type  1   force =    -0.00015930    0.00021109   -0.37517383
     atom   12 type  1   force =    -6.75447081    0.43790573   -0.08315992
     atom   13 type  1   force =    -1.00649752   -0.10203394   -0.36174784
     atom   14 type  1   force =    -0.00014177    0.00020215   -0.00938065
     atom   15 type  1   force =    -0.00015129    0.00020647   -0.38418487
     atom   16 type  1   force =    -2.99824830   -6.06804935   -0.08315979
     atom   17 type  1   force =    -0.59186733   -0.82019522   -0.36174783
     atom   18 type  1   force =    -3.20069201    1.84795919    6.70515549
     atom   19 type  1   force =    -4.66745039    2.69479395   -6.17555943
     atom   20 type  1   force =    -0.11510419   -0.06758382    1.66051866
     atom   21 type  1   force =    -0.32148180   -0.18673540   -2.02721627
     atom   22 type  1   force =     0.00100006   -3.69753689    6.70518527
     atom   23 type  1   force =     0.00100030   -5.39121599   -6.17559164
     atom   24 type  1   force =     3.20271068    1.84796320    6.70518459
     atom   25 type  1   force =     4.66947999    2.69480155   -6.17559042
     atom   26 type  1   force =     0.00101359    2.00460439    2.17238805
     atom   27 type  1   force =     0.00101348    2.17439296   -2.70712681
     atom   28 type  1   force =     1.73752567   -1.00311116    2.17239605
     atom   29 type  1   force =     1.88456705   -1.08800717   -2.70713450
     atom   30 type  1   force =     0.00102804    0.13353414    1.66051918
     atom   31 type  1   force =     0.00102803    0.37183770   -2.02721617
     atom   32 type  1   force =     0.11713446   -0.06757888    1.66051969
     atom   33 type  1   force =     0.32351059   -0.18673057   -2.02721848
     atom   34 type  1   force =    -1.73548976   -1.00310658    2.17238658
     atom   35 type  1   force =    -1.88253148   -1.08800054   -2.70712603
     atom   36 type  2   force =    -0.00000911    0.00001353    8.36347694
     atom   37 type  2   force =    -0.00001319    0.00001725   -2.61094067
     atom   38 type  2   force =    -0.66294569    1.24737296    1.29382034
     atom   39 type  2   force =    -0.35444912    0.73782444   -0.82082149
     atom   40 type  2   force =     0.74876141   -1.19777684    1.29381809
     atom   41 type  2   force =     0.46172838   -0.67583618   -0.82082141
     atom   42 type  2   force =     1.41169457   -0.04954453    1.29381908
     atom   43 type  2   force =     0.81616489   -0.06193568   -0.82082128
     atom   44 type  2   force =     0.66292031    1.24737230    1.29381782
     atom   45 type  2   force =     0.35442260    0.73782470   -0.82082129
     atom   46 type  2   force =    -0.00001254    0.00001806    0.78502276
     atom   47 type  2   force =    -0.00001324    0.00001765   -0.50470057
     atom   48 type  2   force =    -1.41172043   -0.04954374    1.29381837
     atom   49 type  2   force =    -0.81619023   -0.06193624   -0.82082145
     atom   50 type  2   force =    -0.00001254    0.00001799    0.77274739
     atom   51 type  2   force =    -0.00001211    0.00001717   -0.39650381
     atom   52 type  2   force =    -0.74878726   -1.19777652    1.29382003
     atom   53 type  2   force =    -0.46175499   -0.67583648   -0.82082133
     atom   54 type  2   force =    -6.51399335    3.76086733   -2.37637180
     atom   55 type  2   force =    -0.31409076    0.18134367    0.62031702
     atom   56 type  2   force =    -0.39342904   -0.22724278   -0.22691353
     atom   57 type  2   force =     0.00618756    0.00348067    0.31536593
     atom   58 type  2   force =     0.00006112   -7.52191407   -2.37640081
     atom   59 type  2   force =     0.00008053   -0.36281744    0.62031623
     atom   60 type  2   force =     6.51419781    3.76090889   -2.37640184
[...]
              0.602732709421713E+02
              0.185021577908564E+01
              0.187832992220844E+03
              0.260521921854247E+02
             -0.273830547350607E+02
              0.107839898668167E+02
             -0.252254802528271E+02
              0.147491049338031E+03
             -0.860452553893509E+00
              0.281957183156247E+02
              0.102417223315160E+03
              0.275144971430029E+02
             -0.777360228170670E+02
             -0.126144520108495E+03
              0.710095568131953E+01
             -0.143539609557217E+03
              0.481275818253836E+02
             -0.248595434847100E+02
             -0.552189371943525E+02
              0.559518378839884E+02
              0.193627772991954E+02
              0.538826549944921E+02
              0.231052743997236E+01
              0.799654565330084E+02
             -0.135830714570836E+03
             -0.965947162930854E+01
             -0.119276136061146E+03
              0.266539592745193E+02
              0.653953131294983E+02
             -0.664894950842364E+01
             -0.435404576439115E+02
              0.978475012388092E+02
             -0.452510772930640E+02
              0.334683577371654E+02
             -0.287247390726163E+02
              0.774705772959033E+02
              0.814347663957458E+02
             -0.352414991509120E+02
              0.698508401766699E+02
              0.262263598463969E+02
             -0.705099000156293E+02
             -0.460276632758640E+02
              0.113261838734601E+03
              0.555608558077678E+02
             -0.478261382573007E+01
             -0.120047933213802E+02
              0.174469842338113E+03
              0.102868328135806E+03
              0.365621871215480E+02
             -0.109950367416762E+03
              0.176064885078016E+03
             -0.822363461368184E+02
             -0.101562563341279E+03
             -0.152989376332525E+03
              0.682157929154868E+02
             -0.137492710586792E+03
              0.621473247770117E+02
              0.100544634331763E+03
              0.715382686944073E+02
              0.182736320680598E+02
              0.474028607324083E+02
             -0.113336562924983E+03
             -0.405826002764641E+02
             -0.308443360778730E+02
              0.581708841185871E+02
              0.115219088673884E+03
              0.119113948310918E+03
              0.918938722141394E+02
             -0.211022116800266E+02
              0.292497047046945E+02
              0.159416003212505E+01
             -0.378008488904812E+02
              0.485280440536678E+02
              0.528650667645012E+02
             -0.669318475570373E+02
             -0.796494170384157E+02
             -0.314305621268279E+02
              0.827851494067484E+02
              0.396642411345330E+02
             -0.567923670419117E+02
             -0.869163704868899E+02
             -0.126532982484556E+03
              0.256752613416370E+01
              0.339431311786511E+02
             -0.477959976071000E+02
              0.177027517384489E+03
              0.864371122837690E+01
             -0.200637099741260E+03
              0.443877066434652E+02
              0.879985199321260E+02
             -0.403479851524083E+02
              0.485920599479977E+01
             -0.558954711184251E+02
              0.820701877486756E+02
              0.379133869576003E+02
             -0.104983808784693E+03
              0.125045920821437E+03
              0.347016033767665E+01
             -0.537116252754156E+02
             -0.636925061529234E+02
              0.248936932482076E+03
              0.110954958302745E+03
             -0.308868623117262E+02
              0.610922445860792E+02
             -0.108734735038154E+03
             -0.194578592612681E+02
             -0.110425371736431E+03
              0.442478492362311E+02
              0.751268697017319E+02
              0.892630838380153E+02
             -0.355455231970743E+02
              0.105449274879509E+02
              0.101904692816453E+03
              0.377717117690615E+02
              0.639068239708894E+02
              0.272253121786938E+02
             -0.183628941291082E+02
              0.273915625081383E+01
             -0.168095595183625E+02
              0.259616316785163E+02
              0.574929557552605E+01
             -0.927815318479164E+02
              0.141396870384691E+03
              0.565631643649862E+02
             -0.101541008423384E+03
             -0.753420497470126E+02
             -0.109216643593311E+03
             -0.517138490881111E+02
             -0.380086039687966E+02
             -0.844586714582864E+02
             -0.826988913773003E+02
              0.104334429870328E+03
              0.822427547758623E+02
             -0.102945445536037E+02
              0.119840493050527E+03
              0.227645454090532E+02
             -0.193525786823436E+03
              0.109157424852334E+03
              0.252493749624443E+02
              0.842035564549678E+02
              0.188159539174088E+02
              0.141286666832094E+02
              0.166894396244370E+02
              0.438642275963762E+02
             -0.802078821332362E+02
             -0.400699570558955E+02
             -0.736517228896941E+02
             -0.611105440088087E+02
              0.278881495494659E+02
             -0.700539002847534E+02
              0.327238389403868E+02
              0.433152572946362E+02
             -0.461629702294135E+02
             -0.243031504870906E+02
             -0.214120661536163E+01
              0.119805403472393E+03
              0.190158886430140E+02
              0.118846203109798E+03
              0.422260093073496E+02
             -0.153392371842059E+03
             -0.522556204790351E+02
              0.524309951694147E+02
              0.117954162274672E+03
              0.227570711807683E+02
              0.460813073831471E+02
              0.111269096190677E+03
             -0.647792467803157E+02
             -0.105155620150264E+03
              0.136511820513834E+03
              0.218717721619078E+01
             -0.144820034185071E+03
              0.485326409098502E+02
              0.958269911467154E+02
             -0.220833213125609E+02
             -0.905772474751375E+02
              0.160398005365282E+02
              0.595646981190748E+01
             -0.496015898355640E+02
              0.180153388740093E+02
             -0.154721612434004E+02
              0.213313769450349E+03
              0.587882471715468E+02
             -0.979487869301844E+02
              0.296513296082776E+02
              0.137007089396843E+03
             -0.877577209435900E+02
             -0.234720956026791E+02
             -0.776562938439640E+02
              0.619713897404638E+02
              0.264069028213421E+02
              0.411547805950821E+02
              0.315431872620627E+01
              0.153794153574244E+03
             -0.860629069837878E+02
             -0.653130767228757E+02
             -0.720667520106200E+02
              0.620191204278583E+02
              0.147943283979302E+03
             -0.186632497173532E+02
              0.611228212004577E+02
             -0.827095241469318E+02
              0.821124306708145E+01
             -0.244820057580998E+02
             -0.832647950471824E+01
             -0.352467243463422E+02
             -0.324496218943327E+02
             -0.239200770642373E+02
              0.256282317509151E+02
              0.431089209595191E+02
             -0.993117351232033E+02
              0.721851041969564E+02
             -0.116614118749526E+03
              0.870946084737498E+02
             -0.101169927709546E+03
              0.153099080906279E+03
              0.816091439247551E+02
              0.909958927270391E+02
              0.208346423134326E+02
              0.233457516862768E+02
             -0.205353202522381E+03
              0.352386873487188E+02
              0.933734490985739E+01
              0.161056475497633E+02
             -0.306106505432340E+02
              0.159742546007202E+03
             -0.486595219865108E+02
             -0.630658920116524E+02
             -0.158457695603084E+03
             -0.527348579944237E+02
             -0.719147834138798E+02
             -0.638417581011935E+02
             -0.174936281260465E+02
             -0.333682150710252E+02
             -0.442689540595825E+02
             -0.665290742232648E+02
              0.495695153069257E+02
              0.163922464585027E+03
              0.139820831545592E+03
             -0.278950472525087E+02
             -0.171579945694230E+03
             -0.721395647512369E+02
              0.330973528641828E+02
              0.366248689359520E+02
              0.529972356671784E+02
              0.412930004275173E+02
              0.134672468244074E+02
              0.158677199053711E+03
             -0.393698812051097E+02
              0.805632026814483E+02
              0.369520780722911E+02
             -0.519694518022818E+02
             -0.327185260031785E+02
              0.733900671454059E+02
             -0.424958359684747E+02
             -0.302127002612722E+02
             -0.195826133799405E+02
              0.917003754807847E+02
             -0.122858642065057E+03
             -0.135686995126763E+02
             -0.100647319881497E+03
             -0.217626120144882E+03
              0.859813602964323E+00
             -0.269291280058006E+02
              0.747142558300693E+02
              0.888201056053186E+02
              0.121856931518950E+03
             -0.801321719569621E+02
              0.130391118150503E+03
              0.341020652900856E+02
             -0.388254435022753E+02
              0.235681459552145E+02
             -0.414249373404874E+02
             -0.290057859297824E+02
              0.663705592161825E+02
             -0.647544686440781E+02
              0.157493352451111E+03
             -0.402683602002019E+02
             -0.842493044294118E+02
              0.160288362326875E+03
             -0.900815793681388E+02
             -0.134070969924207E+02
              0.163871122471894E+02
              0.496879316081078E+02
             -0.734326278273263E+02
             -0.550181979299171E+02
              0.835363949249009E+02
             -0.135639617791680E+03
              0.995283104459452E+02
              0.130341178777910E+02
              0.777492520994416E+02
              0.107811402340569E+03
              0.271191711717453E+02
             -0.141827654034927E+03
             -0.626722464301626E+02
             -0.104865050251538E+03
             -0.657380086375260E+02
             -0.216993864901236E+02
              0.257547459338295E+02
             -0.491343775491901E+02
              0.348910632249317E+01
             -0.159616454087077E+03
              0.390639499366978E+01
             -0.100870568942608E+03
              0.990386735108101E+02
             -0.531818028837908E+02
             -0.104676450596165E+02
              0.712924480062917E+02
              0.761993682591547E+01
              0.709964520485419E+02
             -0.127183518067344E+03
              0.279173813046291E+02
              0.879575915433674E+01
              0.510994334518722E+02
              0.918464925315048E+02
             -0.160088979677678E+02
             -0.100743120227695E+03
             -0.576335059695431E+02
             -0.397751346037491E+02
             -0.193749887461702E+02
              0.949860508418585E+02
              0.585153811358454E+02
             -0.610444281478819E+02
             -0.557075451534675E+02
              0.460585502115687E+02
              0.450530563518225E+02
             -0.124860908098170E+03
              0.349947907987586E+02
              0.916095072883376E+02
             -0.452616529426658E+01
              0.107346223993609E+03
              0.544589038048628E+02
              0.857653144590091E+02
              0.130208830094446E+03
              0.213173129342744E+02
             -0.182203878298040E+03
              0.186879972653826E+02
              0.202066956636990E+03
              0.145360774069417E+03
             -0.974837489315683E+02
              0.970739929305816E+01
              0.126456872081669E+03
              0.114968765769955E+03
              0.546865078079288E+02
             -0.290055009907478E+02
              0.523991350543304E+02
              0.110186746468050E+03
             -0.491793823551093E+02
             -0.352895781005173E+02
              0.687250566860818E+02
             -0.493148150235493E+01
              0.645035450931744E+02
             -0.160480750472885E+02
              0.133011184244163E+03
             -0.506864686909878E+02
              0.303215639253348E+02
             -0.620422696583242E+02
              0.628363563834444E+02
             -0.830724548171986E+01
              0.993210138677831E+02
              0.693835349627420E+01
              0.391727564016918E+02
             -0.659028442607759E+02
             -0.405215733604464E+02
             -0.191431119532789E+02
             -0.164417590507953E+02
              0.104258766442401E+03
              0.431400377351507E+02
              0.133865288450110E+03
              0.111229243513176E+03
              0.248294026772709E+02
              0.936536954949787E+00
              0.130753756715497E+03
              0.688192563219764E+02
              0.190701745241205E+01
              0.116163446568319E+03
             -0.104257891598519E+03
              0.342478122901693E+02
             -0.655389903911602E+02
             -0.263275098220709E+02
              0.167237160569357E+03
             -0.256122172581222E+02
             -0.122051363868297E+01
             -0.220472813772775E+02
              0.139006758845476E+03
             -0.324460990289558E+02
             -0.385374223918802E+01
              0.280632428745030E+03
             -0.907310301535034E+02
             -0.967528912842990E+02
             -0.101631919666677E+03
             -0.594916569790230E+02
              0.592974778339998E+02
             -0.253592849652455E+02
              0.164549105965391E+02
             -0.511757697708777E+01
              0.355284705998317E+02
              0.578923964085853E+02
              0.666740376921057E+02
              0.982395599731331E+02
              0.541696289549177E+02
              0.689284721882525E+02
             -0.111326957576208E+03
             -0.106449324089724E+03
             -0.270098341678357E+02
             -0.104422780189422E+03
              0.167280692802785E+03
              0.143371290331582E+03
              0.685064836963585E+02
              0.185440161127427E+03
             -0.965327433029704E+02
             -0.393698563519858E+02
             -0.546929224193938E+02
              0.153362374492321E+03
 
 BEEF-vdW xc energy contributions
            1 :    -1405.762998228149     
            2 :     1265.832269858706     
            3 :    -1031.497050231892     
            4 :     771.4671964221054     
            5 :    -546.0978236464607     
            6 :     384.4314960166778     
            7 :    -281.0489615757897     
            8 :     211.0833056811769     
            9 :    -151.2911245097941     
           10 :     93.49508896820612     
           11 :    -44.00796082163424     
           12 :     12.90122572543760     
           13 :    -2.969512486080930     
           14 :     6.529435928952807     
           15 :    -11.08864682780927     
           16 :     8.210803379042545     
           17 :     1.655361843423179     
           18 :    -11.57836738145579     
           19 :     15.05121997937658     
           20 :    -11.54246813733789     
           21 :     6.541129825843882     
           22 :    -6.668979366877920     
           23 :     14.22328883994305     
           24 :    -25.53164734261691     
           25 :     34.09861178098640     
           26 :    -35.67533415742992     
           27 :     31.13635538737617     
           28 :    -25.14168595646424     
           29 :     22.05275522117245     
           30 :    -22.58825547357424     
           31 :    -120.6541617501703     
           32 :    -82.61735136791140     

     Writing all to output data dir ./GaN.save/
 
     init_run     :      2.01s CPU      3.29s WALL (       1 calls)
     electrons    :    104.63s CPU    114.62s WALL (       1 calls)
     forces       :      1.78s CPU      1.83s WALL (       1 calls)
     stress       :     17.33s CPU     17.48s WALL (       1 calls)

     Called by init_run:
     wfcinit      :      0.40s CPU      1.52s WALL (       1 calls)
     potinit      :      0.79s CPU      0.89s WALL (       1 calls)
     hinit0       :      0.59s CPU      0.62s WALL (       1 calls)

     Called by electrons:
     c_bands      :     98.73s CPU    108.36s WALL (       5 calls)
     sum_band     :      3.06s CPU      3.11s WALL (       5 calls)
     v_of_rho     :      2.05s CPU      2.22s WALL (       5 calls)
     v_h          :      0.02s CPU      0.02s WALL (       5 calls)
     v_xc         :     14.85s CPU     15.21s WALL (      41 calls)
     newd         :      0.19s CPU      0.23s WALL (       5 calls)
     PAW_pot      :      0.74s CPU      0.77s WALL (       5 calls)
     mix_rho      :      0.04s CPU      0.04s WALL (       5 calls)
     vdW_kernel   :      0.25s CPU      0.26s WALL (       1 calls)

     Called by c_bands:
     init_us_2    :      0.15s CPU      0.16s WALL (      10 calls)
     init_us_2:cp :      0.15s CPU      0.16s WALL (      10 calls)
     cegterg      :     65.64s CPU     72.99s WALL (       5 calls)

     Called by sum_band:
     sum_band:wei :      0.01s CPU      0.01s WALL (       5 calls)
     sum_band:loo :      2.70s CPU      2.73s WALL (       5 calls)
     sum_band:buf :      0.00s CPU      0.00s WALL (       5 calls)
     sum_band:ini :      0.14s CPU      0.14s WALL (       5 calls)
     sum_band:cal :      1.01s CPU      1.02s WALL (       5 calls)
     sum_band:bec :      0.02s CPU      0.02s WALL (       5 calls)
     addusdens    :      0.23s CPU      0.24s WALL (       5 calls)
     addusd:skk   :      0.02s CPU      0.02s WALL (      10 calls)
     addusd:dgemm :      0.14s CPU      0.15s WALL (      10 calls)
     addusd:qvan2 :      0.06s CPU      0.06s WALL (      10 calls)

     Called by *egterg:
     cdiaghg      :     40.20s CPU     46.73s WALL (      44 calls)
     cegterg:over :      4.21s CPU      4.34s WALL (      41 calls)
     cegterg:upda :      2.72s CPU      2.81s WALL (      41 calls)
     cegterg:last :      0.95s CPU      0.96s WALL (       5 calls)
     h_psi        :     13.29s CPU     13.57s WALL (      46 calls)
     s_psi        :      2.78s CPU      2.80s WALL (      46 calls)
     g_psi        :      0.02s CPU      0.02s WALL (      41 calls)

     Called by h_psi:
     h_psi:calbec :      3.01s CPU      3.04s WALL (      46 calls)
     vloc_psi     :      7.40s CPU      7.51s WALL (      46 calls)
     add_vuspsi   :      2.76s CPU      2.80s WALL (      46 calls)

     General routines
     calbec       :      5.06s CPU      5.11s WALL (      56 calls)
     fft          :      5.42s CPU      5.51s WALL (    2421 calls)
     ffts         :      0.02s CPU      0.02s WALL (      10 calls)
     fftw         :      7.92s CPU      8.04s WALL (   12098 calls)
     interpolate  :      0.02s CPU      0.02s WALL (       5 calls)
 
     Parallel routines

     PAW routines
     PAW_pot      :      0.74s CPU      0.77s WALL (       5 calls)
     PAW_symme    :      0.01s CPU      0.01s WALL (       9 calls)
 
     PWSCF        :   2m18.62s CPU   2m32.75s WALL

 
   This run was terminated on:   7:18:41  19Feb2024            

=------------------------------------------------------------------------------=
   JOB DONE.
=------------------------------------------------------------------------------=
