
     Program PWSCF v.7.1 starts on 18Feb2024 at 11:35:26 

     This program is part of the open-source Quantum ESPRESSO suite
     for quantum simulation of materials; please cite
         "P. Giannozzi et al., J. Phys.:Condens. Matter 21 395502 (2009);
         "P. Giannozzi et al., J. Phys.:Condens. Matter 29 465901 (2017);
         "P. Giannozzi et al., J. Chem. Phys. 152 154105 (2020);
          URL http://www.quantum-espresso.org", 
     in publications or presentations arising from this work. More details at
     http://www.quantum-espresso.org/quote

     Parallel version (MPI & OpenMP), running on     256 processor cores
     Number of MPI processes:               256
     Threads/MPI process:                     1

     MPI processes distributed on     2 nodes
     1955611 MiB available memory on the printing compute node when the environment starts
 
     Reading input from espresso.pwi
Warning: card &CELL ignored
Warning: card    CELL_DYNAMICS    = 'BFGS' ignored
Warning: card / ignored

     Current dimensions of program PWSCF are:
     Max number of different atomic species (ntypx) = 10
     Max number of k-points (npk) =  40000
     Max angular momentum in pseudopotentials (lmaxx) =  4
     file Pb.pbe-dn-kjpaw_psl.1.0.0.UPF: wavefunction(s)  6S 6P 5D renormalized
     file I.pbe-dn-kjpaw_psl.1.0.0.UPF: wavefunction(s)  5S 5P renormalized

     **************************************************************************
     Initializing libbeef V0.1.2 with the BEEF-vdW functional.
     Citation: Wellendorff et al., PRB 85, 235149 (2012).
     **************************************************************************


     IMPORTANT: XC functional enforced from input :
     Exchange-correlation= BEEF-VDW
                           (   1   4  43  14   2   0   0)
     Any further DFT definition will be discarded
     Please, verify this is what you really want

 
     R & G space division:  proc/nbgrp/npool/nimage =     256
     WARNING: too many processors for an effective parallelization!
     wavefunctions fft division:  task group distribution
                                  #TG    x Z-proc =       8     32
     Subspace diagonalization in iterative solution of the eigenvalue problem:
     a serial algorithm will be used

 
     Parallelization info
     --------------------
     sticks:   dense  smooth     PW     G-vecs:    dense   smooth      PW
     Min         119      95     23                19837    14191    1763
     Max         120      96     24                19846    14206    1780
     Sum       30589   24439   6121              5079105  3634441  454335
 
     Using Pencil Decomposition
 


     bravais-lattice index     =            4
     lattice parameter (alat)  =      35.6120  a.u.
     unit-cell volume          =   45937.3577 (a.u.)^3
     number of atoms/cell      =          144
     number of atomic types    =            2
     number of electrons       =      2307.00
     number of Kohn-Sham states=         1385
     kinetic-energy cutoff     =      70.0000  Ry
     charge density cutoff     =     350.0000  Ry
     scf convergence threshold =      1.0E-07
     mixing beta               =       0.7000
     number of iterations used =            8  plain     mixing
     Exchange-correlation= BEEF-VDW
                           (   1   4  43  14   2   0   0)

     celldm(1)=  35.612033  celldm(2)=   0.000000  celldm(3)=   1.174479
     celldm(4)=   0.000000  celldm(5)=   0.000000  celldm(6)=   0.000000

     crystal axes: (cart. coord. in units of alat)
               a(1) = (   1.000000   0.000000   0.000000 )  
               a(2) = (  -0.500000   0.866025   0.000000 )  
               a(3) = (   0.000000   0.000000   1.174479 )  

     reciprocal axes: (cart. coord. in units 2 pi/alat)
               b(1) = (  1.000000  0.577350 -0.000000 )  
               b(2) = (  0.000000  1.154701  0.000000 )  
               b(3) = (  0.000000 -0.000000  0.851442 )  


     PseudoPot. # 1 for Pb read from file:
     //group///packages/espresso/pseudo/psl_1.0.0/pslibrary.1.0.0/pbe/PSEUDOPOTENTIALS/Pb.pbe-dn-kjpaw_psl.1.0.0.UPF
     MD5 check sum: 39ab5b8a6bbd56b7735ad9f188aac93a
     Pseudo is Projector augmented-wave + core cor, Zval = 14.0
     Generated using 'atomic' code by A. Dal Corso  v.7.1
     Shape of augmentation charge: PSQ
     Using radial grid of 1281 points,  6 beta functions with: 
                l(1) =   0
                l(2) =   0
                l(3) =   1
                l(4) =   1
                l(5) =   2
                l(6) =   2
     Q(r) pseudized with 0 coefficients 


     PseudoPot. # 2 for I  read from file:
     //group///packages/espresso/pseudo/psl_1.0.0/pslibrary.1.0.0/pbe/PSEUDOPOTENTIALS/I.pbe-dn-kjpaw_psl.1.0.0.UPF
     MD5 check sum: bfa8781bc1224d19af3f3980e3fab11e
     Pseudo is Projector augmented-wave + core cor, Zval = 17.0
     Generated using 'atomic' code by A. Dal Corso  v.7.1
     Shape of augmentation charge: PSQ
     Using radial grid of 1247 points,  6 beta functions with: 
                l(1) =   0
                l(2) =   0
                l(3) =   1
                l(4) =   1
                l(5) =   2
                l(6) =   2
     Q(r) pseudized with 0 coefficients 


     atomic species   valence    mass     pseudopotential
        Pb            14.00   207.20000     Pb( 1.00)
        I             17.00   126.90447     I ( 1.00)

     No symmetry found


                                    s                        frac. trans.

      isym =  1     identity                                     

 cryst.   s( 1) = (     1          0          0      )
                  (     0          1          0      )
                  (     0          0          1      )

 cart.    s( 1) = (  1.0000000  0.0000000  0.0000000 )
                  (  0.0000000  1.0000000  0.0000000 )
                  (  0.0000000  0.0000000  1.0000000 )


     point group C_1 (1)    
     there are  1 classes
     the character table:

       E    
A      1.00

     the symmetry operations in each class and the name of the first element:

     E        1
          identity                                               

   Cartesian axes

     site n.     atom                  positions (alat units)
         1           Pb  tau(   1) = (   0.1250034   0.2164918   0.3914896  )
         2           Pb  tau(   2) = (   0.1250085   0.2164873   0.7829825  )
         3           Pb  tau(   3) = (   0.0000128   0.4329881   1.1744712  )
         4           Pb  tau(   4) = (   0.0000026   0.4329971   0.3914855  )
         5           Pb  tau(   5) = (   0.0000077   0.4329926   0.7829784  )
         6           Pb  tau(   6) = (  -0.1249881   0.6494934   1.1744671  )
         7           Pb  tau(   7) = (  -0.1249983   0.6495025   0.3914814  )
         8           Pb  tau(   8) = (  -0.1249932   0.6494980   0.7829742  )
         9           Pb  tau(   9) = (  -0.2499889   0.8659988   1.1744630  )
        10           Pb  tau(  10) = (  -0.2499991   0.8660078   0.3914773  )
        11           Pb  tau(  11) = (  -0.2499940   0.8660033   0.7829701  )
        12           Pb  tau(  12) = (   0.3750136   0.2164818   1.1744786  )
        13           Pb  tau(  13) = (   0.3750034   0.2164908   0.3914929  )
        14           Pb  tau(  14) = (   0.3750085   0.2164863   0.7829857  )
        15           Pb  tau(  15) = (   0.2500128   0.4329871   1.1744745  )
        16           Pb  tau(  16) = (   0.2500026   0.4329962   0.3914888  )
        17           Pb  tau(  17) = (   0.2500077   0.4329916   0.7829816  )
        18           Pb  tau(  18) = (   0.1250119   0.6494925   1.1744703  )
        19           Pb  tau(  19) = (   0.1250017   0.6495015   0.3914847  )
        20           Pb  tau(  20) = (   0.1250068   0.6494970   0.7829775  )
        21           Pb  tau(  21) = (   0.0000111   0.8659978   1.1744662  )
        22           Pb  tau(  22) = (   0.0000009   0.8660069   0.3914805  )
        23           Pb  tau(  23) = (   0.0000060   0.8660024   0.7829734  )
        24           Pb  tau(  24) = (   0.6250136   0.2164808   1.1744818  )
        25           Pb  tau(  25) = (   0.6250034   0.2164898   0.3914962  )
        26           Pb  tau(  26) = (   0.6250085   0.2164853   0.7829890  )
        27           Pb  tau(  27) = (   0.5000128   0.4329862   1.1744777  )
        28           Pb  tau(  28) = (   0.5000026   0.4329952   0.3914920  )
        29           Pb  tau(  29) = (   0.5000077   0.4329907   0.7829849  )
        30           Pb  tau(  30) = (   0.3750119   0.6494915   1.1744736  )
        31           Pb  tau(  31) = (   0.3750017   0.6495006   0.3914879  )
        32           Pb  tau(  32) = (   0.3750068   0.6494960   0.7829808  )
        33           Pb  tau(  33) = (   0.2500111   0.8659969   1.1744695  )
        34           Pb  tau(  34) = (   0.2500009   0.8660059   0.3914838  )
        35           Pb  tau(  35) = (   0.2500060   0.8660014   0.7829766  )
        36           Pb  tau(  36) = (   0.8750136   0.2164798   1.1744851  )
        37           Pb  tau(  37) = (   0.8750034   0.2164889   0.3914994  )
        38           Pb  tau(  38) = (   0.8750085   0.2164844   0.7829923  )
        39           Pb  tau(  39) = (   0.7500128   0.4329852   1.1744810  )
        40           Pb  tau(  40) = (   0.7500026   0.4329942   0.3914953  )
        41           Pb  tau(  41) = (   0.7500077   0.4329897   0.7829881  )
        42           Pb  tau(  42) = (   0.6250119   0.6494906   1.1744769  )
        43           Pb  tau(  43) = (   0.6250017   0.6494996   0.3914912  )
        44           Pb  tau(  44) = (   0.6250068   0.6494951   0.7829840  )
        45           Pb  tau(  45) = (   0.5000111   0.8659959   1.1744727  )
        46           Pb  tau(  46) = (   0.5000009   0.8660050   0.3914870  )
        47           Pb  tau(  47) = (   0.5000060   0.8660004   0.7829799  )
        48           I   tau(  48) = (   0.1250054   0.0721550   0.2909325  )
        49           I   tau(  49) = (   0.1250105   0.0721505   0.6824253  )
        50           I   tau(  50) = (   0.1250156   0.0721459   1.0739182  )
        51           I   tau(  51) = (   0.0000045   0.2886603   0.2909283  )
        52           I   tau(  52) = (   0.0000096   0.2886558   0.6824212  )
        53           I   tau(  53) = (   0.0000147   0.2886513   1.0739140  )
        54           I   tau(  54) = (  -0.1249963   0.5051657   0.2909242  )
        55           I   tau(  55) = (  -0.1249912   0.5051612   0.6824171  )
        56           I   tau(  56) = (  -0.1249861   0.5051566   1.0739099  )
        57           I   tau(  57) = (  -0.2499971   0.7216710   0.2909201  )
        58           I   tau(  58) = (  -0.2499920   0.7216665   0.6824129  )
        59           I   tau(  59) = (  -0.2499869   0.7216620   1.0739058  )
        60           I   tau(  60) = (   0.3750054   0.0721540   0.2909357  )
        61           I   tau(  61) = (   0.3750105   0.0721495   0.6824286  )
        62           I   tau(  62) = (   0.3750156   0.0721450   1.0739214  )
        63           I   tau(  63) = (   0.2500045   0.2886594   0.2909316  )
        64           I   tau(  64) = (   0.2500096   0.2886548   0.6824244  )
        65           I   tau(  65) = (   0.2500147   0.2886503   1.0739173  )
        66           I   tau(  66) = (   0.1250037   0.5051647   0.2909275  )
        67           I   tau(  67) = (   0.1250088   0.5051602   0.6824203  )
        68           I   tau(  68) = (   0.1250139   0.5051557   1.0739132  )
        69           I   tau(  69) = (   0.0000029   0.7216701   0.2909233  )
        70           I   tau(  70) = (   0.0000080   0.7216656   0.6824162  )
        71           I   tau(  71) = (   0.0000131   0.7216610   1.0739090  )
        72           I   tau(  72) = (   0.6250054   0.0721530   0.2909390  )
        73           I   tau(  73) = (   0.6250105   0.0721485   0.6824318  )
        74           I   tau(  74) = (   0.6250156   0.0721440   1.0739247  )
        75           I   tau(  75) = (   0.5000045   0.2886584   0.2909348  )
        76           I   tau(  76) = (   0.5000096   0.2886539   0.6824277  )
        77           I   tau(  77) = (   0.5000147   0.2886494   1.0739205  )
        78           I   tau(  78) = (   0.3750037   0.5051638   0.2909307  )
        79           I   tau(  79) = (   0.3750088   0.5051592   0.6824236  )
        80           I   tau(  80) = (   0.3750139   0.5051547   1.0739164  )
        81           I   tau(  81) = (   0.2500029   0.7216691   0.2909266  )
        82           I   tau(  82) = (   0.2500080   0.7216646   0.6824194  )
        83           I   tau(  83) = (   0.2500131   0.7216601   1.0739123  )
        84           I   tau(  84) = (   0.8750054   0.0721521   0.2909422  )
        85           I   tau(  85) = (   0.8750105   0.0721476   0.6824351  )
        86           I   tau(  86) = (   0.8750156   0.0721430   1.0739279  )
        87           I   tau(  87) = (   0.7500045   0.2886574   0.2909381  )
        88           I   tau(  88) = (   0.7500096   0.2886529   0.6824310  )
        89           I   tau(  89) = (   0.7500147   0.2886484   1.0739238  )
        90           I   tau(  90) = (   0.6250037   0.5051628   0.2909340  )
        91           I   tau(  91) = (   0.6250088   0.5051583   0.6824268  )
        92           I   tau(  92) = (   0.6250139   0.5051538   1.0739197  )
        93           I   tau(  93) = (   0.5000029   0.7216681   0.2909299  )
        94           I   tau(  94) = (   0.5000080   0.7216636   0.6824227  )
        95           I   tau(  95) = (   0.5000131   0.7216591   1.0739156  )
        96           I   tau(  96) = (  -0.0000017   0.1443297   0.1005555  )
        97           I   tau(  97) = (   0.0000034   0.1443252   0.4920483  )
        98           I   tau(  98) = (   0.0000085   0.1443207   0.8835412  )
        99           I   tau(  99) = (  -0.1250025   0.3608351   0.1005514  )
       100           I   tau( 100) = (  -0.1249974   0.3608306   0.4920442  )
       101           I   tau( 101) = (  -0.1249923   0.3608260   0.8835371  )
       102           I   tau( 102) = (  -0.2500034   0.5773404   0.1005472  )
       103           I   tau( 103) = (  -0.2499983   0.5773359   0.4920401  )
       104           I   tau( 104) = (  -0.2499932   0.5773314   0.8835329  )
       105           I   tau( 105) = (  -0.3750042   0.7938458   0.1005431  )
       106           I   tau( 106) = (  -0.3749991   0.7938413   0.4920360  )
       107           I   tau( 107) = (  -0.3749940   0.7938368   0.8835288  )
       108           I   tau( 108) = (   0.2499983   0.1443288   0.1005587  )
       109           I   tau( 109) = (   0.2500034   0.1443242   0.4920516  )
       110           I   tau( 110) = (   0.2500085   0.1443197   0.8835444  )
       111           I   tau( 111) = (   0.1249975   0.3608341   0.1005546  )
       112           I   tau( 112) = (   0.1250026   0.3608296   0.4920475  )
       113           I   tau( 113) = (   0.1250077   0.3608251   0.8835403  )
       114           I   tau( 114) = (  -0.0000034   0.5773395   0.1005505  )
       115           I   tau( 115) = (   0.0000017   0.5773350   0.4920433  )
       116           I   tau( 116) = (   0.0000068   0.5773304   0.8835362  )
       117           I   tau( 117) = (  -0.1250042   0.7938448   0.1005464  )
       118           I   tau( 118) = (  -0.1249991   0.7938403   0.4920392  )
       119           I   tau( 119) = (  -0.1249940   0.7938358   0.8835321  )
       120           I   tau( 120) = (   0.4999983   0.1443278   0.1005620  )
       121           I   tau( 121) = (   0.5000034   0.1443233   0.4920548  )
       122           I   tau( 122) = (   0.5000085   0.1443188   0.8835477  )
       123           I   tau( 123) = (   0.3749975   0.3608332   0.1005579  )
       124           I   tau( 124) = (   0.3750026   0.3608286   0.4920507  )
       125           I   tau( 125) = (   0.3750077   0.3608241   0.8835436  )
       126           I   tau( 126) = (   0.2499966   0.5773385   0.1005537  )
       127           I   tau( 127) = (   0.2500017   0.5773340   0.4920466  )
       128           I   tau( 128) = (   0.2500068   0.5773295   0.8835394  )
       129           I   tau( 129) = (   0.1249958   0.7938439   0.1005496  )
       130           I   tau( 130) = (   0.1250009   0.7938394   0.4920425  )
       131           I   tau( 131) = (   0.1250060   0.7938348   0.8835353  )
       132           I   tau( 132) = (   0.7499983   0.1443268   0.1005653  )
       133           I   tau( 133) = (   0.7500034   0.1443223   0.4920581  )
       134           I   tau( 134) = (   0.7500085   0.1443178   0.8835509  )
       135           I   tau( 135) = (   0.6249975   0.3608322   0.1005611  )
       136           I   tau( 136) = (   0.6250026   0.3608277   0.4920540  )
       137           I   tau( 137) = (   0.6250077   0.3608232   0.8835468  )
       138           I   tau( 138) = (   0.4999966   0.5773376   0.1005570  )
       139           I   tau( 139) = (   0.5000017   0.5773330   0.4920499  )
       140           I   tau( 140) = (   0.5000068   0.5773285   0.8835427  )
       141           I   tau( 141) = (   0.3749958   0.7938429   0.1005529  )
       142           I   tau( 142) = (   0.3750009   0.7938384   0.4920457  )
       143           I   tau( 143) = (   0.3750060   0.7938339   0.8835386  )
       144           I   tau( 144) = (   0.1250136   0.2164827   1.1744753  )

   Crystallographic axes

     site n.     atom                  positions (cryst. coord.)
         1           Pb  tau(   1) = (  0.2499950  0.2499832  0.3333306  )
         2           Pb  tau(   2) = (  0.2499975  0.2499780  0.6666639  )
         3           Pb  tau(   3) = (  0.2499986  0.4999716  0.9999938  )
         4           Pb  tau(   4) = (  0.2499936  0.4999820  0.3333271  )
         5           Pb  tau(   5) = (  0.2499961  0.4999768  0.6666604  )
         6           Pb  tau(   6) = (  0.2499972  0.7499704  0.9999902  )
         7           Pb  tau(   7) = (  0.2499922  0.7499809  0.3333236  )
         8           Pb  tau(   8) = (  0.2499947  0.7499757  0.6666569  )
         9           Pb  tau(   9) = (  0.2499957  0.9999693  0.9999867  )
        10           Pb  tau(  10) = (  0.2499908  0.9999797  0.3333201  )
        11           Pb  tau(  11) = (  0.2499932  0.9999745  0.6666534  )
        12           Pb  tau(  12) = (  0.4999994  0.2499716  1.0000000  )
        13           Pb  tau(  13) = (  0.4999944  0.2499821  0.3333334  )
        14           Pb  tau(  14) = (  0.4999969  0.2499768  0.6666667  )
        15           Pb  tau(  15) = (  0.4999980  0.4999705  0.9999965  )
        16           Pb  tau(  16) = (  0.4999930  0.4999809  0.3333299  )
        17           Pb  tau(  17) = (  0.4999955  0.4999757  0.6666632  )
        18           Pb  tau(  18) = (  0.4999966  0.7499693  0.9999930  )
        19           Pb  tau(  19) = (  0.4999916  0.7499798  0.3333264  )
        20           Pb  tau(  20) = (  0.4999941  0.7499745  0.6666597  )
        21           Pb  tau(  21) = (  0.4999952  0.9999682  0.9999895  )
        22           Pb  tau(  22) = (  0.4999902  0.9999786  0.3333228  )
        23           Pb  tau(  23) = (  0.4999927  0.9999734  0.6666562  )
        24           Pb  tau(  24) = (  0.7499989  0.2499705  1.0000028  )
        25           Pb  tau(  25) = (  0.7499939  0.2499809  0.3333362  )
        26           Pb  tau(  26) = (  0.7499964  0.2499757  0.6666695  )
        27           Pb  tau(  27) = (  0.7499975  0.4999694  0.9999993  )
        28           Pb  tau(  28) = (  0.7499925  0.4999798  0.3333326  )
        29           Pb  tau(  29) = (  0.7499950  0.4999746  0.6666660  )
        30           Pb  tau(  30) = (  0.7499960  0.7499682  0.9999958  )
        31           Pb  tau(  31) = (  0.7499910  0.7499786  0.3333291  )
        32           Pb  tau(  32) = (  0.7499935  0.7499734  0.6666625  )
        33           Pb  tau(  33) = (  0.7499946  0.9999671  0.9999923  )
        34           Pb  tau(  34) = (  0.7499896  0.9999775  0.3333256  )
        35           Pb  tau(  35) = (  0.7499921  0.9999723  0.6666590  )
        36           Pb  tau(  36) = (  0.9999983  0.2499694  1.0000056  )
        37           Pb  tau(  37) = (  0.9999933  0.2499798  0.3333389  )
        38           Pb  tau(  38) = (  0.9999958  0.2499746  0.6666723  )
        39           Pb  tau(  39) = (  0.9999969  0.4999682  1.0000021  )
        40           Pb  tau(  40) = (  0.9999919  0.4999787  0.3333354  )
        41           Pb  tau(  41) = (  0.9999944  0.4999735  0.6666687  )
        42           Pb  tau(  42) = (  0.9999955  0.7499671  0.9999986  )
        43           Pb  tau(  43) = (  0.9999905  0.7499775  0.3333319  )
        44           Pb  tau(  44) = (  0.9999930  0.7499723  0.6666652  )
        45           Pb  tau(  45) = (  0.9999941  0.9999659  0.9999951  )
        46           Pb  tau(  46) = (  0.9999891  0.9999764  0.3333284  )
        47           Pb  tau(  47) = (  0.9999916  0.9999712  0.6666617  )
        48           I   tau(  48) = (  0.1666641  0.0833174  0.2477120  )
        49           I   tau(  49) = (  0.1666666  0.0833122  0.5810454  )
        50           I   tau(  50) = (  0.1666691  0.0833070  0.9143787  )
        51           I   tau(  51) = (  0.1666626  0.3333162  0.2477085  )
        52           I   tau(  52) = (  0.1666651  0.3333110  0.5810418  )
        53           I   tau(  53) = (  0.1666676  0.3333058  0.9143752  )
        54           I   tau(  54) = (  0.1666612  0.5833151  0.2477050  )
        55           I   tau(  55) = (  0.1666637  0.5833099  0.5810383  )
        56           I   tau(  56) = (  0.1666662  0.5833047  0.9143717  )
        57           I   tau(  57) = (  0.1666598  0.8333139  0.2477015  )
        58           I   tau(  58) = (  0.1666623  0.8333087  0.5810348  )
        59           I   tau(  59) = (  0.1666648  0.8333035  0.9143682  )
        60           I   tau(  60) = (  0.4166635  0.0833163  0.2477148  )
        61           I   tau(  61) = (  0.4166660  0.0833111  0.5810481  )
        62           I   tau(  62) = (  0.4166685  0.0833058  0.9143815  )
        63           I   tau(  63) = (  0.4166621  0.3333151  0.2477113  )
        64           I   tau(  64) = (  0.4166646  0.3333099  0.5810446  )
        65           I   tau(  65) = (  0.4166671  0.3333047  0.9143780  )
        66           I   tau(  66) = (  0.4166607  0.5833140  0.2477078  )
        67           I   tau(  67) = (  0.4166632  0.5833088  0.5810411  )
        68           I   tau(  68) = (  0.4166657  0.5833035  0.9143744  )
        69           I   tau(  69) = (  0.4166593  0.8333128  0.2477043  )
        70           I   tau(  70) = (  0.4166618  0.8333076  0.5810376  )
        71           I   tau(  71) = (  0.4166643  0.8333024  0.9143709  )
        72           I   tau(  72) = (  0.6666629  0.0833152  0.2477176  )
        73           I   tau(  73) = (  0.6666654  0.0833099  0.5810509  )
        74           I   tau(  74) = (  0.6666679  0.0833047  0.9143842  )
        75           I   tau(  75) = (  0.6666615  0.3333140  0.2477141  )
        76           I   tau(  76) = (  0.6666640  0.3333088  0.5810474  )
        77           I   tau(  77) = (  0.6666665  0.3333036  0.9143807  )
        78           I   tau(  78) = (  0.6666601  0.5833129  0.2477106  )
        79           I   tau(  79) = (  0.6666626  0.5833076  0.5810439  )
        80           I   tau(  80) = (  0.6666651  0.5833024  0.9143772  )
        81           I   tau(  81) = (  0.6666587  0.8333117  0.2477070  )
        82           I   tau(  82) = (  0.6666612  0.8333065  0.5810404  )
        83           I   tau(  83) = (  0.6666637  0.8333013  0.9143737  )
        84           I   tau(  84) = (  0.9166624  0.0833141  0.2477203  )
        85           I   tau(  85) = (  0.9166649  0.0833088  0.5810537  )
        86           I   tau(  86) = (  0.9166674  0.0833036  0.9143870  )
        87           I   tau(  87) = (  0.9166610  0.3333129  0.2477168  )
        88           I   tau(  88) = (  0.9166635  0.3333077  0.5810502  )
        89           I   tau(  89) = (  0.9166660  0.3333025  0.9143835  )
        90           I   tau(  90) = (  0.9166596  0.5833118  0.2477133  )
        91           I   tau(  91) = (  0.9166621  0.5833065  0.5810467  )
        92           I   tau(  92) = (  0.9166646  0.5833013  0.9143800  )
        93           I   tau(  93) = (  0.9166582  0.8333106  0.2477098  )
        94           I   tau(  94) = (  0.9166607  0.8333054  0.5810431  )
        95           I   tau(  95) = (  0.9166632  0.8333002  0.9143765  )
        96           I   tau(  96) = (  0.0833271  0.1666576  0.0856171  )
        97           I   tau(  97) = (  0.0833296  0.1666524  0.4189505  )
        98           I   tau(  98) = (  0.0833321  0.1666472  0.7522838  )
        99           I   tau(  99) = (  0.0833257  0.4166565  0.0856136  )
       100           I   tau( 100) = (  0.0833282  0.4166513  0.4189470  )
       101           I   tau( 101) = (  0.0833307  0.4166460  0.7522803  )
       102           I   tau( 102) = (  0.0833243  0.6666553  0.0856101  )
       103           I   tau( 103) = (  0.0833268  0.6666501  0.4189434  )
       104           I   tau( 104) = (  0.0833293  0.6666449  0.7522768  )
       105           I   tau( 105) = (  0.0833229  0.9166542  0.0856066  )
       106           I   tau( 106) = (  0.0833254  0.9166489  0.4189399  )
       107           I   tau( 107) = (  0.0833279  0.9166437  0.7522733  )
       108           I   tau( 108) = (  0.3333265  0.1666565  0.0856199  )
       109           I   tau( 109) = (  0.3333290  0.1666513  0.4189532  )
       110           I   tau( 110) = (  0.3333315  0.1666461  0.7522866  )
       111           I   tau( 111) = (  0.3333251  0.4166554  0.0856164  )
       112           I   tau( 112) = (  0.3333276  0.4166501  0.4189497  )
       113           I   tau( 113) = (  0.3333301  0.4166449  0.7522831  )
       114           I   tau( 114) = (  0.3333237  0.6666542  0.0856129  )
       115           I   tau( 115) = (  0.3333262  0.6666490  0.4189462  )
       116           I   tau( 116) = (  0.3333287  0.6666438  0.7522795  )
       117           I   tau( 117) = (  0.3333223  0.9166531  0.0856094  )
       118           I   tau( 118) = (  0.3333248  0.9166478  0.4189427  )
       119           I   tau( 119) = (  0.3333273  0.9166426  0.7522760  )
       120           I   tau( 120) = (  0.5833260  0.1666554  0.0856227  )
       121           I   tau( 121) = (  0.5833285  0.1666502  0.4189560  )
       122           I   tau( 122) = (  0.5833310  0.1666450  0.7522893  )
       123           I   tau( 123) = (  0.5833246  0.4166542  0.0856192  )
       124           I   tau( 124) = (  0.5833271  0.4166490  0.4189525  )
       125           I   tau( 125) = (  0.5833296  0.4166438  0.7522858  )
       126           I   tau( 126) = (  0.5833232  0.6666531  0.0856157  )
       127           I   tau( 127) = (  0.5833257  0.6666479  0.4189490  )
       128           I   tau( 128) = (  0.5833282  0.6666427  0.7522823  )
       129           I   tau( 129) = (  0.5833218  0.9166519  0.0856121  )
       130           I   tau( 130) = (  0.5833243  0.9166467  0.4189455  )
       131           I   tau( 131) = (  0.5833268  0.9166415  0.7522788  )
       132           I   tau( 132) = (  0.8333254  0.1666543  0.0856254  )
       133           I   tau( 133) = (  0.8333279  0.1666491  0.4189588  )
       134           I   tau( 134) = (  0.8333304  0.1666438  0.7522921  )
       135           I   tau( 135) = (  0.8333240  0.4166531  0.0856219  )
       136           I   tau( 136) = (  0.8333265  0.4166479  0.4189553  )
       137           I   tau( 137) = (  0.8333290  0.4166427  0.7522886  )
       138           I   tau( 138) = (  0.8333226  0.6666520  0.0856184  )
       139           I   tau( 139) = (  0.8333251  0.6666468  0.4189518  )
       140           I   tau( 140) = (  0.8333276  0.6666415  0.7522851  )
       141           I   tau( 141) = (  0.8333212  0.9166508  0.0856149  )
       142           I   tau( 142) = (  0.8333237  0.9166456  0.4189482  )
       143           I   tau( 143) = (  0.8333262  0.9166404  0.7522816  )
       144           I   tau( 144) = (  0.2500000  0.2499727  0.9999973  )

     number of k points=     1  Gaussian smearing, width (Ry)=  0.0100
                       cart. coord. in units 2pi/alat
        k(    1) = (   0.0000000   0.0000000   0.0000000), wk =   2.0000000

                       cryst. coord.
        k(    1) = (   0.0000000   0.0000000   0.0000000), wk =   2.0000000

     Dense  grid:  5079105 G-vectors     FFT dimensions: ( 216, 216, 250)

     Smooth grid:  3634441 G-vectors     FFT dimensions: ( 192, 192, 225)

     Dynamical RAM for                 wfc:      37.49 MB

     Dynamical RAM for     wfc (w. buffer):      37.49 MB

     Dynamical RAM for           str. fact:       0.61 MB

     Dynamical RAM for           local pot:       0.00 MB

     Dynamical RAM for          nlocal pot:      70.16 MB

     Dynamical RAM for                qrad:       3.00 MB

     Dynamical RAM for          rho,v,vnew:       1.98 MB

     Dynamical RAM for               rhoin:       0.66 MB

     Dynamical RAM for            rho*nmix:       4.84 MB

     Dynamical RAM for           G-vectors:       1.24 MB

     Dynamical RAM for          h,s,v(r/c):    1404.95 MB

     Dynamical RAM for          <psi|beta>:      54.78 MB

     Dynamical RAM for                 psi:     149.96 MB

     Dynamical RAM for                hpsi:     149.96 MB

     Dynamical RAM for                spsi:     149.96 MB

     Dynamical RAM for      wfcinit/wfcrot:     118.90 MB

     Dynamical RAM for           addusdens:      85.68 MB

     Dynamical RAM for          addusforce:     144.34 MB

     Dynamical RAM for         addusstress:      60.85 MB

     Estimated static dynamical RAM per process >     117.83 MB

     Estimated max dynamical RAM per process >       1.98 GB

     Estimated total dynamical RAM >     508.07 GB

     Atomic positions and unit cell read from directory:
     ./PbI2.save/
     Atomic positions from file used, from input discarded
 

     Check: negative core charge=   -0.000001

     The initial density is read from file :
     ./PbI2.save/charge-density



     %%%%%%%%%%%%%%%%%%%%%%%%%%%%%%%%%%%%%%%%%%%%%%%%%%%%%%%%%%%%%%%%%%%%%%%%
     %                                                                      %
     % You are using vdW-DF, which was implemented by the Thonhauser group. %
     % Please cite the following two papers that made this development      %
     % possible and the two reviews that describe the various versions:     %
     %                                                                      %
     %   T. Thonhauser et al., PRL 115, 136402 (2015).                      %
     %   T. Thonhauser et al., PRB 76, 125112 (2007).                       %
     %   K. Berland et al., Rep. Prog. Phys. 78, 066501 (2015).             %
     %   D.C. Langreth et al., J. Phys.: Condens. Matter 21, 084203 (2009). %
     %                                                                      %
     % If you are calculating stress with vdW-DF, please also cite:         %
     %                                                                      %
     %   R. Sabatini et al., J. Phys.: Condens. Matter 24, 424209 (2012).   %
     %                                                                      %
     %%%%%%%%%%%%%%%%%%%%%%%%%%%%%%%%%%%%%%%%%%%%%%%%%%%%%%%%%%%%%%%%%%%%%%%%

     %%%%%%%%%%%%%%%%%%%%%%%%%%%%%%%%%%%%%%%%%%%%%%%%%%%%%%%%%%%%%%%%%%%%%%%%
     %                                                                      %
     %  vdW-DF NEWS:                                                        %
     %                                                                      %
     %  * vdW-DF3 is now available. DOI: 10.1021/acs.jctc.0c00471           %
     %    use with input_dft = 'vdW-DF3-opt1' or 'vdW-DF3-opt2'             %
     %                                                                      %
     %  * Unscreened and range-separated vdW-DF hybrid functionals          %
     %    DOI: 10.1063/1.4986522 and 10.1088/1361-648X/ac2ad2               %
     %    use with input_dft = 'vdW-DF-cx0' (etc) and 'vdW-DF-ahcx'         %
     %                                                                      %
     %%%%%%%%%%%%%%%%%%%%%%%%%%%%%%%%%%%%%%%%%%%%%%%%%%%%%%%%%%%%%%%%%%%%%%%%


     Carrying out vdW-DF run using the following parameters:
     Nqs    =  20  Npoints =  1024  r_max =  100.000
     q_mesh =  0.00001000  0.04494208  0.09755937  0.15916263
               0.23128650  0.31572767  0.41458969  0.53033537
               0.66584808  0.82450364  1.01025438  1.22772762
               1.48234092  1.78043706  2.12944203  2.53805004
               3.01644009  3.57652955  4.23227104  5.00000000


     -----------------------------------------------
     Non-local corr. energy    =      69.34137029 Ry
     -----------------------------------------------

     Starting wfcs from file
     Checking if some PAW data can be deallocated... 
       PAW data deallocated on  162 nodes for type:  1
       PAW data deallocated on   94 nodes for type:  2

     total cpu time spent up to now is       46.0 secs

     Self-consistent Calculation

     iteration #  1     ecut=    70.00 Ry     beta= 0.70
     Davidson diagonalization with overlap

---- Real-time Memory Report at c_bands before calling an iterative solver
           380 MiB given to the printing process from OS
             0 MiB allocation reported by mallinfo(arena+hblkhd)
       1921548 MiB available memory on the node where the printing process lives
------------------
     ethr =  1.00E-05,  avg # of iterations =  1.0

     Threshold (ethr) on eigenvalues was too large:
     Diagonalizing with lowered threshold

     Davidson diagonalization with overlap

---- Real-time Memory Report at c_bands before calling an iterative solver
          1414 MiB given to the printing process from OS
             0 MiB allocation reported by mallinfo(arena+hblkhd)
       1901103 MiB available memory on the node where the printing process lives
------------------
     ethr =  2.45E-13,  avg # of iterations = 16.0


     -----------------------------------------------
     Non-local corr. energy    =      69.34137047 Ry
     -----------------------------------------------


     total cpu time spent up to now is      534.6 secs

     End of self-consistent calculation

          k = 0.0000 0.0000 0.0000 (454335 PWs)   bands (ev):

   -41.7841 -41.7841 -41.7434 -41.7432 -41.7314 -40.8800 -40.8799 -40.8796
   -40.8795 -40.8792 -40.8789 -40.8689 -40.8688 -40.8685 -40.8685 -40.8682
   -40.8679 -40.8655 -40.8655 -40.8652 -40.8651 -40.8648 -40.8645 -40.8283
   -40.8283 -40.8280 -40.8280 -40.8277 -40.8277 -40.8277 -40.8275 -40.8274
   -40.8274 -40.8271 -40.8269 -40.8025 -40.8024 -40.8024 -40.8024 -40.8024
   -40.8023 -40.8014 -40.8014 -40.8013 -40.8013 -40.8011 -40.8011 -40.8008
   -40.8008 -40.8007 -40.8007 -40.8007 -40.8007 -40.8007 -40.8007 -40.8007
   -40.8007 -40.8006 -40.8005 -40.8005 -40.8005 -40.8005 -40.8005 -40.7974
   -40.7973 -40.7972 -40.7972 -40.7972 -40.7972 -40.7968 -40.7967 -40.7966
   -40.7966 -40.7966 -40.7966 -40.7907 -40.7906 -40.7906 -40.7906 -40.7906
   -40.7906 -40.7902 -40.7902 -40.7902 -40.7902 -40.7901 -40.7901 -40.7900
   -40.7900 -40.7900 -40.7900 -40.7900 -40.7900 -40.7897 -40.7897 -40.7897
   -40.7897 -40.7896 -40.7896 -40.7895 -40.7895 -40.7895 -40.7895 -40.7894
   -40.7894 -40.7867 -40.7867 -40.7867 -40.7867 -40.7866 -40.7866 -40.7866
   -40.7866 -40.7866 -40.7866 -40.7864 -40.7863 -40.7863 -40.7863 -40.7863
   -40.7863 -40.7862 -40.7862 -40.7862 -40.7861 -40.7861 -40.7861 -40.7861
   -40.7861 -40.7860 -40.7860 -40.7860 -40.7860 -40.7860 -40.7860 -40.7860
   -40.7860 -40.7860 -40.7860 -40.7860 -40.7860 -40.7860 -40.7860 -40.7859
   -40.7859 -40.7859 -40.7859 -40.7859 -40.7859 -40.7859 -40.7859 -40.7859
   -40.7859 -40.7858 -40.7858 -40.7858 -40.7857 -40.7857 -40.7857 -40.7857
   -40.7857 -40.7857 -40.7857 -40.7857 -40.7857 -40.7856 -40.7856 -40.7856
   -40.7856 -40.7856 -40.7856 -40.7856 -40.7856 -40.7856 -40.7856 -40.7855
   -40.7855 -40.7855 -40.7855 -40.7855 -40.7855 -40.7855 -40.7855 -40.7855
   -40.7855 -40.7855 -40.7855 -40.7855 -40.7855 -40.7854 -40.7854 -40.7854
   -40.7854 -40.7854 -40.7854 -40.7854 -40.7854 -40.7853 -40.7853 -40.7853
   -40.7853 -40.7853 -40.7853 -40.7853 -40.7853 -40.7853 -40.7852 -40.7852
   -40.7852 -40.7852 -40.7852 -40.7852 -40.7852 -40.7852 -40.7852 -40.7852
   -40.7852 -40.7851 -40.7851 -40.7851 -40.7851 -40.7851 -40.7851 -40.7851
   -40.7851 -40.7851 -40.7851 -40.7851 -40.7851 -40.7851 -40.7851 -40.7851
   -40.7851 -40.7851 -40.7851 -40.7851 -40.7851 -40.7851 -40.7851 -40.7850
   -40.7850 -40.7850 -40.7850 -40.7850 -40.7850 -40.7850 -40.7850 -40.7850
   -40.7850 -40.7850 -40.7850 -40.7850 -40.7850 -40.7850 -40.7850 -40.7850
   -40.7849 -40.7849 -40.7849 -40.7849 -40.7849 -40.7849 -40.7849 -40.7849
   -40.7849 -40.7849 -40.7849 -40.7849 -40.7849 -40.7849 -40.7849 -40.7849
   -40.7849 -40.7849 -40.7848 -40.7848 -40.7848 -40.7846 -40.7846 -40.7846
   -40.7846 -40.7846 -40.7846 -40.7845 -40.7845 -40.7845 -40.7845 -40.7845
   -40.7845 -40.7845 -40.7845 -40.7845 -40.7845 -40.7845 -40.7845 -40.7844
   -40.7844 -40.7844 -40.7844 -40.7844 -40.7844 -40.7844 -40.7844 -40.7844
   -40.7844 -40.7843 -40.7843 -40.7843 -40.7843 -40.7843 -40.7843 -40.7843
   -40.7843 -40.7843 -40.7843 -40.7843 -40.7843 -40.7842 -40.7842 -40.7842
   -40.7842 -40.7842 -40.7842 -40.7842 -40.7842 -40.7842 -40.7842 -40.7842
   -40.7842 -40.7842 -40.7842 -40.7839 -40.7839 -40.7839 -40.7839 -40.7839
   -40.7839 -40.7839 -40.7839 -40.7839 -40.7839 -40.7839 -40.7839 -40.7838
   -40.7838 -40.7838 -40.7838 -40.7838 -40.7838 -40.7838 -40.7838 -40.7837
   -40.7837 -40.7837 -40.7837 -40.7577 -40.7577 -40.7576 -40.7576 -40.7575
   -40.7575 -40.7575 -40.7575 -40.7575 -40.7574 -40.7574 -40.7573 -40.7570
   -40.7570 -40.7569 -40.7569 -40.7569 -40.7569 -40.7569 -40.7569 -40.7568
   -40.7568 -40.7568 -40.7567 -40.7567 -40.7567 -40.7567 -40.7566 -40.7566
   -40.7566 -40.7565 -40.7565 -40.7564 -40.7564 -40.7564 -40.7564 -40.7564
   -40.7563 -40.7563 -40.7563 -40.7562 -40.7561 -40.7561 -40.7561 -40.7558
   -40.7557 -40.7552 -40.7551 -40.7551 -40.7551 -40.7551 -40.7551 -40.7550
   -40.7550 -40.7550 -40.7550 -40.7550 -40.7549 -40.7549 -40.7549 -40.7549
   -40.7549 -40.7549 -40.7549 -40.7549 -40.7548 -40.7548 -40.7548 -40.7548
   -40.7547 -40.7547 -40.7547 -40.7547 -40.7547 -40.7547 -40.7547 -40.7547
   -40.7547 -40.7547 -40.7547 -40.7546 -40.7546 -40.7546 -40.7546 -40.7546
   -40.7546 -40.7546 -40.7546 -40.7545 -40.7545 -40.7545 -40.7545 -40.7545
   -40.7545 -40.7545 -40.7544 -40.7544 -40.7544 -40.7543 -40.7543 -40.7541
   -40.7540 -40.7540 -40.7540 -40.7540 -40.7540 -40.7540 -40.7540 -40.7540
   -40.7539 -40.7539 -40.7539 -40.7538 -40.7538 -40.7538 -40.7538 -40.7537
   -40.7537 -40.7537 -40.7537 -40.7537 -40.7537 -40.7536 -40.7536 -40.7536
   -40.7536 -40.7535 -40.7535 -40.7534 -40.7534 -12.9597 -12.9597 -12.9581
   -12.9581 -12.9580 -12.9580 -12.9526 -12.9525 -12.9523 -12.9522 -12.9522
   -12.9522 -12.9509 -12.9509 -12.9508 -12.9508 -12.9508 -12.9508 -12.9480
   -12.9479 -12.9479 -12.9479 -12.9478 -12.9478 -12.9471 -12.9470 -12.9470
   -12.9470 -12.9466 -12.9465 -12.9406 -12.9406 -12.9403 -12.9403 -12.9402
   -12.9402 -12.9389 -12.9388 -12.9388 -12.9388 -12.9387 -12.9387 -12.9377
   -12.9376 -12.9376 -12.9376 -12.9361 -12.9361 -12.9353 -12.9352 -12.9350
   -12.9350 -12.9350 -12.9349 -12.9346 -12.9346 -12.9346 -12.9346 -12.9339
   -12.9339 -12.9337 -12.9336 -12.9334 -12.9334 -12.9333 -12.9333 -12.9332
   -12.9331 -12.9331 -12.9331 -12.9331 -12.9331 -12.9327 -12.9327 -12.9324
   -12.9324 -12.9324 -12.9323 -12.9321 -12.9320 -12.9320 -12.9320 -12.9316
   -12.9315 -12.9308 -12.9308 -12.9307 -12.9307 -12.9300 -12.9299 -12.9299
   -12.9299 -12.9299 -12.9299 -12.9298 -12.9298 -12.9291 -12.9291 -12.9291
   -12.9291 -12.9289 -12.9289 -12.9283 -12.9283 -12.9283 -12.9283 -12.9283
   -12.9282 -12.9282 -12.9281 -12.9280 -12.9280 -12.9280 -12.9279 -12.9277
   -12.9277 -12.9277 -12.9276 -12.9268 -12.9267 -12.9267 -12.9267 -12.9266
   -12.9265 -12.9260 -12.9259 -12.9259 -12.9259 -12.9258 -12.9258 -12.9252
   -12.9252 -12.9252 -12.9251 -12.9247 -12.9247 -12.9245 -12.9245 -12.9244
   -12.9244 -12.9236 -12.9235 -12.9234 -12.9234 -12.9228 -12.9227 -12.9227
   -12.9227 -12.9215 -12.9215 -12.9214 -12.9214 -12.9214 -12.9214 -12.9204
   -12.9203 -12.9203 -12.9196 -12.9196 -12.9195 -12.9195 -12.9176 -12.9175
   -12.9160 -12.9134 -12.9133 -12.9093 -12.9092 -12.9092 -12.9077 -12.9076
   -12.9049 -12.9040 -12.9033 -12.9023 -12.9023 -12.8990 -12.8989 -12.8972
   -12.8966 -12.8966 -12.8963 -12.8963 -12.8954 -12.8954 -12.8953 -12.8953
   -12.8944 -12.8944 -12.8942 -12.8939 -12.8936 -12.8936 -12.8926 -12.8923
   -12.8922 -12.8922 -12.8920 -12.8920 -12.8912 -12.8912 -12.8904 -12.8898
   -12.8897 -12.8896 -12.8890 -12.8880 -12.8880 -12.8877 -12.8877 -12.8874
   -12.8847 -12.8847 -12.8833 -12.8813 -12.8813 -12.8811 -12.8811 -12.8810
   -12.8809 -12.8796 -12.8796 -12.8791 -12.8790 -12.8785 -12.8785 -12.8785
   -12.8775 -12.8775 -12.8771 -12.8771 -12.8759 -12.8751 -12.8749 -12.8748
    -8.4485  -8.1088  -8.0601  -8.0098  -7.9167  -7.9167  -7.9149  -7.9132
    -7.9132  -7.9036  -7.8706  -7.8706  -7.8700  -7.8686  -7.8680  -7.8680
    -7.8512  -7.8511  -7.8476  -7.8476  -7.8476  -7.6893  -7.6722  -7.6636
    -7.6549  -7.6549  -7.6484  -7.6484  -7.6480  -7.6477  -7.6362  -7.6318
    -7.6318  -7.6297  -7.6296  -7.6294  -7.6275  -7.6275  -7.6266  -7.6166
    -7.6165  -7.6153  -7.6096  -7.6095  -7.6022  -7.6018  -7.6017  -7.5923
    -7.5862  -7.5861  -7.5836  -7.5832  -7.5820  -7.5819  -7.5819  -7.5819
    -7.5813  -7.5756  -7.5755  -7.5672  -7.5667  -7.5658  -7.5658  -7.5306
    -7.5285  -7.5231  -7.5231  -7.5207  -7.5206  -7.5127  -7.5121  -7.5121
    -7.5113  -7.5113  -7.5090  -7.5076  -7.5076  -7.5072  -7.5072  -7.5072
    -7.5063  -7.5059  -7.5005  -7.5005  -7.4990  -7.4981  -7.4981  -7.4962
    -7.4875  -7.4874  -7.4687  -7.4687  -7.4644  -7.4643  -7.4638  -7.4635
    -7.3463  -3.6540  -3.6540  -3.6525  -3.6488  -3.6488  -3.6470  -3.6403
    -3.6403  -3.6399  -3.6399  -3.6396  -3.6388  -3.6387  -3.6384  -3.6384
    -3.6381  -3.6381  -3.6378  -3.6146  -3.6146  -3.6090  -3.6038  -3.6036
    -3.6035  -3.6006  -3.6006  -3.4396  -3.3884  -3.3883  -3.3874  -3.3859
    -3.3858  -3.3852  -3.3761  -3.3760  -3.3741  -3.3737  -3.3737  -3.3733
    -3.3437  -3.3379  -3.3379  -3.3370  -3.3370  -3.1974  -3.1443  -3.1279
     0.8544   0.8545   0.8903   0.8997   0.8997   0.8999   1.0374   1.0376
     1.0909   1.1434   1.1435   1.1636   1.1855   1.1855   1.1860   1.1866
     1.1867   1.1879   1.1932   1.2081   1.2081   1.2812   1.2813   1.3282
     1.3698   1.3789   1.3789   1.3809   1.3809   1.4275   1.4351   1.4380
     1.4380   1.4384   1.4405   1.4405   1.4467   1.4468   1.4498   1.4573
     1.4573   1.4726   1.4726   1.4743   1.4775   1.4775   1.4795   1.4795
     1.4795   1.4863   1.4896   1.5006   1.5079   1.5080   1.5163   1.5164
     1.5249   1.6052   1.7092   1.7092   1.7409   1.7423   1.7423   1.7558
     1.7558   1.7634   1.7826   1.8048   1.8295   1.8295   1.8369   1.8369
     1.8381   1.8393   1.8404   1.8404   1.8655   1.8655   1.8924   1.8924
     1.9055   1.9350   1.9475   1.9476   1.9710   1.9808   1.9808   1.9820
     1.9880   1.9880   1.9929   1.9929   2.0110   2.0147   2.0232   2.0232
     2.0232   2.0314   2.0326   2.0326   2.0338   2.0352   2.0352   2.0394
     2.0394   2.0974   2.1209   2.1209   2.1210   2.1210   2.1332   2.1723
     2.1724   2.1861   2.1862   2.1894   2.1911   2.2122   2.2122   2.2161
     2.2164   2.2164   2.2214   2.2479   2.2479   2.2605   2.2610   2.2665
     2.2665   2.2690   2.2699   2.2968   2.2968   2.3060   2.3061   2.3101
     2.3164   2.3183   2.3195   2.3196   2.3239   2.3239   2.3363   2.4244
     2.4503   2.4503   2.5005   2.5312   2.5312   2.5392   2.5392   2.5504
     2.5629   2.5796   2.5796   2.5820   2.5820   2.5864   2.5914   2.5914
     2.5917   2.5979   2.6012   2.6012   2.6369   2.6894   2.6894   2.6955
     2.6955   2.7236   2.7296   2.7337   2.7337   2.7375   2.7375   2.7414
     2.7534   2.7534   2.7613   2.7756   2.7756   2.7884   2.7885   2.7933
     2.7933   2.7967   2.8130   2.8159   2.8160   2.8161   2.8475   2.8475
     2.8541   2.8541   2.8573   2.8604   2.8614   2.8614   2.8618   2.8637
     2.8637   2.8759   2.8792   2.8792   2.8872   2.8872   2.8894   2.9118
     2.9118   2.9401   2.9402   2.9421   2.9446   2.9471   2.9471   2.9479
     2.9489   2.9489   2.9502   2.9502   2.9520   2.9521   2.9537   2.9537
     2.9545   2.9545   2.9564   2.9597   2.9597   2.9600   2.9600   2.9601
     2.9652   2.9806   2.9806   2.9837   2.9837   2.9864   2.9902   2.9902
     2.9983   3.0049   3.0064   3.0064   3.0104   3.0270   3.0347   3.0349
     3.1242   3.1242   3.1365   3.1431   3.1431   3.1590   3.1719   3.1844
     3.1844   3.1876   3.1876   3.2019   3.2141   3.2141   3.2744   3.3329
     3.3387   3.3388   3.3441   3.3442   3.3464   3.3467   3.3469   3.3469
     3.3480   3.3485   3.3486   3.3590   3.3646   3.3646   3.3646   3.3703
     3.3703   3.3737   3.3737   3.3804   3.3811   3.3970   3.3970   3.4031
     3.9961   4.0263   4.0264   5.9620   6.0204   6.1728   6.4790   6.4825
     6.4825   6.4843   6.4843   6.4848   6.5069   6.5098   6.5098   6.5532
     6.5543   6.5544   6.5965   6.5965   6.6341   6.7755   6.7828   6.7828
     6.7936   6.7936   6.7974   6.7994   6.7994   6.8045   6.8068   6.8068
     6.8146   6.8146   6.8654   6.8654   6.9636   6.9637   6.9981   7.0094
     7.0094   7.0095   7.0102   7.0137   7.0137   7.0196   7.0196   7.0355
     7.0544   7.0846   7.0846   7.1643   7.1643   7.1646   7.1673   7.1673
     7.1677   7.1830   7.1878   7.1879   7.1912   7.2224   7.2224   7.2483
     7.2488   7.2488   7.2507   7.2508   7.2571   7.2775   7.2857   7.2857
     7.2883   7.2883   7.2892   7.2956   7.2976   7.2976   7.3052   7.3058
     7.3058   7.3061   7.3113   7.3114   7.3135   7.3135   7.3137   7.3142
     7.3142   7.3206   7.3231   7.3264   7.3264   7.3696   7.3756   7.3756
     7.3981   7.3981   7.4180   7.4236   7.4236   7.4405   7.4477   7.4477
     7.4483   7.4629   7.4858   7.4858   7.4869   7.4869   7.4881   7.4975
     7.4982   7.5133   7.5133   7.5194   7.5195   7.5392   7.5407   7.5407
     7.5441   7.5602   7.5603   7.6296   7.6806   7.6806   7.6875   7.6903
     7.6910   7.6910   7.6933   7.6979   7.6979   7.7007   7.7027   7.7027
     7.7279   7.7280   7.7412   7.7412   7.7715   8.0397   8.0404   8.0405
     9.1769   9.1769   9.1817   9.5816   9.5840   9.5840   9.5920   9.5921
     9.6130   9.7984   9.8121   9.8121   9.8158   9.8158   9.8282   9.8438
     9.8599   9.8599   9.8624   9.8691   9.8691   9.8855  10.0463  10.0516
    10.0516  10.0532  10.0532  10.0849  10.1899  10.1899  10.2134  10.2135
    10.2153  10.2298  10.2764  10.2833  10.2833  10.2895  10.2895  10.2958
    10.2958  10.2989  10.2990  10.3033  10.3079  10.3140  10.3189  10.3269
    10.3822  10.3822  10.3939  10.4079  10.4079  10.4111  10.6186  10.6259
    10.6385  10.6385  10.6518  10.6519  10.7662  10.7662  10.7714  10.7750
    10.7750  10.7813  10.7813  10.7825  10.7867  10.7870  10.7871  10.8049
    10.8933  10.9311  10.9311  10.9381  10.9402  10.9402  10.9800  11.0167
    11.0251  11.0251  11.0263  11.0263  11.0337  11.0350  11.0359  11.0360
    11.0425

     occupation numbers 
     1.0000   1.0000   1.0000   1.0000   1.0000   1.0000   1.0000   1.0000
     1.0000   1.0000   1.0000   1.0000   1.0000   1.0000   1.0000   1.0000
     1.0000   1.0000   1.0000   1.0000   1.0000   1.0000   1.0000   1.0000
     1.0000   1.0000   1.0000   1.0000   1.0000   1.0000   1.0000   1.0000
     1.0000   1.0000   1.0000   1.0000   1.0000   1.0000   1.0000   1.0000
     1.0000   1.0000   1.0000   1.0000   1.0000   1.0000   1.0000   1.0000
     1.0000   1.0000   1.0000   1.0000   1.0000   1.0000   1.0000   1.0000
     1.0000   1.0000   1.0000   1.0000   1.0000   1.0000   1.0000   1.0000
     1.0000   1.0000   1.0000   1.0000   1.0000   1.0000   1.0000   1.0000
     1.0000   1.0000   1.0000   1.0000   1.0000   1.0000   1.0000   1.0000
     1.0000   1.0000   1.0000   1.0000   1.0000   1.0000   1.0000   1.0000
     1.0000   1.0000   1.0000   1.0000   1.0000   1.0000   1.0000   1.0000
     1.0000   1.0000   1.0000   1.0000   1.0000   1.0000   1.0000   1.0000
     1.0000   1.0000   1.0000   1.0000   1.0000   1.0000   1.0000   1.0000
     1.0000   1.0000   1.0000   1.0000   1.0000   1.0000   1.0000   1.0000
     1.0000   1.0000   1.0000   1.0000   1.0000   1.0000   1.0000   1.0000
     1.0000   1.0000   1.0000   1.0000   1.0000   1.0000   1.0000   1.0000
     1.0000   1.0000   1.0000   1.0000   1.0000   1.0000   1.0000   1.0000
     1.0000   1.0000   1.0000   1.0000   1.0000   1.0000   1.0000   1.0000
     1.0000   1.0000   1.0000   1.0000   1.0000   1.0000   1.0000   1.0000
     1.0000   1.0000   1.0000   1.0000   1.0000   1.0000   1.0000   1.0000
     1.0000   1.0000   1.0000   1.0000   1.0000   1.0000   1.0000   1.0000
     1.0000   1.0000   1.0000   1.0000   1.0000   1.0000   1.0000   1.0000
     1.0000   1.0000   1.0000   1.0000   1.0000   1.0000   1.0000   1.0000
     1.0000   1.0000   1.0000   1.0000   1.0000   1.0000   1.0000   1.0000
     1.0000   1.0000   1.0000   1.0000   1.0000   1.0000   1.0000   1.0000
     1.0000   1.0000   1.0000   1.0000   1.0000   1.0000   1.0000   1.0000
     1.0000   1.0000   1.0000   1.0000   1.0000   1.0000   1.0000   1.0000
     1.0000   1.0000   1.0000   1.0000   1.0000   1.0000   1.0000   1.0000
     1.0000   1.0000   1.0000   1.0000   1.0000   1.0000   1.0000   1.0000
     1.0000   1.0000   1.0000   1.0000   1.0000   1.0000   1.0000   1.0000
     1.0000   1.0000   1.0000   1.0000   1.0000   1.0000   1.0000   1.0000
     1.0000   1.0000   1.0000   1.0000   1.0000   1.0000   1.0000   1.0000
     1.0000   1.0000   1.0000   1.0000   1.0000   1.0000   1.0000   1.0000
     1.0000   1.0000   1.0000   1.0000   1.0000   1.0000   1.0000   1.0000
     1.0000   1.0000   1.0000   1.0000   1.0000   1.0000   1.0000   1.0000
     1.0000   1.0000   1.0000   1.0000   1.0000   1.0000   1.0000   1.0000
     1.0000   1.0000   1.0000   1.0000   1.0000   1.0000   1.0000   1.0000
     1.0000   1.0000   1.0000   1.0000   1.0000   1.0000   1.0000   1.0000
     1.0000   1.0000   1.0000   1.0000   1.0000   1.0000   1.0000   1.0000
     1.0000   1.0000   1.0000   1.0000   1.0000   1.0000   1.0000   1.0000
     1.0000   1.0000   1.0000   1.0000   1.0000   1.0000   1.0000   1.0000
     1.0000   1.0000   1.0000   1.0000   1.0000   1.0000   1.0000   1.0000
     1.0000   1.0000   1.0000   1.0000   1.0000   1.0000   1.0000   1.0000
     1.0000   1.0000   1.0000   1.0000   1.0000   1.0000   1.0000   1.0000
     1.0000   1.0000   1.0000   1.0000   1.0000   1.0000   1.0000   1.0000
     1.0000   1.0000   1.0000   1.0000   1.0000   1.0000   1.0000   1.0000
     1.0000   1.0000   1.0000   1.0000   1.0000   1.0000   1.0000   1.0000
     1.0000   1.0000   1.0000   1.0000   1.0000   1.0000   1.0000   1.0000
     1.0000   1.0000   1.0000   1.0000   1.0000   1.0000   1.0000   1.0000
     1.0000   1.0000   1.0000   1.0000   1.0000   1.0000   1.0000   1.0000
     1.0000   1.0000   1.0000   1.0000   1.0000   1.0000   1.0000   1.0000
     1.0000   1.0000   1.0000   1.0000   1.0000   1.0000   1.0000   1.0000
     1.0000   1.0000   1.0000   1.0000   1.0000   1.0000   1.0000   1.0000
     1.0000   1.0000   1.0000   1.0000   1.0000   1.0000   1.0000   1.0000
     1.0000   1.0000   1.0000   1.0000   1.0000   1.0000   1.0000   1.0000
     1.0000   1.0000   1.0000   1.0000   1.0000   1.0000   1.0000   1.0000
     1.0000   1.0000   1.0000   1.0000   1.0000   1.0000   1.0000   1.0000
     1.0000   1.0000   1.0000   1.0000   1.0000   1.0000   1.0000   1.0000
     1.0000   1.0000   1.0000   1.0000   1.0000   1.0000   1.0000   1.0000
     1.0000   1.0000   1.0000   1.0000   1.0000   1.0000   1.0000   1.0000
     1.0000   1.0000   1.0000   1.0000   1.0000   1.0000   1.0000   1.0000
     1.0000   1.0000   1.0000   1.0000   1.0000   1.0000   1.0000   1.0000
     1.0000   1.0000   1.0000   1.0000   1.0000   1.0000   1.0000   1.0000
     1.0000   1.0000   1.0000   1.0000   1.0000   1.0000   1.0000   1.0000
     1.0000   1.0000   1.0000   1.0000   1.0000   1.0000   1.0000   1.0000
     1.0000   1.0000   1.0000   1.0000   1.0000   1.0000   1.0000   1.0000
     1.0000   1.0000   1.0000   1.0000   1.0000   1.0000   1.0000   1.0000
     1.0000   1.0000   1.0000   1.0000   1.0000   1.0000   1.0000   1.0000
     1.0000   1.0000   1.0000   1.0000   1.0000   1.0000   1.0000   1.0000
     1.0000   1.0000   1.0000   1.0000   1.0000   1.0000   1.0000   1.0000
     1.0000   1.0000   1.0000   1.0000   1.0000   1.0000   1.0000   1.0000
     1.0000   1.0000   1.0000   1.0000   1.0000   1.0000   1.0000   1.0000
     1.0000   1.0000   1.0000   1.0000   1.0000   1.0000   1.0000   1.0000
     1.0000   1.0000   1.0000   1.0000   1.0000   1.0000   1.0000   1.0000
     1.0000   1.0000   1.0000   1.0000   1.0000   1.0000   1.0000   1.0000
     1.0000   1.0000   1.0000   1.0000   1.0000   1.0000   1.0000   1.0000
     1.0000   1.0000   1.0000   1.0000   1.0000   1.0000   1.0000   1.0000
     1.0000   1.0000   1.0000   1.0000   1.0000   1.0000   1.0000   1.0000
     1.0000   1.0000   1.0000   1.0000   1.0000   1.0000   1.0000   1.0000
     1.0000   1.0000   1.0000   1.0000   1.0000   1.0000   1.0000   1.0000
     1.0000   1.0000   1.0000   1.0000   1.0000   1.0000   1.0000   1.0000
     1.0000   1.0000   1.0000   1.0000   1.0000   1.0000   1.0000   1.0000
     1.0000   1.0000   1.0000   1.0000   1.0000   1.0000   1.0000   1.0000
     1.0000   1.0000   1.0000   1.0000   1.0000   1.0000   1.0000   1.0000
     1.0000   1.0000   1.0000   1.0000   1.0000   1.0000   1.0000   1.0000
     1.0000   1.0000   1.0000   1.0000   1.0000   1.0000   1.0000   1.0000
     1.0000   1.0000   1.0000   1.0000   1.0000   1.0000   1.0000   1.0000
     1.0000   1.0000   1.0000   1.0000   1.0000   1.0000   1.0000   1.0000
     1.0000   1.0000   1.0000   1.0000   1.0000   1.0000   1.0000   1.0000
     1.0000   1.0000   1.0000   1.0000   1.0000   1.0000   1.0000   1.0000
     1.0000   1.0000   1.0000   1.0000   1.0000   1.0000   1.0000   1.0000
     1.0000   1.0000   1.0000   1.0000   1.0000   1.0000   1.0000   1.0000
     1.0000   1.0000   1.0000   1.0000   1.0000   1.0000   1.0000   1.0000
     1.0000   1.0000   1.0000   1.0000   1.0000   1.0000   1.0000   1.0000
     1.0000   1.0000   1.0000   1.0000   1.0000   1.0000   1.0000   1.0000
     1.0000   1.0000   1.0000   1.0000   1.0000   1.0000   1.0000   1.0000
     1.0000   1.0000   1.0000   1.0000   1.0000   1.0000   1.0000   1.0000
     1.0000   1.0000   1.0000   1.0000   1.0000   1.0000   1.0000   1.0000
     1.0000   1.0000   1.0000   1.0000   1.0000   1.0000   1.0000   1.0000
     1.0000   1.0000   1.0000   1.0000   1.0000   1.0000   1.0000   1.0000
     1.0000   1.0000   1.0000   1.0000   1.0000   1.0000   1.0000   1.0000
     1.0000   1.0000   1.0000   1.0000   1.0000   1.0000   1.0000   1.0000
     1.0000   1.0000   1.0000   1.0000   1.0000   1.0000   1.0000   1.0000
     1.0000   1.0000   1.0000   1.0000   1.0000   1.0000   1.0000   1.0000
     1.0000   1.0000   1.0000   1.0000   1.0000   1.0000   1.0000   1.0000
     1.0000   1.0000   1.0000   1.0000   1.0000   1.0000   1.0000   1.0000
     1.0000   1.0000   1.0000   1.0000   1.0000   1.0000   1.0000   1.0000
     1.0000   1.0000   1.0000   1.0000   1.0000   1.0000   1.0000   1.0000
     1.0000   1.0000   1.0000   1.0000   1.0000   1.0000   1.0000   1.0000
     1.0000   1.0000   1.0000   1.0000   1.0000   1.0000   1.0000   1.0000
     1.0000   1.0000   1.0000   1.0000   1.0000   1.0000   1.0000   1.0000
     1.0000   1.0000   1.0000   1.0000   1.0000   1.0000   1.0000   1.0000
     1.0000   1.0000   1.0000   1.0000   1.0000   1.0000   1.0000   1.0000
     1.0000   1.0000   1.0000   1.0000   1.0000   1.0000   1.0000   1.0000
     1.0000   1.0000   1.0000   1.0000   1.0000   1.0000   1.0000   1.0000
     1.0000   1.0000   1.0000   1.0000   1.0000   1.0000   1.0000   1.0000
     1.0000   1.0000   1.0000   1.0000   1.0000   1.0000   1.0000   1.0000
     1.0000   1.0000   1.0000   1.0000   1.0000   1.0000   1.0000   1.0000
     1.0000   1.0000   1.0000   1.0000   1.0000   1.0000   1.0000   1.0000
     1.0000   1.0000   1.0000   1.0000   1.0000   1.0000   1.0000   1.0000
     1.0000   1.0000   1.0000   1.0000   1.0000   1.0000   1.0000   1.0000
     1.0000   1.0000   1.0000   1.0000   1.0000   1.0000   1.0000   1.0000
     1.0000   1.0000   1.0000   1.0000   1.0000   1.0000   1.0000   1.0000
     1.0000   1.0000   1.0000   1.0000   1.0000   1.0000   1.0000   1.0000
     1.0000   1.0000   1.0000   1.0000   1.0000   1.0000   1.0000   1.0000
     1.0000   1.0000   1.0000   1.0000   1.0000   1.0000   1.0000   1.0000
     1.0000   1.0000   1.0000   1.0000   1.0000   1.0000   1.0000   1.0000
     1.0000   1.0000   1.0000   1.0000   1.0000   1.0000   1.0000   1.0000
     1.0000   1.0000   1.0000   1.0000   1.0000   1.0000   1.0000   1.0000
     1.0000   1.0000   1.0000   1.0000   1.0000   1.0000   1.0000   1.0000
     1.0000   1.0000   1.0000   1.0000   1.0000   1.0000   1.0000   1.0000
     1.0000   1.0000   1.0000   1.0000   1.0000   1.0000   1.0000   1.0000
     1.0000   1.0000   1.0000   1.0000   1.0000   1.0000   1.0000   1.0000
     1.0000   1.0000   1.0000   1.0000   1.0000   1.0000   1.0000   1.0000
     1.0000   1.0000   1.0000   1.0000   1.0000   1.0000   1.0000   1.0000
     1.0000   1.0000   1.0000   1.0000   1.0000   1.0000   1.0000   1.0000
     1.0000   1.0000   1.0000   1.0000   1.0000   1.0000   1.0000   1.0000
     1.0000   1.0000   1.0000   1.0000   1.0000   1.0000   1.0000   1.0000
     1.0000   1.0000   1.0000   1.0000   1.0000   1.0000   1.0000   1.0000
     1.0000   1.0000   1.0000   1.0000   1.0000   1.0000   1.0000   1.0000
     1.0000   1.0000   1.0000   1.0000   1.0000   1.0000   1.0000   1.0000
     1.0000   1.0000   1.0000   1.0000   1.0000   1.0000   1.0000   1.0000
     1.0000   1.0000   1.0000   1.0000   1.0000   1.0000   1.0000   1.0000
     0.5832   0.4587   0.4582   0.0000   0.0000   0.0000   0.0000   0.0000
     0.0000   0.0000   0.0000   0.0000   0.0000   0.0000   0.0000   0.0000
     0.0000   0.0000   0.0000   0.0000   0.0000   0.0000   0.0000   0.0000
     0.0000   0.0000   0.0000   0.0000   0.0000   0.0000   0.0000   0.0000
     0.0000   0.0000   0.0000   0.0000   0.0000   0.0000   0.0000   0.0000
     0.0000   0.0000   0.0000   0.0000   0.0000   0.0000   0.0000   0.0000
     0.0000   0.0000   0.0000   0.0000   0.0000   0.0000   0.0000   0.0000
     0.0000   0.0000   0.0000   0.0000   0.0000   0.0000   0.0000   0.0000
     0.0000   0.0000   0.0000   0.0000   0.0000   0.0000   0.0000   0.0000
     0.0000   0.0000   0.0000   0.0000   0.0000   0.0000   0.0000   0.0000
     0.0000   0.0000   0.0000   0.0000   0.0000   0.0000   0.0000   0.0000
     0.0000   0.0000   0.0000   0.0000   0.0000   0.0000   0.0000   0.0000
     0.0000   0.0000   0.0000   0.0000   0.0000   0.0000   0.0000   0.0000
     0.0000   0.0000   0.0000   0.0000   0.0000   0.0000   0.0000   0.0000
     0.0000   0.0000   0.0000   0.0000   0.0000   0.0000   0.0000   0.0000
     0.0000   0.0000   0.0000   0.0000   0.0000   0.0000   0.0000   0.0000
     0.0000   0.0000   0.0000   0.0000   0.0000   0.0000   0.0000   0.0000
     0.0000   0.0000   0.0000   0.0000   0.0000   0.0000   0.0000   0.0000
     0.0000   0.0000   0.0000   0.0000   0.0000   0.0000   0.0000   0.0000
     0.0000   0.0000   0.0000   0.0000   0.0000   0.0000   0.0000   0.0000
     0.0000   0.0000   0.0000   0.0000   0.0000   0.0000   0.0000   0.0000
     0.0000   0.0000   0.0000   0.0000   0.0000   0.0000   0.0000   0.0000
     0.0000   0.0000   0.0000   0.0000   0.0000   0.0000   0.0000   0.0000
     0.0000   0.0000   0.0000   0.0000   0.0000   0.0000   0.0000   0.0000
     0.0000   0.0000   0.0000   0.0000   0.0000   0.0000   0.0000   0.0000
     0.0000   0.0000   0.0000   0.0000   0.0000   0.0000   0.0000   0.0000
     0.0000   0.0000   0.0000   0.0000   0.0000   0.0000   0.0000   0.0000
     0.0000   0.0000   0.0000   0.0000   0.0000   0.0000   0.0000   0.0000
     0.0000   0.0000   0.0000   0.0000   0.0000   0.0000   0.0000   0.0000
     0.0000

     the Fermi energy is     4.0163 ev

!    total energy              =  -96801.37850855 Ry
     total all-electron energy =  -3345910.572224 Ry
     estimated scf accuracy    <          5.8E-09 Ry
     smearing contrib. (-TS)   =      -0.01674129 Ry
     internal energy E=F+TS    =  -96801.36176725 Ry

     The total energy is F=E-TS. E is the sum of the following terms:
     one-electron contribution =  -17980.65144953 Ry
     hartree contribution      =   10036.90776419 Ry
     xc contribution           =   -6824.95129143 Ry
     ewald contribution        =  -14870.55753852 Ry
     one-center paw contrib.   =  -67162.10925196 Ry
      -> PAW hartree energy AE =      95.91296984 Ry
      -> PAW hartree energy PS =     -96.14977119 Ry
      -> PAW xc energy AE      =    -798.43074897 Ry
      -> PAW xc energy PS      =      33.31067266 Ry
      -> total E_H with PAW    =   10036.67096283 Ry
      -> total E_XC with PAW   =   -7590.07136775 Ry

     convergence has been achieved in   1 iterations


     -----------------------------------------------
     Non-local corr. energy    =      69.34137047 Ry
     -----------------------------------------------


     Forces acting on atoms (cartesian axes, Ry/au):

     atom    1 type  1   force =     0.00000106   -0.00000124   -0.00005649
     atom    2 type  1   force =     0.00000119   -0.00000096    0.00006342
     atom    3 type  1   force =    -0.00045337    0.00079161   -0.00000091
     atom    4 type  1   force =     0.00000864   -0.00000392   -0.00007430
     atom    5 type  1   force =    -0.00000120   -0.00001065    0.00008106
     atom    6 type  1   force =    -0.00000341    0.00000321   -0.00000462
     atom    7 type  1   force =     0.00001626    0.00001079   -0.00006451
     atom    8 type  1   force =    -0.00001596   -0.00000620    0.00007121
     atom    9 type  1   force =     0.00045461   -0.00079507   -0.00000902
     atom   10 type  1   force =     0.00000531    0.00000843   -0.00007410
     atom   11 type  1   force =    -0.00000850    0.00000417    0.00008428
     atom   12 type  1   force =     0.00091776   -0.00000132   -0.00000683
     atom   13 type  1   force =    -0.00000452   -0.00000916   -0.00007480
     atom   14 type  1   force =    -0.00000889    0.00000650    0.00008417
     atom   15 type  1   force =     0.00045519    0.00079150   -0.00000210
     atom   16 type  1   force =    -0.00000739   -0.00000451   -0.00007382
     atom   17 type  1   force =     0.00000378   -0.00001175    0.00008163
     atom   18 type  1   force =    -0.00000006   -0.00001605    0.00006791
     atom   19 type  1   force =    -0.00000005   -0.00007822   -0.00013703
     atom   20 type  1   force =    -0.00000059    0.00003278    0.00009349
     atom   21 type  1   force =    -0.00001926    0.00001171    0.00006966
     atom   22 type  1   force =    -0.00007069    0.00004062   -0.00013627
     atom   23 type  1   force =     0.00002629   -0.00001432    0.00009645
     atom   24 type  1   force =    -0.00000231    0.00000111   -0.00000520
     atom   25 type  1   force =    -0.00000048   -0.00001740   -0.00006502
     atom   26 type  1   force =    -0.00000116    0.00001723    0.00007239
     atom   27 type  1   force =    -0.00001935   -0.00000957   -0.00007873
     atom   28 type  1   force =     0.00002913    0.00001391   -0.00008599
     atom   29 type  1   force =    -0.00007063   -0.00003994    0.00014424
     atom   30 type  1   force =     0.00000272    0.00000201   -0.00000630
     atom   31 type  1   force =    -0.00001355    0.00001030   -0.00006391
     atom   32 type  1   force =     0.00001704   -0.00000732    0.00007131
     atom   33 type  1   force =     0.00001797    0.00001177    0.00006949
     atom   34 type  1   force =     0.00007036    0.00004034   -0.00013667
     atom   35 type  1   force =    -0.00002677   -0.00001458    0.00009676
     atom   36 type  1   force =    -0.00091835   -0.00000211   -0.00000765
     atom   37 type  1   force =     0.00000560   -0.00000796   -0.00007675
     atom   38 type  1   force =     0.00000688    0.00000561    0.00008016
     atom   39 type  1   force =     0.00001538   -0.00000860   -0.00007797
     atom   40 type  1   force =    -0.00002843    0.00001363   -0.00008819
     atom   41 type  1   force =     0.00006730   -0.00004014    0.00014096
     atom   42 type  1   force =    -0.00000089    0.00002342   -0.00007729
     atom   43 type  1   force =     0.00000015   -0.00003109   -0.00008867
     atom   44 type  1   force =    -0.00000069    0.00008204    0.00014200
     atom   45 type  1   force =    -0.00045342   -0.00079513   -0.00001194
     atom   46 type  1   force =    -0.00000238    0.00000863   -0.00007566
     atom   47 type  1   force =     0.00000885    0.00000291    0.00008262
     atom   48 type  2   force =     0.00000494   -0.00000014    0.00004302
     atom   49 type  2   force =    -0.00000092    0.00001124    0.00001263
     atom   50 type  2   force =    -0.00000217    0.00001547    0.00007460
     atom   51 type  2   force =    -0.00000162    0.00000666    0.00004517
     atom   52 type  2   force =     0.00000576   -0.00000064    0.00002638
     atom   53 type  2   force =     0.00002958   -0.00000525    0.00010402
     atom   54 type  2   force =    -0.00000820   -0.00000780    0.00003992
     atom   55 type  2   force =     0.00000671   -0.00001479    0.00002850
     atom   56 type  2   force =     0.00004290    0.00027780    0.00022327
     atom   57 type  2   force =    -0.00000994   -0.00001025    0.00004063
     atom   58 type  2   force =    -0.00000626    0.00000827    0.00002041
     atom   59 type  2   force =     0.00028345   -0.00013979    0.00021535
     atom   60 type  2   force =     0.00028446   -0.00016308    0.00038057
     atom   61 type  2   force =    -0.00001775    0.00000907   -0.00003353
     atom   62 type  2   force =    -0.00010701    0.00006914   -0.00016173
     atom   63 type  2   force =     0.00000260    0.00000257    0.00004270
     atom   64 type  2   force =    -0.00001065   -0.00000017    0.00001900
     atom   65 type  2   force =    -0.00004146   -0.00000890    0.00009720
     atom   66 type  2   force =    -0.00000012    0.00033400    0.00039269
     atom   67 type  2   force =    -0.00000211   -0.00001958   -0.00002373
     atom   68 type  2   force =    -0.00001096   -0.00014232   -0.00015886
     atom   69 type  2   force =     0.00001239    0.00000068    0.00004915
     atom   70 type  2   force =     0.00000931   -0.00000161   -0.00000890
     atom   71 type  2   force =     0.00005129    0.00001608   -0.00002698
     atom   72 type  2   force =    -0.00000039   -0.00001160    0.00004959
     atom   73 type  2   force =     0.00000122   -0.00000738   -0.00001147
     atom   74 type  2   force =     0.00000232   -0.00005023   -0.00002871
     atom   75 type  2   force =     0.00000084    0.00001552    0.00003755
     atom   76 type  2   force =    -0.00001100    0.00000505    0.00002399
     atom   77 type  2   force =     0.00024580   -0.00017401    0.00021790
     atom   78 type  2   force =     0.00000951   -0.00000676    0.00004201
     atom   79 type  2   force =    -0.00000797   -0.00001100    0.00002485
     atom   80 type  2   force =    -0.00003796    0.00029197    0.00022073
     atom   81 type  2   force =    -0.00001126    0.00000071    0.00005047
     atom   82 type  2   force =    -0.00000903    0.00000030   -0.00001046
     atom   83 type  2   force =    -0.00005456    0.00002021   -0.00002908
     atom   84 type  2   force =    -0.00028746   -0.00016561    0.00038874
     atom   85 type  2   force =     0.00001693    0.00001150   -0.00003226
     atom   86 type  2   force =     0.00011047    0.00008370   -0.00016945
     atom   87 type  2   force =    -0.00000009    0.00001696    0.00003825
     atom   88 type  2   force =     0.00001442    0.00000448    0.00002864
     atom   89 type  2   force =    -0.00022457   -0.00016970    0.00021829
     atom   90 type  2   force =     0.00000006   -0.00000043    0.00001973
     atom   91 type  2   force =     0.00000078   -0.00000299    0.00003229
     atom   92 type  2   force =     0.00000791   -0.00000461    0.00009287
     atom   93 type  2   force =     0.00001157   -0.00001170    0.00004389
     atom   94 type  2   force =     0.00000529    0.00000817    0.00001818
     atom   95 type  2   force =    -0.00027722   -0.00013552    0.00021161
     atom   96 type  2   force =     0.00003253    0.00003483   -0.00008463
     atom   97 type  2   force =     0.00000734    0.00000477   -0.00002594
     atom   98 type  2   force =    -0.00001695    0.00001660   -0.00004908
     atom   99 type  2   force =     0.00012556   -0.00006690    0.00015932
     atom  100 type  2   force =     0.00002072   -0.00001023    0.00002418
     atom  101 type  2   force =    -0.00028431    0.00016716   -0.00037849
     atom  102 type  2   force =    -0.00004145   -0.00003248    0.00003375
     atom  103 type  2   force =    -0.00000498   -0.00000407    0.00000652
     atom  104 type  2   force =    -0.00000416   -0.00001494   -0.00005109
     atom  105 type  2   force =     0.00000230    0.00013675    0.00018828
     atom  106 type  2   force =    -0.00000114    0.00002157    0.00002252
     atom  107 type  2   force =    -0.00000081   -0.00034412   -0.00040366
     atom  108 type  2   force =    -0.00003091    0.00002578   -0.00008262
     atom  109 type  2   force =    -0.00000915    0.00000565   -0.00002814
     atom  110 type  2   force =     0.00000736    0.00000605   -0.00005675
     atom  111 type  2   force =    -0.00000495   -0.00002035   -0.00008574
     atom  112 type  2   force =     0.00000067   -0.00000802   -0.00003288
     atom  113 type  2   force =    -0.00001236    0.00001145   -0.00004489
     atom  114 type  2   force =    -0.00026795    0.00011264   -0.00021669
     atom  115 type  2   force =     0.00001027   -0.00001357   -0.00003027
     atom  116 type  2   force =     0.00001387    0.00000408   -0.00004224
     atom  117 type  2   force =    -0.00003217   -0.00028949   -0.00020671
     atom  118 type  2   force =    -0.00000371    0.00001272   -0.00002819
     atom  119 type  2   force =     0.00002328   -0.00000119   -0.00004488
     atom  120 type  2   force =     0.00023417    0.00017779   -0.00020612
     atom  121 type  2   force =    -0.00001080   -0.00000257   -0.00002603
     atom  122 type  2   force =     0.00001045   -0.00001266   -0.00004341
     atom  123 type  2   force =    -0.00012680   -0.00006950    0.00017708
     atom  124 type  2   force =    -0.00002049   -0.00000895    0.00001941
     atom  125 type  2   force =     0.00029021    0.00017251   -0.00039510
     atom  126 type  2   force =     0.00026293    0.00011576   -0.00021177
     atom  127 type  2   force =    -0.00000794   -0.00001229   -0.00003250
     atom  128 type  2   force =    -0.00001865    0.00001107   -0.00004652
     atom  129 type  2   force =    -0.00000280   -0.00000576   -0.00008957
     atom  130 type  2   force =     0.00000200    0.00000141   -0.00003240
     atom  131 type  2   force =     0.00000047   -0.00000181   -0.00002479
     atom  132 type  2   force =    -0.00023859    0.00018278   -0.00021282
     atom  133 type  2   force =     0.00001136   -0.00000165   -0.00002526
     atom  134 type  2   force =    -0.00000292   -0.00000746   -0.00004225
     atom  135 type  2   force =     0.00000339    0.00005155    0.00003192
     atom  136 type  2   force =     0.00000006    0.00000563    0.00000724
     atom  137 type  2   force =     0.00000612    0.00000990   -0.00005331
     atom  138 type  2   force =     0.00004265   -0.00002916    0.00003731
     atom  139 type  2   force =     0.00000439   -0.00000316    0.00000196
     atom  140 type  2   force =     0.00000718   -0.00001121   -0.00005523
     atom  141 type  2   force =     0.00002668   -0.00029502   -0.00020708
     atom  142 type  2   force =     0.00000509    0.00001138   -0.00003044
     atom  143 type  2   force =    -0.00002443    0.00000463   -0.00004815
     atom  144 type  2   force =    -0.00000160    0.00001137    0.00001402
     The non-local contrib.  to forces
     atom    1 type  1   force =     0.00000018   -0.00003603   -0.00040771
     atom    2 type  1   force =     0.00002006   -0.00004156    0.00041540
     atom    3 type  1   force =     0.00037597   -0.00059093    0.00005457
     atom    4 type  1   force =    -0.00099364   -0.00083508    0.00018908
     atom    5 type  1   force =     0.00121180    0.00042187   -0.00019534
     atom    6 type  1   force =     0.00002313   -0.00004131    0.00001894
     atom    7 type  1   force =    -0.00031187   -0.00020341   -0.00049222
     atom    8 type  1   force =     0.00032041    0.00014292    0.00049341
     atom    9 type  1   force =    -0.00033015    0.00053052   -0.00001615
     atom   10 type  1   force =    -0.00120371   -0.00049209    0.00017365
     atom   11 type  1   force =     0.00100961    0.00078063   -0.00016879
     atom   12 type  1   force =    -0.00061992   -0.00006167    0.00001088
     atom   13 type  1   force =    -0.00021060    0.00124875    0.00016861
     atom   14 type  1   force =    -0.00018750   -0.00131397   -0.00018335
     atom   15 type  1   force =    -0.00034625   -0.00058114    0.00006159
     atom   16 type  1   force =     0.00099797   -0.00083565    0.00018577
     atom   17 type  1   force =    -0.00119751    0.00041310   -0.00017185
     atom   18 type  1   force =     0.00001386   -0.00066035   -0.00013020
     atom   19 type  1   force =     0.00000234    0.00110030    0.00048160
     atom   20 type  1   force =     0.00001040    0.00030059    0.00068688
     atom   21 type  1   force =    -0.00052353    0.00025793   -0.00013254
     atom   22 type  1   force =     0.00099108   -0.00061268    0.00046460
     atom   23 type  1   force =     0.00029240   -0.00019671    0.00066877
     atom   24 type  1   force =     0.00002074   -0.00004107   -0.00001458
     atom   25 type  1   force =     0.00000662    0.00033304   -0.00051004
     atom   26 type  1   force =     0.00001483   -0.00040204    0.00047523
     atom   27 type  1   force =    -0.00052897   -0.00035181    0.00012912
     atom   28 type  1   force =     0.00029199    0.00014126   -0.00068872
     atom   29 type  1   force =     0.00101529    0.00053438   -0.00049092
     atom   30 type  1   force =     0.00000906   -0.00004441    0.00001154
     atom   31 type  1   force =     0.00031606   -0.00020688   -0.00049822
     atom   32 type  1   force =    -0.00029387    0.00014349    0.00050199
     atom   33 type  1   force =     0.00056258    0.00026104   -0.00013345
     atom   34 type  1   force =    -0.00098521   -0.00060991    0.00046794
     atom   35 type  1   force =    -0.00027133   -0.00019424    0.00066730
     atom   36 type  1   force =     0.00064738   -0.00004894   -0.00000419
     atom   37 type  1   force =     0.00022142    0.00124757    0.00016867
     atom   38 type  1   force =     0.00021367   -0.00131452   -0.00019023
     atom   39 type  1   force =     0.00056086   -0.00034737    0.00013379
     atom   40 type  1   force =    -0.00027921    0.00014472   -0.00068134
     atom   41 type  1   force =    -0.00097512    0.00053112   -0.00047968
     atom   42 type  1   force =     0.00001800    0.00058674    0.00015137
     atom   43 type  1   force =     0.00000770   -0.00035884   -0.00066848
     atom   44 type  1   force =     0.00001131   -0.00118392   -0.00046808
     atom   45 type  1   force =     0.00035353    0.00050698   -0.00000934
     atom   46 type  1   force =     0.00121225   -0.00049052    0.00017192
     atom   47 type  1   force =    -0.00098230    0.00078393   -0.00016132
     atom   48 type  2   force =     0.00001084   -0.00038788    0.24829371
     atom   49 type  2   force =     0.00000190    0.00002614    0.24649725
     atom   50 type  2   force =    -0.00000139   -0.06910457    0.20272318
     atom   51 type  2   force =    -0.00034336    0.00021807    0.24829167
     atom   52 type  2   force =     0.00000541    0.00002554    0.24650364
     atom   53 type  2   force =    -0.05979845    0.03454463    0.20276922
     atom   54 type  2   force =    -0.00003313    0.00002551    0.24777312
     atom   55 type  2   force =    -0.00011957   -0.00002238    0.24636455
     atom   56 type  2   force =    -0.00308201    0.00189327    0.24367459
     atom   57 type  2   force =    -0.00000586   -0.00002569    0.24777928
     atom   58 type  2   force =    -0.00009035   -0.00007384    0.24635790
     atom   59 type  2   force =     0.00010257   -0.00361002    0.24368160
     atom   60 type  2   force =    -0.00114988    0.00066312    0.24560400
     atom   61 type  2   force =    -0.00059783    0.00035137    0.24708840
     atom   62 type  2   force =    -0.00018096    0.00011693    0.24608855
     atom   63 type  2   force =     0.00034204    0.00021054    0.24829194
     atom   64 type  2   force =    -0.00002242    0.00001769    0.24649781
     atom   65 type  2   force =     0.05975125    0.03452567    0.20277387
     atom   66 type  2   force =    -0.00000725   -0.00128777    0.24563028
     atom   67 type  2   force =    -0.00001422   -0.00067107    0.24709192
     atom   68 type  2   force =    -0.00002092   -0.00019827    0.24608225
     atom   69 type  2   force =     0.00018188    0.00011345    0.24785896
     atom   70 type  2   force =     0.00000081    0.00001481    0.24647761
     atom   71 type  2   force =    -0.00000025    0.00001001    0.24534822
     atom   72 type  2   force =    -0.00000545   -0.00020878    0.24786407
     atom   73 type  2   force =    -0.00000644    0.00000151    0.24647789
     atom   74 type  2   force =    -0.00000930    0.00001060    0.24534323
     atom   75 type  2   force =     0.00001998    0.00004756    0.24777587
     atom   76 type  2   force =     0.00002314    0.00015109    0.24636147
     atom   77 type  2   force =     0.00315991    0.00174236    0.24368492
     atom   78 type  2   force =     0.00003262    0.00002313    0.24777618
     atom   79 type  2   force =     0.00011216   -0.00002163    0.24635797
     atom   80 type  2   force =     0.00307314    0.00190345    0.24367474
     atom   81 type  2   force =    -0.00019034    0.00011269    0.24785929
     atom   82 type  2   force =    -0.00002036    0.00001737    0.24647598
     atom   83 type  2   force =    -0.00002366    0.00001332    0.24534412
     atom   84 type  2   force =     0.00114261    0.00066570    0.24560937
     atom   85 type  2   force =     0.00058431    0.00035792    0.24708722
     atom   86 type  2   force =     0.00016838    0.00013332    0.24607502
     atom   87 type  2   force =    -0.00002862    0.00004803    0.24777577
     atom   88 type  2   force =    -0.00003511    0.00015179    0.24636333
     atom   89 type  2   force =    -0.00315438    0.00174361    0.24368700
     atom   90 type  2   force =    -0.00000206    0.00001648    0.24803019
     atom   91 type  2   force =    -0.00000556    0.00000990    0.24717089
     atom   92 type  2   force =     0.00000063    0.00001645    0.24468630
[...]
              0.138150826157589E+02
             -0.766445697602412E+02
              0.621663025401906E+03
             -0.356384837073181E+02
              0.133705311457763E+03
              0.448299135131026E+03
              0.983772697483932E+02
             -0.353792065564916E+03
             -0.515639815283907E+03
              0.540138331867411E+01
             -0.579948646396421E+03
              0.196778630836911E+03
             -0.117414826627548E+03
             -0.272362272661026E+03
              0.244939171848604E+03
              0.940265132506283E+02
              0.220954275651613E+03
              0.196045796743786E+02
              0.351897427156201E+03
             -0.575062351146043E+03
             -0.526545282629450E+02
             -0.501548209157630E+03
              0.904710583886836E+02
              0.271612591742869E+03
             -0.500878255185899E+02
             -0.188878859681622E+03
              0.404134095923680E+03
             -0.187384833705005E+03
              0.131653438767686E+03
             -0.117516701929415E+03
              0.288526840660219E+03
              0.348393805132544E+03
             -0.150276999784838E+03
              0.299747475616381E+03
              0.115023686408401E+03
             -0.309038773974952E+03
             -0.184885128083472E+03
              0.498435249045086E+03
              0.236217702469186E+03
             -0.228000077720069E+02
             -0.670691397780356E+02
              0.732632088947637E+03
              0.439352763645178E+03
              0.161014270318949E+03
             -0.469448444906452E+03
              0.735337660664569E+03
             -0.332576003292673E+03
             -0.412284802826296E+03
             -0.638568610088882E+03
              0.307813599961167E+03
             -0.584255998064565E+03
              0.253381516403053E+03
              0.416031900144907E+03
              0.308336964709607E+03
              0.654436632813629E+02
              0.183822629255109E+03
             -0.460490120630376E+03
             -0.163751044904766E+03
             -0.148475487624221E+03
              0.222479847384634E+03
              0.496588058170105E+03
              0.489608989189145E+03
              0.374743027095203E+03
             -0.924880601592231E+02
              0.133100846770066E+03
              0.186369269803322E+02
             -0.147149818897572E+03
              0.219562210216147E+03
              0.210182790890908E+03
             -0.299900145051460E+03
             -0.303726806555823E+03
             -0.139195609550110E+03
              0.322612911148355E+03
              0.164205058761739E+03
             -0.219688214623315E+03
             -0.382682640431560E+03
             -0.525694972868089E+03
              0.109730594302314E+02
              0.149665761670974E+03
             -0.203411089958001E+03
              0.746827215935349E+03
              0.702555079002877E+01
             -0.867516932759442E+03
              0.217555812687867E+03
              0.358063008902621E+03
             -0.130015537281873E+03
              0.137465878354370E+02
             -0.196214406901268E+03
              0.333107013067089E+03
              0.164406868533614E+03
             -0.438378847832807E+03
              0.520596380660489E+03
              0.354135363834475E+02
             -0.207926684693878E+03
             -0.256295266003703E+03
              0.104360006413987E+04
              0.466485578505975E+03
             -0.117080398173108E+03
              0.257423230013425E+03
             -0.508561659751720E+03
             -0.110320034260722E+03
             -0.452007034038602E+03
              0.174625810948181E+03
              0.324445732720055E+03
              0.356832316626482E+03
             -0.156416134510059E+03
              0.270039020445529E+02
              0.444588885689674E+03
              0.142221634812019E+03
              0.265026405587553E+03
              0.107805086440817E+03
             -0.597030825808240E+02
              0.113540677075116E+01
             -0.826952336488409E+02
              0.921445549125801E+02
              0.309592652011693E+02
             -0.403868667298159E+03
              0.618727771254260E+03
              0.238143064929490E+03
             -0.438484529013154E+03
             -0.322219754566042E+03
             -0.454833409646668E+03
             -0.197187336832961E+03
             -0.143043094399045E+03
             -0.359800937911732E+03
             -0.355170092255771E+03
              0.427676431796236E+03
              0.340389263501140E+03
             -0.470155837593607E+02
              0.510990081000468E+03
              0.736479911075803E+02
             -0.821133114600701E+03
              0.440867979035883E+03
              0.752735998025948E+02
              0.346249777750294E+03
              0.468113117164885E+02
              0.390159567778292E+02
              0.705645358720476E+02
              0.187131620197364E+03
             -0.342648162322302E+03
             -0.161672793208272E+03
             -0.323947075560333E+03
             -0.268149320676748E+03
              0.111683275696766E+03
             -0.297502365044951E+03
              0.143377301606201E+03
              0.196899466382638E+03
             -0.182342323005855E+03
             -0.116428928125078E+03
              0.762876772451250E+01
              0.510400249932085E+03
              0.772232297878591E+02
              0.490001784525272E+03
              0.175657654860981E+03
             -0.647830027760442E+03
             -0.214837896043145E+03
              0.220936104322723E+03
              0.509719431706716E+03
              0.842011043980455E+02
              0.209508113160289E+03
              0.469048006335052E+03
             -0.271616725448726E+03
             -0.416990363300390E+03
              0.578154656991417E+03
              0.336008427071988E+02
             -0.611095476033798E+03
              0.223267925051591E+03
              0.386762784072730E+03
             -0.990117836429281E+02
             -0.402790758702803E+03
              0.839042962455837E+02
              0.173442964154428E+02
             -0.195729613685204E+03
              0.749327482821491E+02
             -0.652011876470332E+02
              0.909148116256660E+03
              0.264614860613661E+03
             -0.385036716182892E+03
              0.113732850534321E+03
              0.553584552142613E+03
             -0.374157856247878E+03
             -0.974668044278319E+02
             -0.353906770005855E+03
              0.283549356119436E+03
              0.896804665132204E+02
              0.187504602802123E+03
              0.339372008322782E+02
              0.643104952990978E+03
             -0.365766016294116E+03
             -0.288882195910083E+03
             -0.278837570484462E+03
              0.244974995388100E+03
              0.639024523769385E+03
             -0.106800896431617E+03
              0.261464376479082E+03
             -0.371339821412530E+03
              0.712548931721528E+02
             -0.118883540847108E+03
              0.259361111449257E+02
             -0.143944221716838E+03
             -0.117384980280755E+03
             -0.115293190809384E+03
              0.950016382949680E+02
              0.185688979350560E+03
             -0.404977639362773E+03
              0.299834983641468E+03
             -0.482695034492405E+03
              0.364193177854289E+03
             -0.384937853345168E+03
              0.623896634590462E+03
              0.342713143693581E+03
              0.394531403394651E+03
              0.979460246344229E+02
              0.115150857369961E+03
             -0.861909266670355E+03
              0.139900642908306E+03
              0.316578582469429E+02
              0.821507512315857E+02
             -0.140663225408692E+03
              0.666376800147613E+03
             -0.154805411973769E+03
             -0.275454940242330E+03
             -0.644854281200756E+03
             -0.223770689647835E+03
             -0.309385945079329E+03
             -0.268980515498225E+03
             -0.607144847047634E+02
             -0.147331887212354E+03
             -0.187197424988439E+03
             -0.286992404354904E+03
              0.219664093689151E+03
              0.692405653760746E+03
              0.584947620151118E+03
             -0.103787671176053E+03
             -0.703235651576027E+03
             -0.299793325365780E+03
              0.143809657264373E+03
              0.143847255835318E+03
              0.229877374844524E+03
              0.161569709628533E+03
              0.284934307555577E+02
              0.687027150079696E+03
             -0.167013381994882E+03
              0.337589990213973E+03
              0.173564306489505E+03
             -0.234018604075458E+03
             -0.112183675574869E+03
              0.311248457251996E+03
             -0.166239096365585E+03
             -0.102150640740945E+03
             -0.757070881374582E+02
              0.400818804582531E+03
             -0.527206922460934E+03
             -0.423614783853245E+02
             -0.406875506414901E+03
             -0.864482477831055E+03
             -0.228166355560325E+01
             -0.127508097229965E+03
              0.335996237771346E+03
              0.373541950030489E+03
              0.510986470895894E+03
             -0.332300242525031E+03
              0.516553827909343E+03
              0.129140584988933E+03
             -0.191798577122400E+03
              0.690133969833196E+02
             -0.163171123991052E+03
             -0.965307430102075E+02
              0.298396082492060E+03
             -0.247108718455761E+03
              0.662769631206598E+03
             -0.176742113643957E+03
             -0.366320645476135E+03
              0.693061176987280E+03
             -0.375215929761702E+03
             -0.302063161807946E+02
              0.364667381283662E+02
              0.200089962216842E+03
             -0.292859032169148E+03
             -0.223138578183537E+03
              0.355968733007370E+03
             -0.535537734666234E+03
              0.441673640077685E+03
              0.653021530720026E+02
              0.316516143779112E+03
              0.458566890181722E+03
              0.117440825721861E+03
             -0.637207336693899E+03
             -0.275744468360951E+03
             -0.460021345635384E+03
             -0.273699236306196E+03
             -0.729586865647848E+02
              0.987204324460126E+02
             -0.214645217112881E+03
             -0.371918424208616E+01
             -0.639940268912575E+03
              0.356961669452253E+02
             -0.412639102762800E+03
              0.399999270371678E+03
             -0.234496734470697E+03
             -0.564702503064976E+02
              0.301905265006539E+03
              0.596537771982553E+02
              0.280637159196922E+03
             -0.534886776733520E+03
              0.889696842853427E+02
              0.365569334448338E+02
              0.230249979628474E+03
              0.369158721668095E+03
             -0.682422525153620E+02
             -0.420289827198580E+03
             -0.242948533212056E+03
             -0.171509708045056E+03
             -0.505800185419412E+02
              0.391842179431555E+03
              0.254364324338454E+03
             -0.257727798347372E+03
             -0.241850148394490E+03
              0.177517987221709E+03
              0.193382994972286E+03
             -0.522418781397308E+03
              0.121836341570190E+03
              0.374701249940266E+03
             -0.166754881526114E+02
              0.471817305430703E+03
              0.218021514261963E+03
              0.371315497406060E+03
              0.564512798798860E+03
              0.850950824371005E+02
             -0.769265019329736E+03
              0.106131895634285E+03
              0.831735878301578E+03
              0.604509440255780E+03
             -0.416815810085362E+03
              0.376257323702146E+02
              0.541049171106043E+03
              0.468905121713639E+03
              0.206140751474791E+03
             -0.124712630548450E+03
              0.207046539357164E+03
              0.428635219444445E+03
             -0.198118877303711E+03
             -0.127537670742251E+03
              0.290331791082127E+03
             -0.175198512844006E+02
              0.260547048230018E+03
             -0.806002586213986E+02
              0.543537833528699E+03
             -0.207358827237746E+03
              0.124736183109191E+03
             -0.230362164314409E+03
              0.269012924089689E+03
             -0.365083916721915E+02
              0.400829520356704E+03
              0.286682413264980E+02
              0.179386128958425E+03
             -0.254883615076431E+03
             -0.178205763719650E+03
             -0.908717550353997E+02
             -0.827516409570117E+02
              0.436367012069589E+03
              0.214701913208075E+03
              0.529581499551995E+03
              0.488674430091338E+03
              0.137095715122758E+03
              0.246330874028948E+02
              0.520904399301512E+03
              0.292756434414867E+03
              0.451916246336168E+00
              0.507350819408272E+03
             -0.416366908480208E+03
              0.145969663322682E+03
             -0.271193357679079E+03
             -0.736209934872045E+02
              0.701473440356896E+03
             -0.982427211399936E+02
             -0.292287438905410E+02
             -0.763625538687118E+02
              0.576275521305941E+03
             -0.123780902254183E+03
             -0.105891353044303E+02
              0.116264259046711E+04
             -0.344176863558693E+03
             -0.429548022373556E+03
             -0.429900391269407E+03
             -0.274656714702125E+03
              0.250341743922038E+03
             -0.112349384708288E+03
              0.636773424058006E+02
             -0.291354682381916E+02
              0.147312343613789E+03
              0.236599420365529E+03
              0.275770439254716E+03
              0.396852813073241E+03
              0.254248667597738E+03
              0.259239989008749E+03
             -0.479682483392320E+03
             -0.495430582524320E+03
             -0.111682926006626E+03
             -0.442805127258076E+03
              0.703077357421712E+03
              0.592260429451055E+03
              0.279293652577871E+03
              0.770012133534156E+03
             -0.384860856965111E+03
             -0.165726032637053E+03
             -0.238844888597453E+03
              0.666135428700282E+03
 
 BEEF-vdW xc energy contributions
            1 :    -6021.300977215958     
            2 :     5517.585326321248     
            3 :    -4658.585310900395     
            4 :     3673.142590683684     
            5 :    -2776.870631710541     
            6 :     2102.631827240204     
            7 :    -1678.775277494252     
            8 :     1449.024634864701     
            9 :    -1315.206492962930     
           10 :     1184.367145174392     
           11 :    -1004.179173794902     
           12 :     774.4593097110428     
           13 :    -532.8453597623393     
           14 :     325.8844435970213     
           15 :    -182.9414910373980     
           16 :     105.0349032120412     
           17 :    -69.86840037540605     
           18 :     46.48686576813452     
           19 :    -11.02138958078831     
           20 :    -43.36424689878004     
           21 :     106.1029524876167     
           22 :    -157.8971293762161     
           23 :     183.3067697566512     
           24 :    -180.0072500305805     
           25 :     159.7792593511731     
           26 :    -141.5008655305592     
           27 :     140.7863743984472     
           28 :    -162.0110759472518     
           29 :     196.5520641973744     
           30 :    -227.7673602771110     
           31 :    -517.7500093258586     
           32 :    -372.4340099374622     

     Writing all to output data dir ./PbI2.save/
 
     init_run     :     27.15s CPU     43.91s WALL (       1 calls)
     electrons    :    473.65s CPU    498.40s WALL (       1 calls)
     forces       :     11.35s CPU     11.81s WALL (       1 calls)
     stress       :    183.04s CPU    185.31s WALL (       1 calls)

     Called by init_run:
     wfcinit      :     20.86s CPU     37.10s WALL (       1 calls)
     potinit      :      1.33s CPU      1.57s WALL (       1 calls)
     hinit0       :      1.02s CPU      1.11s WALL (       1 calls)

     Called by electrons:
     c_bands      :    445.72s CPU    469.61s WALL (       2 calls)
     sum_band     :     16.92s CPU     17.36s WALL (       2 calls)
     v_of_rho     :      1.62s CPU      1.67s WALL (       2 calls)
     v_h          :      0.03s CPU      0.03s WALL (       2 calls)
     v_xc         :     27.76s CPU     28.11s WALL (      38 calls)
     newd         :      0.51s CPU      0.68s WALL (       2 calls)
     PAW_pot      :      0.56s CPU      0.57s WALL (       2 calls)
     mix_rho      :      0.00s CPU      0.00s WALL (       2 calls)
     vdW_kernel   :      0.14s CPU      0.15s WALL (       1 calls)

     Called by c_bands:
     init_us_2    :      0.19s CPU      0.20s WALL (       4 calls)
     init_us_2:cp :      0.19s CPU      0.20s WALL (       4 calls)
     cegterg      :    442.78s CPU    465.14s WALL (       2 calls)

     Called by sum_band:
     sum_band:wei :      0.00s CPU      0.00s WALL (       2 calls)
     sum_band:loo :     16.32s CPU     16.47s WALL (       2 calls)
     sum_band:buf :      0.00s CPU      0.00s WALL (       2 calls)
     sum_band:ini :      0.16s CPU      0.17s WALL (       2 calls)
     sum_band:cal :      4.17s CPU      4.20s WALL (       2 calls)
     sum_band:bec :      0.09s CPU      0.09s WALL (       2 calls)
     addusdens    :      0.52s CPU      0.71s WALL (       2 calls)
     addusd:skk   :      0.06s CPU      0.06s WALL (       4 calls)
     addusd:dgemm :      0.29s CPU      0.46s WALL (       4 calls)
     addusd:qvan2 :      0.17s CPU      0.17s WALL (       4 calls)

     Called by *egterg:
     cdiaghg      :    338.25s CPU    355.84s WALL (      17 calls)
     cegterg:over :     11.84s CPU     12.51s WALL (      17 calls)
     cegterg:upda :      5.70s CPU      5.82s WALL (      17 calls)
     cegterg:last :      3.87s CPU      3.90s WALL (       2 calls)
     h_psi        :     68.72s CPU     69.63s WALL (      19 calls)
     s_psi        :      8.32s CPU      8.59s WALL (      19 calls)
     g_psi        :      0.05s CPU      0.05s WALL (      17 calls)

     Called by h_psi:
     h_psi:calbec :      9.37s CPU      9.46s WALL (      19 calls)
     vloc_psi     :     50.83s CPU     51.28s WALL (      19 calls)
     vloc_psi:tg_ :      0.01s CPU      0.01s WALL (      19 calls)
     add_vuspsi   :      8.37s CPU      8.63s WALL (      19 calls)

     General routines
     calbec       :     24.28s CPU     24.50s WALL (      26 calls)
     fft          :     23.03s CPU     23.27s WALL (    2232 calls)
     ffts         :      0.05s CPU      0.05s WALL (       4 calls)
     fftw         :     61.12s CPU     61.65s WALL (   14384 calls)
     interpolate  :      0.05s CPU      0.05s WALL (       2 calls)
 
     Parallel routines
     fft_scatt_xy :      1.89s CPU      1.91s WALL (   16620 calls)
     fft_scatt_yz :     70.20s CPU     70.78s WALL (   16620 calls)
     fft_scatt_tg :      0.09s CPU      0.09s WALL (   14384 calls)

     PAW routines
     PAW_pot      :      0.56s CPU      0.57s WALL (       2 calls)
 
     PWSCF        :  12m19.99s CPU  13m16.34s WALL

 
   This run was terminated on:  11:48:43  18Feb2024            

=------------------------------------------------------------------------------=
   JOB DONE.
=------------------------------------------------------------------------------=
