
     Program PWSCF v.7.1 starts on  3Mar2024 at  8:26:50 

     This program is part of the open-source Quantum ESPRESSO suite
     for quantum simulation of materials; please cite
         "P. Giannozzi et al., J. Phys.:Condens. Matter 21 395502 (2009);
         "P. Giannozzi et al., J. Phys.:Condens. Matter 29 465901 (2017);
         "P. Giannozzi et al., J. Chem. Phys. 152 154105 (2020);
          URL http://www.quantum-espresso.org", 
     in publications or presentations arising from this work. More details at
     http://www.quantum-espresso.org/quote

     Parallel version (MPI & OpenMP), running on     128 processor cores
     Number of MPI processes:               128
     Threads/MPI process:                     1

     MPI processes distributed on     1 nodes
     1544819 MiB available memory on the printing compute node when the environment starts
 
     Reading input from espresso.pwi
Warning: card &CELL ignored
Warning: card    CELL_DYNAMICS    = 'BFGS' ignored
Warning: card / ignored

     Current dimensions of program PWSCF are:
     Max number of different atomic species (ntypx) = 10
     Max number of k-points (npk) =  40000
     Max angular momentum in pseudopotentials (lmaxx) =  4
     file Pb.pbe-dn-kjpaw_psl.1.0.0.UPF: wavefunction(s)  6S 6P 5D renormalized
     file I.pbe-dn-kjpaw_psl.1.0.0.UPF: wavefunction(s)  5S 5P renormalized

     **************************************************************************
     Initializing libbeef V0.1.2 with the BEEF-vdW functional.
     Citation: Wellendorff et al., PRB 85, 235149 (2012).
     **************************************************************************


     IMPORTANT: XC functional enforced from input :
     Exchange-correlation= BEEF-VDW
                           (   1   4  43  14   2   0   0)
     Any further DFT definition will be discarded
     Please, verify this is what you really want

 
     R & G space division:  proc/nbgrp/npool/nimage =     128
     Subspace diagonalization in iterative solution of the eigenvalue problem:
     a serial algorithm will be used

 
     Parallelization info
     --------------------
     sticks:   dense  smooth     PW     G-vecs:    dense   smooth      PW
     Min         238     190     47                26444    18918    2361
     Max         239     191     48                26451    18927    2368
     Sum       30577   24439   6121              3385235  2422379  302703
 
     Using Slab Decomposition
 


     bravais-lattice index     =            4
     lattice parameter (alat)  =      35.6073  a.u.
     unit-cell volume          =   30614.2220 (a.u.)^3
     number of atoms/cell      =           96
     number of atomic types    =            2
     number of electrons       =      1530.00
     number of Kohn-Sham states=          918
     kinetic-energy cutoff     =      70.0000  Ry
     charge density cutoff     =     350.0000  Ry
     scf convergence threshold =      1.0E-07
     mixing beta               =       0.7000
     number of iterations used =            8  plain     mixing
     Exchange-correlation= BEEF-VDW
                           (   1   4  43  14   2   0   0)

     celldm(1)=  35.607290  celldm(2)=   0.000000  celldm(3)=   0.783025
     celldm(4)=   0.000000  celldm(5)=   0.000000  celldm(6)=   0.000000

     crystal axes: (cart. coord. in units of alat)
               a(1) = (   1.000000   0.000000   0.000000 )  
               a(2) = (  -0.500000   0.866025   0.000000 )  
               a(3) = (   0.000000   0.000000   0.783025 )  

     reciprocal axes: (cart. coord. in units 2 pi/alat)
               b(1) = (  1.000000  0.577350 -0.000000 )  
               b(2) = (  0.000000  1.154701  0.000000 )  
               b(3) = (  0.000000 -0.000000  1.277098 )  


     PseudoPot. # 1 for Pb read from file:
     /trace/group/acmegroup/atimmins/packages/espresso/pseudo/psl_1.0.0/pslibrary.1.0.0/pbe/PSEUDOPOTENTIALS/Pb.pbe-dn-kjpaw_psl.1.0.0.UPF
     MD5 check sum: 39ab5b8a6bbd56b7735ad9f188aac93a
     Pseudo is Projector augmented-wave + core cor, Zval = 14.0
     Generated using 'atomic' code by A. Dal Corso  v.7.1
     Shape of augmentation charge: PSQ
     Using radial grid of 1281 points,  6 beta functions with: 
                l(1) =   0
                l(2) =   0
                l(3) =   1
                l(4) =   1
                l(5) =   2
                l(6) =   2
     Q(r) pseudized with 0 coefficients 


     PseudoPot. # 2 for I  read from file:
     /trace/group/acmegroup/atimmins/packages/espresso/pseudo/psl_1.0.0/pslibrary.1.0.0/pbe/PSEUDOPOTENTIALS/I.pbe-dn-kjpaw_psl.1.0.0.UPF
     MD5 check sum: bfa8781bc1224d19af3f3980e3fab11e
     Pseudo is Projector augmented-wave + core cor, Zval = 17.0
     Generated using 'atomic' code by A. Dal Corso  v.7.1
     Shape of augmentation charge: PSQ
     Using radial grid of 1247 points,  6 beta functions with: 
                l(1) =   0
                l(2) =   0
                l(3) =   1
                l(4) =   1
                l(5) =   2
                l(6) =   2
     Q(r) pseudized with 0 coefficients 


     atomic species   valence    mass     pseudopotential
        Pb            14.00   207.20000     Pb( 1.00)
        I             17.00   126.90447     I ( 1.00)

     No symmetry found


                                    s                        frac. trans.

      isym =  1     identity                                     

 cryst.   s( 1) = (     1          0          0      )
                  (     0          1          0      )
                  (     0          0          1      )

 cart.    s( 1) = (  1.0000000  0.0000000  0.0000000 )
                  (  0.0000000  1.0000000  0.0000000 )
                  (  0.0000000  0.0000000  1.0000000 )


     point group C_1 (1)    
     there are  1 classes
     the character table:

       E    
A      1.00

     the symmetry operations in each class and the name of the first element:

     E        1
          identity                                               

   Cartesian axes

     site n.     atom                  positions (alat units)
         1           Pb  tau(   1) = (   0.1250086   0.2164870   0.7830203  )
         2           Pb  tau(   2) = (   0.1250034   0.2164916   0.3915076  )
         3           Pb  tau(   3) = (   0.0000077   0.4329922   0.7830161  )
         4           Pb  tau(   4) = (   0.0000025   0.4329968   0.3915034  )
         5           Pb  tau(   5) = (  -0.1249932   0.6494975   0.7830119  )
         6           Pb  tau(   6) = (  -0.1249984   0.6495021   0.3914992  )
         7           Pb  tau(   7) = (  -0.2499941   0.8660028   0.7830077  )
         8           Pb  tau(   8) = (  -0.2499993   0.8660074   0.3914950  )
         9           Pb  tau(   9) = (   0.3750086   0.2164859   0.7830237  )
        10           Pb  tau(  10) = (   0.3750034   0.2164905   0.3915110  )
        11           Pb  tau(  11) = (   0.2500077   0.4329912   0.7830194  )
        12           Pb  tau(  12) = (   0.2500025   0.4329958   0.3915068  )
        13           Pb  tau(  13) = (   0.1250068   0.6494965   0.7830152  )
        14           Pb  tau(  14) = (   0.1250016   0.6495011   0.3915026  )
        15           Pb  tau(  15) = (   0.0000059   0.8660017   0.7830110  )
        16           Pb  tau(  16) = (   0.0000007   0.8660063   0.3914983  )
        17           Pb  tau(  17) = (   0.6250086   0.2164849   0.7830270  )
        18           Pb  tau(  18) = (   0.6250034   0.2164895   0.3915143  )
        19           Pb  tau(  19) = (   0.5000077   0.4329901   0.7830228  )
        20           Pb  tau(  20) = (   0.5000025   0.4329947   0.3915101  )
        21           Pb  tau(  21) = (   0.3750068   0.6494954   0.7830186  )
        22           Pb  tau(  22) = (   0.3750016   0.6495000   0.3915059  )
        23           Pb  tau(  23) = (   0.2500059   0.8660007   0.7830144  )
        24           Pb  tau(  24) = (   0.2500007   0.8660053   0.3915017  )
        25           Pb  tau(  25) = (   0.8750086   0.2164838   0.7830303  )
        26           Pb  tau(  26) = (   0.8750034   0.2164884   0.3915177  )
        27           Pb  tau(  27) = (   0.7500077   0.4329891   0.7830261  )
        28           Pb  tau(  28) = (   0.7500025   0.4329937   0.3915135  )
        29           Pb  tau(  29) = (   0.6250068   0.6494944   0.7830219  )
        30           Pb  tau(  30) = (   0.6250016   0.6494990   0.3915092  )
        31           Pb  tau(  31) = (   0.5000059   0.8659996   0.7830177  )
        32           Pb  tau(  32) = (   0.5000007   0.8660042   0.3915050  )
        33           I   tau(  33) = (   0.1250108   0.0721500   0.6824290  )
        34           I   tau(  34) = (   0.0000047   0.2886599   0.2909121  )
        35           I   tau(  35) = (   0.0000099   0.2886553   0.6824248  )
        36           I   tau(  36) = (  -0.1249962   0.5051652   0.2909079  )
        37           I   tau(  37) = (  -0.1249910   0.5051606   0.6824206  )
        38           I   tau(  38) = (  -0.2499972   0.7216704   0.2909037  )
        39           I   tau(  39) = (  -0.2499919   0.7216658   0.6824164  )
        40           I   tau(  40) = (   0.3750056   0.0721536   0.2909197  )
        41           I   tau(  41) = (   0.3750108   0.0721490   0.6824324  )
        42           I   tau(  42) = (   0.2500047   0.2886589   0.2909155  )
        43           I   tau(  43) = (   0.2500099   0.2886543   0.6824282  )
        44           I   tau(  44) = (   0.1250038   0.5051641   0.2909113  )
        45           I   tau(  45) = (   0.1250090   0.5051595   0.6824240  )
        46           I   tau(  46) = (   0.0000028   0.7216694   0.2909071  )
        47           I   tau(  47) = (   0.0000081   0.7216648   0.6824197  )
        48           I   tau(  48) = (   0.6250056   0.0721525   0.2909230  )
        49           I   tau(  49) = (   0.6250108   0.0721479   0.6824357  )
        50           I   tau(  50) = (   0.5000047   0.2886578   0.2909188  )
        51           I   tau(  51) = (   0.5000099   0.2886532   0.6824315  )
        52           I   tau(  52) = (   0.3750038   0.5051631   0.2909146  )
        53           I   tau(  53) = (   0.3750090   0.5051585   0.6824273  )
        54           I   tau(  54) = (   0.2500028   0.7216683   0.2909104  )
        55           I   tau(  55) = (   0.2500081   0.7216637   0.6824231  )
        56           I   tau(  56) = (   0.8750056   0.0721515   0.2909264  )
        57           I   tau(  57) = (   0.8750108   0.0721469   0.6824391  )
        58           I   tau(  58) = (   0.7500047   0.2886567   0.2909222  )
        59           I   tau(  59) = (   0.7500099   0.2886521   0.6824348  )
        60           I   tau(  60) = (   0.6250038   0.5051620   0.2909180  )
        61           I   tau(  61) = (   0.6250090   0.5051574   0.6824306  )
        62           I   tau(  62) = (   0.5000028   0.7216673   0.2909137  )
        63           I   tau(  63) = (   0.5000081   0.7216627   0.6824264  )
        64           I   tau(  64) = (  -0.0000018   0.1443297   0.1005933  )
        65           I   tau(  65) = (   0.0000034   0.1443251   0.4921060  )
        66           I   tau(  66) = (  -0.1250027   0.3608350   0.1005891  )
        67           I   tau(  67) = (  -0.1249975   0.3608304   0.4921018  )
        68           I   tau(  68) = (  -0.2500036   0.5773403   0.1005849  )
        69           I   tau(  69) = (  -0.2499984   0.5773357   0.4920975  )
        70           I   tau(  70) = (  -0.3750045   0.7938455   0.1005807  )
        71           I   tau(  71) = (  -0.3749993   0.7938409   0.4920933  )
        72           I   tau(  72) = (   0.2499982   0.1443287   0.1005966  )
        73           I   tau(  73) = (   0.2500034   0.1443241   0.4921093  )
        74           I   tau(  74) = (   0.1249973   0.3608340   0.1005924  )
        75           I   tau(  75) = (   0.1250025   0.3608294   0.4921051  )
        76           I   tau(  76) = (  -0.0000036   0.5773392   0.1005882  )
        77           I   tau(  77) = (   0.0000016   0.5773346   0.4921009  )
        78           I   tau(  78) = (  -0.1250045   0.7938445   0.1005840  )
        79           I   tau(  79) = (  -0.1249993   0.7938399   0.4920967  )
        80           I   tau(  80) = (   0.4999982   0.1443276   0.1006000  )
        81           I   tau(  81) = (   0.5000034   0.1443230   0.4921126  )
        82           I   tau(  82) = (   0.3749973   0.3608329   0.1005958  )
        83           I   tau(  83) = (   0.3750025   0.3608283   0.4921084  )
        84           I   tau(  84) = (   0.2499964   0.5773382   0.1005915  )
        85           I   tau(  85) = (   0.2500016   0.5773336   0.4921042  )
        86           I   tau(  86) = (   0.1249955   0.7938434   0.1005873  )
        87           I   tau(  87) = (   0.1250007   0.7938388   0.4921000  )
        88           I   tau(  88) = (   0.7499982   0.1443266   0.1006033  )
        89           I   tau(  89) = (   0.7500034   0.1443220   0.4921160  )
        90           I   tau(  90) = (   0.6249973   0.3608319   0.1005991  )
        91           I   tau(  91) = (   0.6250025   0.3608273   0.4921118  )
        92           I   tau(  92) = (   0.4999964   0.5773371   0.1005949  )
        93           I   tau(  93) = (   0.5000016   0.5773325   0.4921076  )
        94           I   tau(  94) = (   0.3749955   0.7938424   0.1005907  )
        95           I   tau(  95) = (   0.3750007   0.7938378   0.4921034  )
        96           Pb  tau(  96) = (   0.1250056   0.0721546   0.2909163  )

   Crystallographic axes

     site n.     atom                  positions (cryst. coord.)
         1           Pb  tau(   1) = (  0.2499975  0.2499776  0.9999935  )
         2           Pb  tau(   2) = (  0.2499949  0.2499829  0.4999935  )
         3           Pb  tau(   3) = (  0.2499959  0.4999764  0.9999882  )
         4           Pb  tau(   4) = (  0.2499933  0.4999817  0.4999882  )
         5           Pb  tau(   5) = (  0.2499944  0.7499751  0.9999828  )
         6           Pb  tau(   6) = (  0.2499918  0.7499804  0.4999828  )
         7           Pb  tau(   7) = (  0.2499928  0.9999739  0.9999774  )
         8           Pb  tau(   8) = (  0.2499903  0.9999792  0.4999774  )
         9           Pb  tau(   9) = (  0.4999968  0.2499764  0.9999978  )
        10           Pb  tau(  10) = (  0.4999943  0.2499817  0.4999978  )
        11           Pb  tau(  11) = (  0.4999953  0.4999752  0.9999924  )
        12           Pb  tau(  12) = (  0.4999927  0.4999805  0.4999924  )
        13           Pb  tau(  13) = (  0.4999938  0.7499739  0.9999871  )
        14           Pb  tau(  14) = (  0.4999912  0.7499792  0.4999871  )
        15           Pb  tau(  15) = (  0.4999922  0.9999727  0.9999817  )
        16           Pb  tau(  16) = (  0.4999896  0.9999780  0.4999817  )
        17           Pb  tau(  17) = (  0.7499962  0.2499752  1.0000021  )
        18           Pb  tau(  18) = (  0.7499936  0.2499805  0.5000021  )
        19           Pb  tau(  19) = (  0.7499947  0.4999739  0.9999967  )
        20           Pb  tau(  20) = (  0.7499921  0.4999793  0.4999967  )
        21           Pb  tau(  21) = (  0.7499932  0.7499727  0.9999913  )
        22           Pb  tau(  22) = (  0.7499906  0.7499780  0.4999913  )
        23           Pb  tau(  23) = (  0.7499916  0.9999714  0.9999860  )
        24           Pb  tau(  24) = (  0.7499890  0.9999767  0.4999860  )
        25           Pb  tau(  25) = (  0.9999956  0.2499740  1.0000064  )
        26           Pb  tau(  26) = (  0.9999930  0.2499793  0.5000064  )
        27           Pb  tau(  27) = (  0.9999941  0.4999727  1.0000010  )
        28           Pb  tau(  28) = (  0.9999915  0.4999780  0.5000010  )
        29           Pb  tau(  29) = (  0.9999926  0.7499715  0.9999956  )
        30           Pb  tau(  30) = (  0.9999900  0.7499768  0.4999956  )
        31           Pb  tau(  31) = (  0.9999910  0.9999702  0.9999902  )
        32           Pb  tau(  32) = (  0.9999884  0.9999755  0.4999902  )
        33           I   tau(  33) = (  0.1666667  0.0833117  0.8715286  )
        34           I   tau(  34) = (  0.1666625  0.3333157  0.3715233  )
        35           I   tau(  35) = (  0.1666651  0.3333104  0.8715233  )
        36           I   tau(  36) = (  0.1666610  0.5833145  0.3715179  )
        37           I   tau(  37) = (  0.1666636  0.5833092  0.8715179  )
        38           I   tau(  38) = (  0.1666595  0.8333132  0.3715125  )
        39           I   tau(  39) = (  0.1666621  0.8333079  0.8715125  )
        40           I   tau(  40) = (  0.4166635  0.0833158  0.3715329  )
        41           I   tau(  41) = (  0.4166661  0.0833105  0.8715329  )
        42           I   tau(  42) = (  0.4166619  0.3333145  0.3715275  )
        43           I   tau(  43) = (  0.4166645  0.3333092  0.8715275  )
        44           I   tau(  44) = (  0.4166604  0.5833133  0.3715222  )
        45           I   tau(  45) = (  0.4166630  0.5833080  0.8715221  )
        46           I   tau(  46) = (  0.4166589  0.8333120  0.3715168  )
        47           I   tau(  47) = (  0.4166614  0.8333067  0.8715168  )
        48           I   tau(  48) = (  0.6666629  0.0833146  0.3715372  )
        49           I   tau(  49) = (  0.6666655  0.0833093  0.8715372  )
        50           I   tau(  50) = (  0.6666613  0.3333133  0.3715318  )
        51           I   tau(  51) = (  0.6666639  0.3333080  0.8715318  )
        52           I   tau(  52) = (  0.6666598  0.5833121  0.3715264  )
        53           I   tau(  53) = (  0.6666624  0.5833068  0.8715264  )
        54           I   tau(  54) = (  0.6666582  0.8333108  0.3715210  )
        55           I   tau(  55) = (  0.6666608  0.8333055  0.8715210  )
        56           I   tau(  56) = (  0.9166623  0.0833134  0.3715414  )
        57           I   tau(  57) = (  0.9166648  0.0833080  0.8715414  )
        58           I   tau(  58) = (  0.9166607  0.3333121  0.3715361  )
        59           I   tau(  59) = (  0.9166633  0.3333068  0.8715361  )
        60           I   tau(  60) = (  0.9166592  0.5833108  0.3715307  )
        61           I   tau(  61) = (  0.9166618  0.5833055  0.8715307  )
        62           I   tau(  62) = (  0.9166576  0.8333096  0.3715253  )
        63           I   tau(  63) = (  0.9166602  0.8333043  0.8715253  )
        64           I   tau(  64) = (  0.0833270  0.1666576  0.1284675  )
        65           I   tau(  65) = (  0.0833296  0.1666523  0.6284675  )
        66           I   tau(  66) = (  0.0833255  0.4166564  0.1284621  )
        67           I   tau(  67) = (  0.0833281  0.4166511  0.6284621  )
        68           I   tau(  68) = (  0.0833239  0.6666551  0.1284567  )
        69           I   tau(  69) = (  0.0833265  0.6666498  0.6284567  )
        70           I   tau(  70) = (  0.0833224  0.9166539  0.1284513  )
        71           I   tau(  71) = (  0.0833250  0.9166486  0.6284513  )
        72           I   tau(  72) = (  0.3333264  0.1666564  0.1284717  )
        73           I   tau(  73) = (  0.3333290  0.1666511  0.6284717  )
        74           I   tau(  74) = (  0.3333249  0.4166552  0.1284664  )
        75           I   tau(  75) = (  0.3333275  0.4166499  0.6284663  )
        76           I   tau(  76) = (  0.3333233  0.6666539  0.1284610  )
        77           I   tau(  77) = (  0.3333259  0.6666486  0.6284610  )
        78           I   tau(  78) = (  0.3333218  0.9166527  0.1284556  )
        79           I   tau(  79) = (  0.3333244  0.9166473  0.6284556  )
        80           I   tau(  80) = (  0.5833258  0.1666552  0.1284760  )
        81           I   tau(  81) = (  0.5833284  0.1666499  0.6284760  )
        82           I   tau(  82) = (  0.5833243  0.4166539  0.1284706  )
        83           I   tau(  83) = (  0.5833269  0.4166486  0.6284706  )
        84           I   tau(  84) = (  0.5833227  0.6666527  0.1284652  )
        85           I   tau(  85) = (  0.5833253  0.6666474  0.6284652  )
        86           I   tau(  86) = (  0.5833212  0.9166514  0.1284599  )
        87           I   tau(  87) = (  0.5833238  0.9166461  0.6284599  )
        88           I   tau(  88) = (  0.8333252  0.1666540  0.1284803  )
        89           I   tau(  89) = (  0.8333278  0.1666487  0.6284803  )
        90           I   tau(  90) = (  0.8333237  0.4166527  0.1284749  )
        91           I   tau(  91) = (  0.8333262  0.4166474  0.6284749  )
        92           I   tau(  92) = (  0.8333221  0.6666515  0.1284695  )
        93           I   tau(  93) = (  0.8333247  0.6666462  0.6284695  )
        94           I   tau(  94) = (  0.8333206  0.9166502  0.1284641  )
        95           I   tau(  95) = (  0.8333232  0.9166449  0.6284641  )
        96           Pb  tau(  96) = (  0.1666641  0.0833170  0.3715286  )

     number of k points=     1  Gaussian smearing, width (Ry)=  0.0100
                       cart. coord. in units 2pi/alat
        k(    1) = (   0.0000000   0.0000000   0.0000000), wk =   2.0000000

                       cryst. coord.
        k(    1) = (   0.0000000   0.0000000   0.0000000), wk =   2.0000000

     Dense  grid:  3385235 G-vectors     FFT dimensions: ( 216, 216, 180)

     Smooth grid:  2422379 G-vectors     FFT dimensions: ( 192, 192, 150)

     Dynamical RAM for                 wfc:      33.13 MB

     Dynamical RAM for     wfc (w. buffer):      33.13 MB

     Dynamical RAM for           str. fact:       0.81 MB

     Dynamical RAM for           local pot:       0.00 MB

     Dynamical RAM for          nlocal pot:      62.36 MB

     Dynamical RAM for                qrad:       3.00 MB

     Dynamical RAM for          rho,v,vnew:       3.35 MB

     Dynamical RAM for               rhoin:       1.12 MB

     Dynamical RAM for            rho*nmix:       6.46 MB

     Dynamical RAM for           G-vectors:       1.66 MB

     Dynamical RAM for          h,s,v(r/c):     617.23 MB

     Dynamical RAM for          <psi|beta>:      24.21 MB

     Dynamical RAM for                 psi:     132.51 MB

     Dynamical RAM for                hpsi:     132.51 MB

     Dynamical RAM for                spsi:     132.51 MB

     Dynamical RAM for      wfcinit/wfcrot:      85.55 MB

     Dynamical RAM for           addusdens:     100.50 MB

     Dynamical RAM for          addusforce:     150.99 MB

     Dynamical RAM for         addusstress:      81.13 MB

     Estimated static dynamical RAM per process >     110.19 MB

     Estimated max dynamical RAM per process >       1.13 GB

     Estimated total dynamical RAM >     144.45 GB

     Atomic positions and unit cell read from directory:
     ./PbI2.save/
     Atomic positions from file used, from input discarded
 

     Check: negative core charge=   -0.000001

     The initial density is read from file :
     ./PbI2.save/charge-density



     %%%%%%%%%%%%%%%%%%%%%%%%%%%%%%%%%%%%%%%%%%%%%%%%%%%%%%%%%%%%%%%%%%%%%%%%
     %                                                                      %
     % You are using vdW-DF, which was implemented by the Thonhauser group. %
     % Please cite the following two papers that made this development      %
     % possible and the two reviews that describe the various versions:     %
     %                                                                      %
     %   T. Thonhauser et al., PRL 115, 136402 (2015).                      %
     %   T. Thonhauser et al., PRB 76, 125112 (2007).                       %
     %   K. Berland et al., Rep. Prog. Phys. 78, 066501 (2015).             %
     %   D.C. Langreth et al., J. Phys.: Condens. Matter 21, 084203 (2009). %
     %                                                                      %
     % If you are calculating stress with vdW-DF, please also cite:         %
     %                                                                      %
     %   R. Sabatini et al., J. Phys.: Condens. Matter 24, 424209 (2012).   %
     %                                                                      %
     %%%%%%%%%%%%%%%%%%%%%%%%%%%%%%%%%%%%%%%%%%%%%%%%%%%%%%%%%%%%%%%%%%%%%%%%

     %%%%%%%%%%%%%%%%%%%%%%%%%%%%%%%%%%%%%%%%%%%%%%%%%%%%%%%%%%%%%%%%%%%%%%%%
     %                                                                      %
     %  vdW-DF NEWS:                                                        %
     %                                                                      %
     %  * vdW-DF3 is now available. DOI: 10.1021/acs.jctc.0c00471           %
     %    use with input_dft = 'vdW-DF3-opt1' or 'vdW-DF3-opt2'             %
     %                                                                      %
     %  * Unscreened and range-separated vdW-DF hybrid functionals          %
     %    DOI: 10.1063/1.4986522 and 10.1088/1361-648X/ac2ad2               %
     %    use with input_dft = 'vdW-DF-cx0' (etc) and 'vdW-DF-ahcx'         %
     %                                                                      %
     %%%%%%%%%%%%%%%%%%%%%%%%%%%%%%%%%%%%%%%%%%%%%%%%%%%%%%%%%%%%%%%%%%%%%%%%


     Carrying out vdW-DF run using the following parameters:
     Nqs    =  20  Npoints =  1024  r_max =  100.000
     q_mesh =  0.00001000  0.04494208  0.09755937  0.15916263
               0.23128650  0.31572767  0.41458969  0.53033537
               0.66584808  0.82450364  1.01025438  1.22772762
               1.48234092  1.78043706  2.12944203  2.53805004
               3.01644009  3.57652955  4.23227104  5.00000000


     -----------------------------------------------
     Non-local corr. energy    =      45.72760435 Ry
     -----------------------------------------------

     Starting wfcs from file
     Checking if some PAW data can be deallocated... 
       PAW data deallocated on   63 nodes for type:  1
       PAW data deallocated on   65 nodes for type:  2

     total cpu time spent up to now is       12.9 secs

     Self-consistent Calculation

     iteration #  1     ecut=    70.00 Ry     beta= 0.70
     Davidson diagonalization with overlap

---- Real-time Memory Report at c_bands before calling an iterative solver
           335 MiB given to the printing process from OS
             0 MiB allocation reported by mallinfo(arena+hblkhd)
       1521507 MiB available memory on the node where the printing process lives
------------------
     ethr =  1.00E-05,  avg # of iterations =  1.0

     Threshold (ethr) on eigenvalues was too large:
     Diagonalizing with lowered threshold

     Davidson diagonalization with overlap

---- Real-time Memory Report at c_bands before calling an iterative solver
           909 MiB given to the printing process from OS
             0 MiB allocation reported by mallinfo(arena+hblkhd)
       1508061 MiB available memory on the node where the printing process lives
------------------
     ethr =  3.29E-12,  avg # of iterations = 14.0


     -----------------------------------------------
     Non-local corr. energy    =      45.72760655 Ry
     -----------------------------------------------


     total cpu time spent up to now is      186.2 secs

     End of self-consistent calculation

          k = 0.0000 0.0000 0.0000 (302703 PWs)   bands (ev):

   -41.3937 -41.3936 -41.3935 -41.3619 -41.3618 -41.3618 -41.3592 -41.3590
   -41.3590 -41.2687 -41.2685 -41.2685 -41.2683 -41.2682 -41.2682 -40.9933
   -40.9933 -40.9933 -40.9871 -40.9871 -40.9871 -40.9739 -40.9739 -40.9738
   -40.9717 -40.9717 -40.9716 -40.9706 -40.9706 -40.9706 -40.9699 -40.9699
   -40.9698 -40.9250 -40.9250 -40.9250 -40.9245 -40.9245 -40.9245 -40.9130
   -40.9129 -40.9129 -40.9126 -40.9126 -40.9125 -40.8866 -40.8866 -40.8866
   -40.8865 -40.8865 -40.8865 -40.8775 -40.8775 -40.8775 -40.8775 -40.8775
   -40.8774 -40.8728 -40.8727 -40.8727 -40.8727 -40.8727 -40.8727 -40.8436
   -40.8436 -40.8436 -40.8435 -40.8435 -40.8435 -40.8434 -40.8434 -40.8433
   -40.8433 -40.8433 -40.8433 -40.8011 -40.8011 -40.8011 -40.8011 -40.8011
   -40.8011 -40.8006 -40.8006 -40.8006 -40.8006 -40.8006 -40.8006 -40.7906
   -40.7906 -40.7906 -40.7906 -40.7906 -40.7905 -40.7844 -40.7844 -40.7844
   -40.7844 -40.7844 -40.7844 -40.7831 -40.7831 -40.7831 -40.7831 -40.7830
   -40.7830 -40.7748 -40.7748 -40.7748 -40.7741 -40.7741 -40.7741 -40.7615
   -40.7615 -40.7615 -40.7593 -40.7593 -40.7593 -40.7582 -40.7582 -40.7582
   -40.7577 -40.7577 -40.7577 -40.7565 -40.7565 -40.7565 -40.7518 -40.7517
   -40.7517 -40.7498 -40.7498 -40.7497 -40.7490 -40.7490 -40.7490 -40.7325
   -40.7325 -40.7325 -40.7325 -40.7324 -40.7324 -40.7304 -40.7304 -40.7304
   -40.7288 -40.7288 -40.7287 -40.7283 -40.7283 -40.7283 -40.7225 -40.7225
   -40.7081 -40.7081 -40.7081 -40.7061 -40.7061 -40.7061 -40.7053 -40.7052
   -40.7052 -40.7044 -40.7044 -40.6998 -40.6998 -40.6998 -40.6992 -40.6992
   -40.6992 -40.6992 -40.6992 -40.6992 -40.6989 -40.6989 -40.6989 -40.6979
   -40.6979 -40.6979 -40.6979 -40.6955 -40.6955 -40.6955 -40.6950 -40.6950
   -40.6950 -40.6925 -40.6925 -40.6868 -40.6868 -40.6844 -40.6843 -40.6840
   -40.6840 -40.6808 -40.6808 -40.6804 -40.6804 -40.6804 -40.6799 -40.6799
   -40.6799 -40.6719 -40.6719 -40.6718 -40.6702 -40.6702 -40.6702 -40.6702
   -40.6702 -40.6701 -40.6694 -40.6694 -40.6694 -40.6694 -40.6694 -40.6694
   -40.6688 -40.6688 -40.6688 -40.6676 -40.6676 -40.6676 -40.6623 -40.6623
   -40.6623 -40.6620 -40.6619 -40.6619 -40.6619 -40.6619 -40.6619 -40.6582
   -40.6582 -40.6582 -40.6582 -40.6582 -40.6582 -40.6573 -40.6573 -40.6572
   -40.6568 -40.6568 -40.6568 -40.6568 -40.6568 -40.6568 -40.6552 -40.6552
   -40.6552 -40.6376 -40.6376 -40.6376 -40.6371 -40.6371 -40.6371 -40.6354
   -40.6354 -40.6354 -40.6348 -40.6347 -40.6347 -40.6321 -40.6321 -40.6320
   -40.6302 -40.6302 -40.6302 -40.6295 -40.6295 -40.6294 -40.6279 -40.6279
   -40.6279 -40.6279 -40.6278 -40.6278 -40.6275 -40.6275 -40.6275 -40.6274
   -40.6274 -40.6274 -40.6249 -40.6249 -40.6249 -40.6249 -40.6249 -40.6249
   -40.6241 -40.6241 -40.6241 -40.6241 -40.6241 -40.6241 -40.6232 -40.6232
   -40.6231 -40.6231 -40.6231 -40.6231 -40.6155 -40.6155 -40.6155 -40.6148
   -40.6148 -40.6148 -40.6140 -40.6140 -40.6140 -40.6133 -40.6133 -40.6132
   -40.6128 -40.6128 -40.6128 -13.7899 -13.7899 -13.7519 -13.7513 -13.7513
   -13.0627 -13.0626 -13.0618 -13.0333 -13.0332 -13.0331 -13.0329 -13.0326
   -13.0326 -13.0316 -13.0316 -13.0315 -13.0176 -13.0176 -13.0158 -13.0158
   -13.0157 -13.0138 -13.0004 -12.9981 -12.9981 -12.9954 -12.9913 -12.9894
   -12.9894 -12.9891 -12.9890 -12.9846 -12.9819 -12.9819 -12.9778 -12.9778
   -12.9758 -12.9539 -12.9527 -12.9527 -12.9512 -12.9511 -12.9504 -12.9447
   -12.9447 -12.9389 -12.9276 -12.9271 -12.9270 -12.9173 -12.9173 -12.9116
   -12.9092 -12.9013 -12.9003 -12.9003 -12.8988 -12.8988 -12.8923 -12.8913
   -12.8913 -12.8880 -12.8880 -12.8872 -12.8688 -12.8688 -12.8677 -12.8623
   -12.8603 -12.8603 -12.8564 -12.8564 -12.8552 -12.8518 -12.8518 -12.8507
   -12.8485 -12.8482 -12.8482 -12.8478 -12.8477 -12.8472 -12.8471 -12.8470
   -12.8457 -12.8456 -12.8448 -12.8448 -12.8434 -12.8434 -12.8433 -12.8420
   -12.8420 -12.8396 -12.8396 -12.8387 -12.8386 -12.8386 -12.8382 -12.8382
   -12.8371 -12.8349 -12.8348 -12.8329 -12.8329 -12.8329 -12.8323 -12.8323
   -12.8286 -12.8286 -12.8285 -12.8257 -12.8257 -12.8246 -12.8235 -12.8227
   -12.8227 -12.8223 -12.8223 -12.8214 -12.8196 -12.8195 -12.8186 -12.8145
   -12.8137 -12.8137 -12.8130 -12.8130 -12.8120 -12.7855 -12.7769 -12.7769
   -12.7720 -12.7720 -12.7669 -12.7669 -12.7664 -12.7641 -12.7624 -12.7624
   -12.7603 -12.7603 -12.7596 -12.7587 -12.7587 -12.7581 -12.7561 -12.7561
   -12.7560 -12.7553 -12.7548 -12.7533 -12.7533 -12.7522 -12.7522 -12.7470
   -12.7470 -12.7467 -12.7444 -12.7440 -12.7440 -12.7431 -12.7428 -12.7428
    -8.4544  -8.1238  -8.1236  -8.0867  -7.9908  -7.9240  -7.9239  -7.9167
    -7.9167  -7.8936  -7.8497  -7.8497  -7.8282  -7.7782  -7.7678  -7.7678
    -7.7228  -7.6930  -7.6930  -7.6750  -7.6677  -7.6441  -7.6441  -7.6137
    -7.6137  -7.6123  -7.6123  -7.6023  -7.5725  -7.5725  -7.5544  -7.5429
    -7.5305  -7.5304  -7.5289  -7.5276  -7.5221  -7.4941  -7.4941  -7.4853
    -7.4838  -7.4838  -7.4796  -7.4796  -7.4774  -7.4719  -7.4681  -7.4681
    -7.4556  -7.4353  -7.4353  -7.4317  -7.4157  -7.4157  -7.4002  -7.3934
    -7.3934  -7.3830  -7.3691  -7.3691  -7.3526  -7.3437  -7.3437  -4.2772
    -3.7096  -3.6888  -3.6888  -3.6516  -3.6516  -3.6119  -3.6119  -3.5875
    -3.5875  -3.5684  -3.5608  -3.5537  -3.5251  -3.5089  -3.5089  -3.4949
    -3.4761  -3.4761  -3.4178  -3.3908  -3.3908  -3.3365  -3.3245  -3.3123
    -3.3122  -3.2794  -3.2794  -3.2212  -3.2212  -3.2152  -3.1433  -3.0254
     0.7436   0.7437   0.8587   1.0401   1.0402   1.1603   1.1900   1.1900
     1.2043   1.2269   1.2269   1.2343   1.2516   1.2516   1.3102   1.3633
     1.3940   1.3940   1.4118   1.4118   1.4514   1.4558   1.4608   1.4608
     1.4986   1.5042   1.5042   1.5356   1.5356   1.5645   1.5673   1.5674
     1.5687   1.5775   1.5982   1.5982   1.6403   1.6403   1.6503   1.6966
     1.6966   1.7208   1.7209   1.7461   1.7742   1.7742   1.8205   1.8215
     1.8215   1.8521   1.8607   1.8972   1.8972   1.9182   1.9704   2.0052
     2.0052   2.0343   2.0343   2.0581   2.0779   2.0865   2.0865   2.1054
     2.1076   2.1076   2.1167   2.1381   2.1381   2.1498   2.1498   2.1869
     2.2033   2.2033   2.2175   2.2248   2.2248   2.2385   2.2491   2.2625
     2.2625   2.2642   2.3093   2.3320   2.3320   2.3391   2.3485   2.3485
     2.3602   2.3602   2.3764   2.3764   2.3766   2.3828   2.4047   2.4048
     2.4285   2.4594   2.4594   2.4623   2.5160   2.5161   2.5330   2.5487
     2.5487   2.6084   2.6084   2.6142   2.6382   2.6388   2.6388   2.6747
     2.7056   2.7056   2.7227   2.7560   2.7613   2.7613   2.7747   2.7752
     2.7753   2.8124   2.8124   2.8295   2.8327   2.8327   2.8616   2.8616
     2.8827   2.8827   2.8930   2.8983   2.9016   2.9089   2.9089   2.9135
     2.9135   2.9495   2.9495   2.9590   2.9792   2.9792   2.9826   3.0141
     3.0236   3.0236   3.0381   3.0381   3.0382   3.0504   3.0513   3.0513
     3.0580   3.0747   3.0747   3.0762   3.0963   3.0963   3.0985   3.0989
     3.0989   3.1691   3.1691   3.2002   3.2002   3.2354   3.2388   3.2505
     3.2544   3.2614   3.2614   3.3001   3.3001   3.3013   3.3013   3.3098
     3.3781   3.3781   3.3984   3.4042   3.4042   3.4225   3.4656   3.4656
     3.4667   3.4764   3.4849   3.4849   3.5280   5.4079   5.9093   5.9095
     5.9721   6.2583   6.4035   6.5037   6.5037   6.5509   6.5510   6.5540
     6.6203   6.6216   6.6216   6.7430   6.7430   6.7587   6.7762   6.7777
     6.7777   6.8130   6.8130   6.8630   6.9084   6.9085   6.9459   6.9459
     6.9852   6.9881   6.9881   7.0059   7.0193   7.0193   7.1186   7.1186
     7.1676   7.1676   7.1785   7.1852   7.2103   7.2356   7.2356   7.2515
     7.2796   7.2796   7.2805   7.2974   7.2975   7.3016   7.3033   7.3222
     7.3223   7.3370   7.3370   7.3470   7.3470   7.3631   7.3702   7.3767
     7.3815   7.3815   7.4308   7.4309   7.4372   7.4372   7.4628   7.4678
     7.4783   7.4784   7.4935   7.5011   7.5011   7.5216   7.5217   7.5261
     7.5261   7.5427   7.5427   7.5429   7.5633   7.5633   7.6109   7.6110
     7.6453   7.6475   7.6475   7.6592   7.6593   7.6703   7.6752   7.7464
     7.7464   7.7960   7.8154   7.8175   7.8175   8.0834   8.0984   8.0985
     9.2558   9.2558   9.2645   9.7521   9.8069   9.8070   9.8675   9.8962
     9.8963   9.8963   9.9460   9.9460   9.9468  10.0564  10.0708  10.0708
    10.1097  10.1097  10.1326  10.1352  10.1473  10.1473  10.1536  10.2178
    10.2179  10.3559  10.3858  10.3858  10.4092  10.4493  10.4493  10.5123
    10.5124  10.5166  10.5468  10.5468  10.5602  10.5952  10.8125  10.8268
    10.8455  10.8455  10.8775  10.8776  10.9287  10.9605  10.9605  11.0184
    11.0330  11.0330  11.0869  11.0870  11.1593  11.2063

     occupation numbers 
     1.0000   1.0000   1.0000   1.0000   1.0000   1.0000   1.0000   1.0000
     1.0000   1.0000   1.0000   1.0000   1.0000   1.0000   1.0000   1.0000
     1.0000   1.0000   1.0000   1.0000   1.0000   1.0000   1.0000   1.0000
     1.0000   1.0000   1.0000   1.0000   1.0000   1.0000   1.0000   1.0000
     1.0000   1.0000   1.0000   1.0000   1.0000   1.0000   1.0000   1.0000
     1.0000   1.0000   1.0000   1.0000   1.0000   1.0000   1.0000   1.0000
     1.0000   1.0000   1.0000   1.0000   1.0000   1.0000   1.0000   1.0000
     1.0000   1.0000   1.0000   1.0000   1.0000   1.0000   1.0000   1.0000
     1.0000   1.0000   1.0000   1.0000   1.0000   1.0000   1.0000   1.0000
     1.0000   1.0000   1.0000   1.0000   1.0000   1.0000   1.0000   1.0000
     1.0000   1.0000   1.0000   1.0000   1.0000   1.0000   1.0000   1.0000
     1.0000   1.0000   1.0000   1.0000   1.0000   1.0000   1.0000   1.0000
     1.0000   1.0000   1.0000   1.0000   1.0000   1.0000   1.0000   1.0000
     1.0000   1.0000   1.0000   1.0000   1.0000   1.0000   1.0000   1.0000
     1.0000   1.0000   1.0000   1.0000   1.0000   1.0000   1.0000   1.0000
     1.0000   1.0000   1.0000   1.0000   1.0000   1.0000   1.0000   1.0000
     1.0000   1.0000   1.0000   1.0000   1.0000   1.0000   1.0000   1.0000
     1.0000   1.0000   1.0000   1.0000   1.0000   1.0000   1.0000   1.0000
     1.0000   1.0000   1.0000   1.0000   1.0000   1.0000   1.0000   1.0000
     1.0000   1.0000   1.0000   1.0000   1.0000   1.0000   1.0000   1.0000
     1.0000   1.0000   1.0000   1.0000   1.0000   1.0000   1.0000   1.0000
     1.0000   1.0000   1.0000   1.0000   1.0000   1.0000   1.0000   1.0000
     1.0000   1.0000   1.0000   1.0000   1.0000   1.0000   1.0000   1.0000
     1.0000   1.0000   1.0000   1.0000   1.0000   1.0000   1.0000   1.0000
     1.0000   1.0000   1.0000   1.0000   1.0000   1.0000   1.0000   1.0000
     1.0000   1.0000   1.0000   1.0000   1.0000   1.0000   1.0000   1.0000
     1.0000   1.0000   1.0000   1.0000   1.0000   1.0000   1.0000   1.0000
     1.0000   1.0000   1.0000   1.0000   1.0000   1.0000   1.0000   1.0000
     1.0000   1.0000   1.0000   1.0000   1.0000   1.0000   1.0000   1.0000
     1.0000   1.0000   1.0000   1.0000   1.0000   1.0000   1.0000   1.0000
     1.0000   1.0000   1.0000   1.0000   1.0000   1.0000   1.0000   1.0000
     1.0000   1.0000   1.0000   1.0000   1.0000   1.0000   1.0000   1.0000
     1.0000   1.0000   1.0000   1.0000   1.0000   1.0000   1.0000   1.0000
     1.0000   1.0000   1.0000   1.0000   1.0000   1.0000   1.0000   1.0000
     1.0000   1.0000   1.0000   1.0000   1.0000   1.0000   1.0000   1.0000
     1.0000   1.0000   1.0000   1.0000   1.0000   1.0000   1.0000   1.0000
     1.0000   1.0000   1.0000   1.0000   1.0000   1.0000   1.0000   1.0000
     1.0000   1.0000   1.0000   1.0000   1.0000   1.0000   1.0000   1.0000
     1.0000   1.0000   1.0000   1.0000   1.0000   1.0000   1.0000   1.0000
     1.0000   1.0000   1.0000   1.0000   1.0000   1.0000   1.0000   1.0000
     1.0000   1.0000   1.0000   1.0000   1.0000   1.0000   1.0000   1.0000
     1.0000   1.0000   1.0000   1.0000   1.0000   1.0000   1.0000   1.0000
     1.0000   1.0000   1.0000   1.0000   1.0000   1.0000   1.0000   1.0000
     1.0000   1.0000   1.0000   1.0000   1.0000   1.0000   1.0000   1.0000
     1.0000   1.0000   1.0000   1.0000   1.0000   1.0000   1.0000   1.0000
     1.0000   1.0000   1.0000   1.0000   1.0000   1.0000   1.0000   1.0000
     1.0000   1.0000   1.0000   1.0000   1.0000   1.0000   1.0000   1.0000
     1.0000   1.0000   1.0000   1.0000   1.0000   1.0000   1.0000   1.0000
     1.0000   1.0000   1.0000   1.0000   1.0000   1.0000   1.0000   1.0000
     1.0000   1.0000   1.0000   1.0000   1.0000   1.0000   1.0000   1.0000
     1.0000   1.0000   1.0000   1.0000   1.0000   1.0000   1.0000   1.0000
     1.0000   1.0000   1.0000   1.0000   1.0000   1.0000   1.0000   1.0000
     1.0000   1.0000   1.0000   1.0000   1.0000   1.0000   1.0000   1.0000
     1.0000   1.0000   1.0000   1.0000   1.0000   1.0000   1.0000   1.0000
     1.0000   1.0000   1.0000   1.0000   1.0000   1.0000   1.0000   1.0000
     1.0000   1.0000   1.0000   1.0000   1.0000   1.0000   1.0000   1.0000
     1.0000   1.0000   1.0000   1.0000   1.0000   1.0000   1.0000   1.0000
     1.0000   1.0000   1.0000   1.0000   1.0000   1.0000   1.0000   1.0000
     1.0000   1.0000   1.0000   1.0000   1.0000   1.0000   1.0000   1.0000
     1.0000   1.0000   1.0000   1.0000   1.0000   1.0000   1.0000   1.0000
     1.0000   1.0000   1.0000   1.0000   1.0000   1.0000   1.0000   1.0000
     1.0000   1.0000   1.0000   1.0000   1.0000   1.0000   1.0000   1.0000
     1.0000   1.0000   1.0000   1.0000   1.0000   1.0000   1.0000   1.0000
     1.0000   1.0000   1.0000   1.0000   1.0000   1.0000   1.0000   1.0000
     1.0000   1.0000   1.0000   1.0000   1.0000   1.0000   1.0000   1.0000
     1.0000   1.0000   1.0000   1.0000   1.0000   1.0000   1.0000   1.0000
     1.0000   1.0000   1.0000   1.0000   1.0000   1.0000   1.0000   1.0000
     1.0000   1.0000   1.0000   1.0000   1.0000   1.0000   1.0000   1.0000
     1.0000   1.0000   1.0000   1.0000   1.0000   1.0000   1.0000   1.0000
     1.0000   1.0000   1.0000   1.0000   1.0000   1.0000   1.0000   1.0000
     1.0000   1.0000   1.0000   1.0000   1.0000   1.0000   1.0000   1.0000
     1.0000   1.0000   1.0000   1.0000   1.0000   1.0000   1.0000   1.0000
     1.0000   1.0000   1.0000   1.0000   1.0000   1.0000   1.0000   1.0000
     1.0000   1.0000   1.0000   1.0000   1.0000   1.0000   1.0000   1.0000
     1.0000   1.0000   1.0000   1.0000   1.0000   1.0000   1.0000   1.0000
     1.0000   1.0000   1.0000   1.0000   1.0000   1.0000   1.0000   1.0000
     1.0000   1.0000   1.0000   1.0000   1.0000   1.0000   1.0000   1.0000
     1.0000   1.0000   1.0000   1.0000   1.0000   1.0000   1.0000   1.0000
     1.0000   1.0000   1.0000   1.0000   1.0000   1.0000   1.0000   1.0000
     1.0000   1.0000   1.0000   1.0000   1.0000   1.0000   1.0000   1.0000
     1.0000   1.0000   1.0000   1.0000   1.0000   1.0000   1.0000   1.0000
     1.0000   1.0000   1.0000   1.0000   1.0000   1.0000   1.0000   1.0000
     1.0000   1.0000   1.0000   1.0000   1.0000   1.0000   1.0000   1.0000
     1.0000   1.0000   1.0000   1.0000   1.0000   1.0000   1.0000   1.0000
     1.0000   1.0000   1.0000   1.0000   1.0000   1.0000   1.0000   1.0000
     1.0000   1.0000   1.0000   1.0000   1.0000   1.0000   1.0000   1.0000
     1.0000   1.0000   1.0000   1.0000   1.0000   1.0000   1.0000   1.0000
     1.0000   1.0000   1.0000   1.0000   1.0000   1.0000   1.0000   1.0000
     1.0000   1.0000   1.0000   1.0000   1.0000   1.0000   1.0000   1.0000
     1.0000   1.0000   1.0000   1.0000   1.0000   1.0000   1.0000   1.0000
     1.0000   1.0000   1.0000   1.0000   1.0000   1.0000   1.0000   1.0000
     1.0000   1.0000   1.0000   1.0000   1.0000   1.0000   1.0000   1.0000
     1.0000   1.0000   1.0000   1.0000   1.0000   1.0000   1.0000   1.0000
     1.0000   1.0000   1.0000   1.0000   1.0000   1.0000   1.0000   1.0000
     1.0000   1.0000   1.0000   1.0000   1.0000   1.0000   1.0000   1.0000
     1.0000   1.0000   1.0000   1.0000   1.0000   0.0000   0.0000   0.0000
     0.0000   0.0000   0.0000   0.0000   0.0000   0.0000   0.0000   0.0000
     0.0000   0.0000   0.0000   0.0000   0.0000   0.0000   0.0000   0.0000
     0.0000   0.0000   0.0000   0.0000   0.0000   0.0000   0.0000   0.0000
     0.0000   0.0000   0.0000   0.0000   0.0000   0.0000   0.0000   0.0000
     0.0000   0.0000   0.0000   0.0000   0.0000   0.0000   0.0000   0.0000
     0.0000   0.0000   0.0000   0.0000   0.0000   0.0000   0.0000   0.0000
     0.0000   0.0000   0.0000   0.0000   0.0000   0.0000   0.0000   0.0000
     0.0000   0.0000   0.0000   0.0000   0.0000   0.0000   0.0000   0.0000
     0.0000   0.0000   0.0000   0.0000   0.0000   0.0000   0.0000   0.0000
     0.0000   0.0000   0.0000   0.0000   0.0000   0.0000   0.0000   0.0000
     0.0000   0.0000   0.0000   0.0000   0.0000   0.0000   0.0000   0.0000
     0.0000   0.0000   0.0000   0.0000   0.0000   0.0000   0.0000   0.0000
     0.0000   0.0000   0.0000   0.0000   0.0000   0.0000   0.0000   0.0000
     0.0000   0.0000   0.0000   0.0000   0.0000   0.0000   0.0000   0.0000
     0.0000   0.0000   0.0000   0.0000   0.0000   0.0000   0.0000   0.0000
     0.0000   0.0000   0.0000   0.0000   0.0000   0.0000   0.0000   0.0000
     0.0000   0.0000   0.0000   0.0000   0.0000   0.0000   0.0000   0.0000
     0.0000   0.0000   0.0000   0.0000   0.0000   0.0000   0.0000   0.0000
     0.0000   0.0000   0.0000   0.0000   0.0000   0.0000

     the Fermi energy is     4.3551 ev

!    total energy              =  -65089.89460529 Ry
     total all-electron energy =  -2276515.936257 Ry
     estimated scf accuracy    <       0.00000006 Ry
     smearing contrib. (-TS)   =      -0.00000000 Ry
     internal energy E=F+TS    =  -65089.89460529 Ry

     The total energy is F=E-TS. E is the sum of the following terms:
     one-electron contribution =  -11861.17934396 Ry
     hartree contribution      =    6633.94825088 Ry
     xc contribution           =   -4514.45552680 Ry
     ewald contribution        =   -9833.94404384 Ry
     one-center paw contrib.   =  -45514.26394158 Ry
      -> PAW hartree energy AE =      95.93326775 Ry
      -> PAW hartree energy PS =     -96.17070090 Ry
      -> PAW xc energy AE      =    -798.42885692 Ry
      -> PAW xc energy PS      =      33.30997794 Ry
      -> total E_H with PAW    =    6633.71081773 Ry
      -> total E_XC with PAW   =   -5279.57440577 Ry

     convergence has been achieved in   1 iterations


     -----------------------------------------------
     Non-local corr. energy    =      45.72760655 Ry
     -----------------------------------------------


     Forces acting on atoms (cartesian axes, Ry/au):

     atom    1 type  1   force =     0.00000035   -0.00048613    0.00008685
     atom    2 type  1   force =    -0.00000004   -0.00031899    0.00050400
     atom    3 type  1   force =     0.00007639   -0.00006595   -0.00004821
     atom    4 type  1   force =     0.00027688    0.00011308    0.00030729
     atom    5 type  1   force =    -0.00002168    0.00009980   -0.00004970
     atom    6 type  1   force =     0.00023807    0.00018118    0.00030779
     atom    7 type  1   force =    -0.00042135    0.00024179    0.00008419
     atom    8 type  1   force =    -0.00027511    0.00015876    0.00050156
     atom    9 type  1   force =    -0.00007927   -0.00004638   -0.00008017
     atom   10 type  1   force =    -0.00037713   -0.00021873   -0.00013885
     atom   11 type  1   force =    -0.00007631   -0.00006636   -0.00004828
     atom   12 type  1   force =    -0.00027662    0.00011317    0.00030698
     atom   13 type  1   force =    -0.00000007   -0.00000032    0.00033705
     atom   14 type  1   force =     0.00000018   -0.00000070    0.00047983
     atom   15 type  1   force =    -0.00009658   -0.00003277   -0.00004928
     atom   16 type  1   force =    -0.00003839   -0.00029682    0.00030733
     atom   17 type  1   force =    -0.00000006   -0.00004644    0.00011338
     atom   18 type  1   force =     0.00000008    0.00044980   -0.00004535
     atom   19 type  1   force =    -0.00004075    0.00002406    0.00011498
     atom   20 type  1   force =     0.00038893   -0.00022484   -0.00004507
     atom   21 type  1   force =     0.00002147    0.00009951   -0.00004971
     atom   22 type  1   force =    -0.00023767    0.00018150    0.00030756
     atom   23 type  1   force =     0.00009583   -0.00003304   -0.00004920
     atom   24 type  1   force =     0.00003898   -0.00029680    0.00030735
     atom   25 type  1   force =     0.00007821   -0.00004548   -0.00008075
     atom   26 type  1   force =     0.00037724   -0.00021863   -0.00013916
     atom   27 type  1   force =     0.00004066    0.00002409    0.00011464
     atom   28 type  1   force =    -0.00038904   -0.00022501   -0.00004495
     atom   29 type  1   force =     0.00000028    0.00009528   -0.00007841
     atom   30 type  1   force =     0.00000017    0.00043627   -0.00013841
     atom   31 type  1   force =     0.00042184    0.00024170    0.00008482
     atom   32 type  1   force =     0.00027514    0.00015872    0.00050247
     atom   33 type  2   force =     0.00000040    0.00000022   -0.00027094
     atom   34 type  2   force =     0.00020799   -0.00025754   -0.00002227
     atom   35 type  2   force =    -0.00010732    0.00005814   -0.00042716
     atom   36 type  2   force =    -0.00017771   -0.00010318   -0.00078477
     atom   37 type  2   force =    -0.00021393   -0.00012354    0.00006400
     atom   38 type  2   force =    -0.00011803    0.00031260   -0.00002216
     atom   39 type  2   force =    -0.00000149   -0.00012072   -0.00042678
     atom   40 type  2   force =    -0.00032588   -0.00005415   -0.00002251
     atom   41 type  2   force =     0.00010588    0.00006445   -0.00042664
     atom   42 type  2   force =    -0.00020768   -0.00025867   -0.00002187
     atom   43 type  2   force =     0.00010656    0.00005761   -0.00042697
     atom   44 type  2   force =    -0.00000018   -0.00002759   -0.00031024
     atom   45 type  2   force =    -0.00000024   -0.00002021    0.00026325
     atom   46 type  2   force =    -0.00002477    0.00001494   -0.00030914
     atom   47 type  2   force =    -0.00001745    0.00001142    0.00026341
     atom   48 type  2   force =    -0.00000003    0.00020547   -0.00078477
     atom   49 type  2   force =    -0.00000031    0.00024656    0.00006519
     atom   50 type  2   force =    -0.00005197   -0.00003096    0.00021240
     atom   51 type  2   force =     0.00000991    0.00000624   -0.00007629
     atom   52 type  2   force =     0.00017779   -0.00010329   -0.00078407
     atom   53 type  2   force =     0.00021396   -0.00012421    0.00006355
     atom   54 type  2   force =     0.00002416    0.00001494   -0.00030999
     atom   55 type  2   force =     0.00001673    0.00001127    0.00026329
     atom   56 type  2   force =     0.00032523   -0.00005393   -0.00002281
     atom   57 type  2   force =    -0.00010622    0.00006524   -0.00042684
     atom   58 type  2   force =     0.00005225   -0.00003085    0.00021252
     atom   59 type  2   force =    -0.00001077    0.00000656   -0.00007586
     atom   60 type  2   force =     0.00000023    0.00005976    0.00021225
     atom   61 type  2   force =    -0.00000003   -0.00000966   -0.00007792
     atom   62 type  2   force =     0.00011888    0.00031260   -0.00002215
     atom   63 type  2   force =     0.00000218   -0.00011997   -0.00042694
     atom   64 type  2   force =     0.00009867   -0.00005941   -0.00004626
     atom   65 type  2   force =    -0.00042574    0.00024474    0.00038308
     atom   66 type  2   force =     0.00004180   -0.00010969    0.00017977
     atom   67 type  2   force =    -0.00006771   -0.00003223    0.00008988
     atom   68 type  2   force =    -0.00007239    0.00009193    0.00017850
     atom   69 type  2   force =    -0.00006155   -0.00004241    0.00009147
     atom   70 type  2   force =     0.00000087    0.00011810   -0.00004903
     atom   71 type  2   force =     0.00000010   -0.00049048    0.00038370
     atom   72 type  2   force =    -0.00009921   -0.00006051   -0.00004767
     atom   73 type  2   force =     0.00042582    0.00024465    0.00038331
     atom   74 type  2   force =     0.00000037    0.00001739   -0.00017427
     atom   75 type  2   force =     0.00000042    0.00011773    0.00009721
     atom   76 type  2   force =    -0.00030409   -0.00017346    0.00023479
     atom   77 type  2   force =    -0.00010220   -0.00005820   -0.00025177
     atom   78 type  2   force =     0.00001643   -0.00000883   -0.00017553
     atom   79 type  2   force =     0.00010849   -0.00006208    0.00010028
     atom   80 type  2   force =    -0.00011487    0.00001743    0.00017885
     atom   81 type  2   force =     0.00000648    0.00007481    0.00008978
     atom   82 type  2   force =    -0.00004203   -0.00011036    0.00017906
     atom   83 type  2   force =     0.00006772   -0.00003206    0.00009032
     atom   84 type  2   force =     0.00030363   -0.00017373    0.00023486
     atom   85 type  2   force =     0.00010185   -0.00005831   -0.00025146
     atom   86 type  2   force =    -0.00000044    0.00035261    0.00023389
     atom   87 type  2   force =    -0.00000025    0.00012027   -0.00025139
     atom   88 type  2   force =     0.00011442    0.00001760    0.00017948
     atom   89 type  2   force =    -0.00000675    0.00007484    0.00008929
     atom   90 type  2   force =    -0.00000025   -0.00000086   -0.00002894
     atom   91 type  2   force =    -0.00000021   -0.00000144   -0.00023276
     atom   92 type  2   force =     0.00007294    0.00009180    0.00017881
     atom   93 type  2   force =     0.00006142   -0.00004266    0.00009137
     atom   94 type  2   force =    -0.00001625   -0.00000912   -0.00017527
     atom   95 type  2   force =    -0.00010698   -0.00006160    0.00009907
     atom   96 type  1   force =     0.00000067   -0.00000132   -0.00090572
     The non-local contrib.  to forces
     atom    1 type  1   force =    -0.00000102    0.06987070   -0.08309716
     atom    2 type  1   force =     0.00000007    0.13248383    0.08545932
     atom    3 type  1   force =     0.00510011    0.02491370    0.00229703
     atom    4 type  1   force =    -0.02555491    0.02884330   -0.00961718
     atom    5 type  1   force =     0.02414331   -0.00808916    0.00228849
     atom    6 type  1   force =     0.01219752   -0.03656318   -0.00961581
     atom    7 type  1   force =     0.06054119   -0.03494933   -0.08307211
     atom    8 type  1   force =     0.11471095   -0.06623483    0.08548096
     atom    9 type  1   force =     0.10385330    0.05994547   -0.05658605
     atom   10 type  1   force =     0.01311113    0.00756421    0.00763721
     atom   11 type  1   force =    -0.00508569    0.02491628    0.00229797
     atom   12 type  1   force =     0.02555715    0.02884744   -0.00961511
     atom   13 type  1   force =     0.00000042   -0.00000505   -0.00484121
     atom   14 type  1   force =     0.00000153   -0.00000643   -0.01736674
     atom   15 type  1   force =     0.01904000   -0.01690037    0.00228012
     atom   16 type  1   force =     0.03775504    0.00770755   -0.00962114
     atom   17 type  1   force =     0.00000342   -0.02198817    0.03266440
     atom   18 type  1   force =     0.00000314    0.01062519    0.00373648
     atom   19 type  1   force =    -0.01899846    0.01095892    0.03265817
     atom   20 type  1   force =     0.00922287   -0.00533987    0.00374021
     atom   21 type  1   force =    -0.02413313   -0.00809158    0.00229031
     atom   22 type  1   force =    -0.01220046   -0.03656448   -0.00961769
     atom   23 type  1   force =    -0.01902699   -0.01690245    0.00228113
     atom   24 type  1   force =    -0.03775220    0.00770556   -0.00962400
     atom   25 type  1   force =    -0.10386605    0.05995507   -0.05660116
     atom   26 type  1   force =    -0.01310019    0.00755989    0.00763621
     atom   27 type  1   force =     0.01901029    0.01096212    0.03266040
     atom   28 type  1   force =    -0.00921603   -0.00533930    0.00374153
     atom   29 type  1   force =     0.00000170   -0.11987091   -0.05654509
     atom   30 type  1   force =     0.00000118   -0.01517890    0.00763136
     atom   31 type  1   force =    -0.06053768   -0.03494573   -0.08307781
     atom   32 type  1   force =    -0.11471503   -0.06623610    0.08547573
     atom   33 type  2   force =     0.00000438    0.00000080    0.23082192
     atom   34 type  2   force =     0.00770985   -0.00234160    0.23524058
     atom   35 type  2   force =     0.04138981   -0.01759955    0.25449887
     atom   36 type  2   force =     0.02102991    0.01214528    0.26165586
     atom   37 type  2   force =     0.00750702    0.00433862    0.25765382
     atom   38 type  2   force =     0.00181187    0.00786486    0.23522362
     atom   39 type  2   force =     0.00541941    0.04465071    0.25449879
     atom   40 type  2   force =    -0.00589163   -0.00549858    0.23523363
     atom   41 type  2   force =    -0.03595796   -0.02703172    0.25449795
     atom   42 type  2   force =    -0.00771058   -0.00234991    0.23523632
     atom   43 type  2   force =    -0.04138537   -0.01760517    0.25449908
     atom   44 type  2   force =    -0.00000142    0.00902159    0.24696197
     atom   45 type  2   force =    -0.00000280   -0.00016331    0.25493044
     atom   46 type  2   force =     0.00780877   -0.00450900    0.24696761
     atom   47 type  2   force =    -0.00013927    0.00008528    0.25493416
     atom   48 type  2   force =    -0.00000259   -0.02427956    0.26165485
     atom   49 type  2   force =    -0.00000434   -0.00865841    0.25765589
     atom   50 type  2   force =    -0.00273489   -0.00156657    0.25186131
     atom   51 type  2   force =    -0.05547830   -0.03201441    0.27497114
     atom   52 type  2   force =    -0.02103108    0.01214339    0.26165582
     atom   53 type  2   force =    -0.00750910    0.00433463    0.25765316
     atom   54 type  2   force =    -0.00781239   -0.00450954    0.24696480
     atom   55 type  2   force =     0.00013429    0.00008579    0.25493316
     atom   56 type  2   force =     0.00588548   -0.00550077    0.23523911
     atom   57 type  2   force =     0.03595229   -0.02703531    0.25449802
     atom   58 type  2   force =     0.00272980   -0.00156425    0.25186063
     atom   59 type  2   force =     0.05546736   -0.03201108    0.27497520
     atom   60 type  2   force =    -0.00000039    0.00316340    0.25186692
     atom   61 type  2   force =    -0.00000238    0.06408243    0.27496198
     atom   62 type  2   force =    -0.00180991    0.00786491    0.23522456
     atom   63 type  2   force =    -0.00541764    0.04464711    0.25449922
     atom   64 type  2   force =     0.19376997   -0.11190415   -0.04471608
     atom   65 type  2   force =    -0.00305536    0.00175431   -0.22943473
     atom   66 type  2   force =    -0.02198812    0.00062131   -0.25973363
     atom   67 type  2   force =    -0.00405609   -0.00697594   -0.24722470
     atom   68 type  2   force =    -0.01042296   -0.01936588   -0.25973556
     atom   69 type  2   force =    -0.00807556   -0.00002120   -0.24722395
     atom   70 type  2   force =     0.00000548    0.22376137   -0.04469822
     atom   71 type  2   force =     0.00000255   -0.00350196   -0.22942689
     atom   72 type  2   force =    -0.19376476   -0.11190811   -0.04470937
     atom   73 type  2   force =     0.00305213    0.00174992   -0.22943290
     atom   74 type  2   force =    -0.00000073   -0.00017101   -0.25442962
     atom   75 type  2   force =     0.00000002   -0.09437703   -0.27125784
     atom   76 type  2   force =    -0.01387047   -0.00799497   -0.26425154
     atom   77 type  2   force =    -0.01213547   -0.00700325   -0.25531268
     atom   78 type  2   force =    -0.00014388    0.00009273   -0.25442600
     atom   79 type  2   force =    -0.08173637    0.04720170   -0.27125927
     atom   80 type  2   force =     0.01154565    0.01873053   -0.25973666
     atom   81 type  2   force =    -0.00400978    0.00700914   -0.24722444
     atom   82 type  2   force =     0.02198461    0.00063169   -0.25973351
     atom   83 type  2   force =     0.00405452   -0.00697292   -0.24722338
     atom   84 type  2   force =     0.01387041   -0.00799394   -0.26425125
     atom   85 type  2   force =     0.01213821   -0.00700456   -0.25531174
     atom   86 type  2   force =     0.00000065    0.01602756   -0.26425171
     atom   87 type  2   force =     0.00000028    0.01401900   -0.25531175
     atom   88 type  2   force =    -0.01153797    0.01873282   -0.25973629
     atom   89 type  2   force =     0.00400994    0.00700661   -0.24722535
     atom   90 type  2   force =    -0.00000019   -0.00000022   -0.24970453
     atom   91 type  2   force =    -0.00000173   -0.00000283   -0.24425424
     atom   92 type  2   force =     0.01041792   -0.01936227   -0.25973510
     atom   93 type  2   force =     0.00807034   -0.00001962   -0.24722366
     atom   94 type  2   force =     0.00014300    0.00009311   -0.25442829
     atom   95 type  2   force =     0.08173183    0.04719951   -0.27125968
     atom   96 type  1   force =    -0.00001557    0.00005280   -0.31035808
     The ionic contribution  to forces
     atom    1 type  1   force =    -0.00036065   -1.23978162   -0.33369154
     atom    2 type  1   force =    -0.00008640   -8.83028106   -3.21577082
     atom    3 type  1   force =    -0.18518036   -0.97630183    0.31597920
     atom    4 type  1   force =     0.70733933   -1.42070065   -0.44545743
     atom    5 type  1   force =    -0.93713697    0.32752580    0.31715009
     atom    6 type  1   force =    -0.87559102    1.32156760   -0.44580754
     atom    7 type  1   force =    -1.07480938    0.62190874   -0.33708579
     atom    8 type  1   force =    -7.64725573    4.41593129   -3.21484456
     atom    9 type  1   force =    -2.95049197   -1.70239502    1.29355215
     atom   10 type  1   force =    -1.90983226   -1.10164469   -0.68074419
     atom   11 type  1   force =     0.18486377   -0.97613957    0.31610766
     atom   12 type  1   force =    -0.70719869   -1.42057860   -0.44548129
     atom   13 type  1   force =     0.00019507   -0.00050548   -0.33547320
     atom   14 type  1   force =     0.00021786   -0.00069957    0.16367562
     atom   15 type  1   force =    -0.75165663    0.64942514    0.31733647
     atom   16 type  1   force =    -1.58270566    0.09823710   -0.44509957
     atom   17 type  1   force =     0.00012101    0.64796298   -0.20815001
     atom   18 type  1   force =     0.00004497   -0.19627749   -0.08027048
     atom   19 type  1   force =     0.55911265   -0.32376585   -0.20771819
     atom   20 type  1   force =    -0.17137823    0.09832104   -0.08135146
     atom   21 type  1   force =     0.93693518    0.32778119    0.31730284
     atom   22 type  1   force =     0.87572770    1.32175683   -0.44545909
     atom   23 type  1   force =     0.75174856    0.64951467    0.31732955
     atom   24 type  1   force =     1.58308622    0.09820616   -0.44475526
     atom   25 type  1   force =     2.95134311   -1.70314468    1.29510662
     atom   26 type  1   force =     1.90950222   -1.10179470   -0.68039257
     atom   27 type  1   force =    -0.55949949   -0.32412833   -0.20788332
     atom   28 type  1   force =     0.17103843    0.09807111   -0.08134931
     atom   29 type  1   force =    -0.00020647    3.40369514    1.28919766
     atom   30 type  1   force =    -0.00028884    2.20591710   -0.68084426
     atom   31 type  1   force =     1.07429291    0.62200534   -0.33601074
     atom   32 type  1   force =     7.64708598    4.41589318   -3.21511244
     atom   33 type  2   force =    -0.00046195    0.00141698  -14.41822041
     atom   34 type  2   force =     1.20768841   -3.16634957  -13.20749807
     atom   35 type  2   force =    -1.00351519   -0.50305626  -13.78950473
     atom   36 type  2   force =    -0.75413495   -0.43705227  -14.57943305
     atom   37 type  2   force =    -0.38539596   -0.22485699  -14.75775631
     atom   38 type  2   force =    -2.13865794    2.62852623  -13.20589915
     atom   39 type  2   force =    -0.93663015   -0.61732445  -13.78914752
     atom   40 type  2   force =    -3.34584815    0.53898162  -13.20645137
     atom   41 type  2   force =     0.06648668    1.12186349  -13.78939889
     atom   42 type  2   force =    -1.20775121   -3.16592681  -13.20728036
     atom   43 type  2   force =     1.00298035   -0.50261486  -13.78949821
     atom   44 type  2   force =     0.00020148   -1.22049172  -13.98104727
     atom   45 type  2   force =     0.00013829   -0.10765387  -14.65815416
     atom   46 type  2   force =    -1.05547903    0.60897942  -13.98109497
     atom   47 type  2   force =    -0.09149339    0.05283454  -14.65785033
     atom   48 type  2   force =     0.00030625    0.87183705  -14.57952993
     atom   49 type  2   force =     0.00049742    0.44629330  -14.75769402
     atom   50 type  2   force =    -0.75084914   -0.43334908  -14.36513264
     atom   51 type  2   force =     1.61869516    0.93379319  -14.96774911
     atom   52 type  2   force =     0.75422728   -0.43675870  -14.57944219
     atom   53 type  2   force =     0.38551238   -0.22437505  -14.75787996
     atom   54 type  2   force =     1.05597653    0.60903398  -13.98113054
     atom   55 type  2   force =     0.09199503    0.05296046  -14.65806994
     atom   56 type  2   force =     3.34615684    0.53876510  -13.20685243
     atom   57 type  2   force =    -0.06636392    1.12203908  -13.78962166
     atom   58 type  2   force =     0.75108648   -0.43364513  -14.36503923
     atom   59 type  2   force =    -1.61831135    0.93368936  -14.96802367
     atom   60 type  2   force =    -0.00014270    0.86540831  -14.36536453
     atom   61 type  2   force =     0.00011192   -1.86998657  -14.96683318
     atom   62 type  2   force =     2.13820703    2.62876924  -13.20606916
     atom   63 type  2   force =     0.93618371   -0.61702723  -13.78936309
     atom   64 type  2   force =    -6.75538750    3.90309784    9.63594064
     atom   65 type  2   force =     3.09116788   -1.78395114    9.20128329
     atom   66 type  2   force =     1.35181963   -0.95423354   15.05595156
     atom   67 type  2   force =     0.39813040   -0.46327819   13.79568415
     atom   68 type  2   force =    -0.14947317    1.64529069   15.05626740
     atom   69 type  2   force =    -0.20158266    0.57439696   13.79489754
     atom   70 type  2   force =    -0.00081306   -7.79785659    9.63534235
     atom   71 type  2   force =    -0.00040529    3.57002840    9.19992806
     atom   72 type  2   force =     6.75408201    3.90329513    9.63571712
     atom   73 type  2   force =    -3.09156325   -1.78373417    9.20096784
     atom   74 type  2   force =    -0.00004619   -0.74145656   15.24808798
     atom   75 type  2   force =    -0.00005405    0.85763114   13.23849514
     atom   76 type  2   force =    -0.05467991   -0.03288967   14.88168247
     atom   77 type  2   force =     0.44492005    0.25494155   14.48059210
     atom   78 type  2   force =    -0.63981026    0.36973474   15.24741090
     atom   79 type  2   force =     0.74295923   -0.42826544   13.23819615
     atom   80 type  2   force =    -1.50099498   -0.69302994   15.05566763
     atom   81 type  2   force =    -0.59932114   -0.11197718   13.79557348
     atom   82 type  2   force =    -1.35161657   -0.95378945   15.05621847
     atom   83 type  2   force =    -0.39812921   -0.46276886   13.79538227
     atom   84 type  2   force =     0.05482623   -0.03269597   14.88176139
     atom   85 type  2   force =    -0.44453544    0.25525874   14.48052762
     atom   86 type  2   force =     0.00024086    0.06403474   14.88106743
     atom   87 type  2   force =     0.00045181   -0.51296702   14.48087665
     atom   88 type  2   force =     1.50157202   -0.69312724   15.05554363
     atom   89 type  2   force =     0.59980118   -0.11217267   13.79577257
     atom   90 type  2   force =     0.00003880   -0.00069326   14.13904750
     atom   91 type  2   force =     0.00029589   -0.00175220   14.38138858
     atom   92 type  2   force =     0.14940117    1.64543220   15.05643156
     atom   93 type  2   force =     0.20120087    0.57465791   13.79477386
     atom   94 type  2   force =     0.64029312    0.37005405   15.24749709
     atom   95 type  2   force =    -0.74299513   -0.42825776   13.23818363
     atom   96 type  1   force =    -0.00018578    0.00073869   17.26588721
     The local contribution  to forces
     atom    1 type  1   force =     0.00036060    1.17066824    0.41535683
     atom    2 type  1   force =     0.00008538    8.70044603    3.13306692
     atom    3 type  1   force =     0.18032812    0.95182738   -0.31832821
     atom    4 type  1   force =    -0.68179758    1.39264256    0.45538404
     atom    5 type  1   force =     0.91349403   -0.31944236   -0.31949159
     atom    6 type  1   force =     0.86406658   -1.28541125    0.45573314
     atom    7 type  1   force =     1.01491936   -0.58733648    0.41872407
     atom    8 type  1   force =     7.53483444   -4.35101857    3.13211632
     atom    9 type  1   force =     2.84850793    1.64353297   -1.23812223
     atom   10 type  1   force =     1.89650774    1.09396083    0.67310126
     atom   11 type  1   force =    -0.18002615    0.95166348   -0.31845737
     atom   12 type  1   force =     0.68165466    1.39251736    0.45540552
     atom   13 type  1   force =    -0.00019483    0.00050907    0.34041654
     atom   14 type  1   force =    -0.00021870    0.00070445   -0.14582401
     atom   15 type  1   force =     0.73287122   -0.63295761   -0.31966946
     atom   16 type  1   force =     1.54563856   -0.10632465    0.45502982
     atom   17 type  1   force =    -0.00012398   -0.62649196    0.17635196
     atom   18 type  1   force =    -0.00004777    0.18620856    0.07650274
     atom   19 type  1   force =    -0.54056624    0.31307072    0.17592834
     atom   20 type  1   force =     0.16263280   -0.09325475    0.07757982
     atom   21 type  1   force =    -0.91330295   -0.31969490   -0.31964628
     atom   22 type  1   force =    -0.86420042   -1.28559827    0.45538655
     atom   23 type  1   force =    -0.73297562   -0.63304560   -0.31966377
     atom   24 type  1   force =    -1.54602074   -0.10629177    0.45468868
     atom   25 type  1   force =    -2.84934803    1.64427337   -1.23966279
     atom   26 type  1   force =    -1.89618887    1.09411444    0.67275075
     atom   27 type  1   force =     0.54094056    0.31342879    0.17609077
     atom   28 type  1   force =    -0.16230074   -0.09300632    0.07757649
     atom   29 type  1   force =     0.00020367   -3.28597841   -1.23380534
     atom   30 type  1   force =     0.00028671   -2.19049271    0.67320701
     atom   31 type  1   force =    -1.01440813   -0.58743675    0.41765492
     atom   32 type  1   force =    -7.53466247   -4.35097946    3.13239095
     atom   33 type  2   force =     0.00045653   -0.00141775   14.19189227
     atom   34 type  2   force =    -1.21507160    3.16870803   12.97733759
     atom   35 type  2   force =     0.96291291    0.52045556   13.53999554
     atom   36 type  2   force =     0.73346795    0.42511406   14.32287243
     atom   37 type  2   force =     0.37804262    0.22060330   14.50559047
     atom   38 type  2   force =     2.13701644   -2.63610913   12.97575451
     atom   39 type  2   force =     0.93143127    0.57345600   13.53964126
     atom   40 type  2   force =     3.35158363   -0.53377213   12.97629730
     atom   41 type  2   force =    -0.03109544   -1.09540975   13.53989097
     atom   42 type  2   force =     1.21513440    3.16829300   12.97712402
     atom   43 type  2   force =    -0.96238493    0.52002064   13.53998954
     atom   44 type  2   force =    -0.00019978    1.21167437   13.73948683
     atom   45 type  2   force =    -0.00013515    0.10793918   14.40904404
     atom   46 type  2   force =     1.04784810   -0.60457533   13.73953038
     atom   47 type  2   force =     0.09174102   -0.05298433   14.40873606
     atom   48 type  2   force =    -0.00030264   -0.84797693   14.32296979
     atom   49 type  2   force =    -0.00049184   -0.43781187   14.50552764
     atom   50 type  2   force =     0.75344393    0.43483636   14.11874320
     atom   51 type  2   force =    -1.56465843   -0.90260755   14.69865877
     atom   52 type  2   force =    -0.73355871    0.42482349   14.32288215
     atom   53 type  2   force =    -0.37815641    0.22012693   14.50571486
     atom   54 type  2   force =    -1.04834112   -0.60462936   13.73956747
     atom   55 type  2   force =    -0.09223627   -0.05311048   14.40895652
     atom   56 type  2   force =    -3.35188831   -0.53355390   12.97669307
     atom   57 type  2   force =     0.03097858   -1.09558131   13.54011225
     atom   58 type  2   force =    -0.75367526    0.43512955   14.11865084
     atom   59 type  2   force =     1.56428563   -0.90250750   14.69892948
     atom   60 type  2   force =     0.00014296   -0.86841027   14.11896895
     atom   61 type  2   force =    -0.00011003    1.80756998   14.69775154
     atom   62 type  2   force =    -2.13656911   -2.63635304   12.97592379
     atom   63 type  2   force =    -0.93098798    0.57316392   13.53985615
     atom   64 type  2   force =     6.56575164   -3.79358188   -9.59215093
     atom   65 type  2   force =    -3.08865789    1.78251065   -8.97629965
     atom   66 type  2   force =    -1.33026735    0.95349171  -14.80171215
     atom   67 type  2   force =    -0.39395418    0.47029292  -13.55386067
     atom   68 type  2   force =     0.15957468   -1.62624618  -14.80202720
     atom   69 type  2   force =     0.20975010   -0.57429350  -13.55307353
     atom   70 type  2   force =     0.00080723    7.57887971   -9.59156612
     atom   71 type  2   force =     0.00040186   -3.56715633   -8.97495302
     atom   72 type  2   force =    -6.56445494   -3.79377699   -9.59193264
     atom   73 type  2   force =     3.08905539    1.78229836   -8.97598659
     atom   74 type  2   force =     0.00004717    0.74167000  -14.99920130
     atom   75 type  2   force =     0.00005379   -0.76489826  -12.97298720
     atom   76 type  2   force =     0.06807232    0.04060759  -14.62307533
     atom   77 type  2   force =    -0.43298919   -0.24806020  -14.23080057
     atom   78 type  2   force =     0.63999015   -0.36985059  -14.99852723
     atom   79 type  2   force =    -0.66264699    0.38188602  -12.97268494
     atom   80 type  2   force =     1.48956514    0.67473834  -14.80142530
     atom   81 type  2   force =     0.60330466    0.10484924  -13.55374998
     atom   82 type  2   force =     1.33006823    0.95303840  -14.80197969
     atom   83 type  2   force =     0.39395438    0.46978249  -13.55356019
     atom   84 type  2   force =    -0.06821833    0.04041369  -14.62315537
     atom   85 type  2   force =     0.43260295   -0.24837518  -14.23073702
     atom   86 type  2   force =    -0.00024085   -0.07950857  -14.62246140
     atom   87 type  2   force =    -0.00045102    0.49918420  -14.23108588
     atom   88 type  2   force =    -1.49014812    0.67483301  -14.80130111
     atom   89 type  2   force =    -0.60378346    0.10504673  -13.55394855
     atom   90 type  2   force =    -0.00003841    0.00069424  -13.89472767
     atom   91 type  2   force =    -0.00029394    0.00175480  -14.14265938
     atom   92 type  2   force =    -0.15949808   -1.62639038  -14.80219176
     atom   93 type  2   force =    -0.20936475   -0.57455512  -13.55295063
     atom   94 type  2   force =    -0.64047163   -0.37017071  -14.99861243
     atom   95 type  2   force =     0.66268774    0.38188067  -12.97267297
     atom   96 type  1   force =     0.00020085   -0.00079059  -16.96348913
     The core correction contribution to forces
     atom    1 type  1   force =    -0.00000002   -0.00114747    0.00151692
     atom    2 type  1   force =     0.00000003   -0.00282193   -0.00215373
     atom    3 type  1   force =    -0.00009454   -0.00038454   -0.00003051
     atom    4 type  1   force =     0.00040655   -0.00049613    0.00012388
     atom    5 type  1   force =    -0.00038017    0.00011086   -0.00003011
     atom    6 type  1   force =    -0.00022623    0.00060026    0.00012384
     atom    7 type  1   force =    -0.00099440    0.00057407    0.00151683
     atom    8 type  1   force =    -0.00244333    0.00141055   -0.00215404
     atom    9 type  1   force =    -0.00199358   -0.00115076    0.00119459
     atom   10 type  1   force =    -0.00015958   -0.00009206   -0.00013181
     atom   11 type  1   force =     0.00009435   -0.00038454   -0.00003051
     atom   12 type  1   force =    -0.00040655   -0.00049621    0.00012388
     atom   13 type  1   force =     0.00000006   -0.00000008    0.00002840
     atom   14 type  1   force =    -0.00000003    0.00000007    0.00027070
     atom   15 type  1   force =    -0.00028557    0.00027431   -0.00002998
     atom   16 type  1   force =    -0.00063288   -0.00010428    0.00012395
     atom   17 type  1   force =    -0.00000002    0.00038093   -0.00059846
     atom   18 type  1   force =    -0.00000002   -0.00022513   -0.00006691
     atom   19 type  1   force =     0.00032931   -0.00019012   -0.00059851
     atom   20 type  1   force =    -0.00019519    0.00011289   -0.00006699
     atom   21 type  1   force =     0.00038009    0.00011095   -0.00003014
     atom   22 type  1   force =     0.00022635    0.00060026    0.00012388
     atom   23 type  1   force =     0.00028551    0.00027435   -0.00003002
     atom   24 type  1   force =     0.00063287   -0.00010421    0.00012398
     atom   25 type  1   force =     0.00199416   -0.00115113    0.00119491
     atom   26 type  1   force =     0.00015943   -0.00009200   -0.00013177
     atom   27 type  1   force =    -0.00032946   -0.00019019   -0.00059852
     atom   28 type  1   force =     0.00019513    0.00011288   -0.00006702
     atom   29 type  1   force =    -0.00000005    0.00230004    0.00119373
     atom   30 type  1   force =    -0.00000003    0.00018470   -0.00013171
     atom   31 type  1   force =     0.00099426    0.00057398    0.00151686
     atom   32 type  1   force =     0.00244347    0.00141059   -0.00215395
     atom   33 type  2   force =    -0.00000057    0.00000292   -0.00476615
     atom   34 type  2   force =    -0.00013674   -0.00012398   -0.00508065
     atom   35 type  2   force =    -0.00080344    0.00038104   -0.00539127
     atom   36 type  2   force =    -0.00042215   -0.00024115   -0.00580371
     atom   37 type  2   force =    -0.00011083   -0.00006106   -0.00541543
     atom   38 type  2   force =    -0.00017187   -0.00005864   -0.00507984
     atom   39 type  2   force =    -0.00007429   -0.00088406   -0.00539459
     atom   40 type  2   force =    -0.00003515    0.00017881   -0.00508060
     atom   41 type  2   force =     0.00072887    0.00050626   -0.00539191
     atom   42 type  2   force =     0.00013656   -0.00012374   -0.00508031
     atom   43 type  2   force =     0.00080337    0.00038088   -0.00539201
     atom   44 type  2   force =    -0.00000038   -0.00011354   -0.00547343
     atom   45 type  2   force =    -0.00000041    0.00006727   -0.00567380
     atom   46 type  2   force =    -0.00010013    0.00005954   -0.00547449
     atom   47 type  2   force =     0.00005583   -0.00003051   -0.00567328
     atom   48 type  2   force =    -0.00000046    0.00048884   -0.00580311
     atom   49 type  2   force =    -0.00000062    0.00012949   -0.00541593
     atom   50 type  2   force =     0.00006326    0.00003924   -0.00532053
     atom   51 type  2   force =     0.00136675    0.00079138   -0.00585046
     atom   52 type  2   force =     0.00042136   -0.00024123   -0.00580359
     atom   53 type  2   force =     0.00010989   -0.00006122   -0.00541546
     atom   54 type  2   force =     0.00009940    0.00005957   -0.00547381
     atom   55 type  2   force =    -0.00005673   -0.00003056   -0.00567308
     atom   56 type  2   force =     0.00003593    0.00017927   -0.00508106
     atom   57 type  2   force =    -0.00072956    0.00050594   -0.00539057
     atom   58 type  2   force =    -0.00006407    0.00003922   -0.00532057
     atom   59 type  2   force =    -0.00136725    0.00079117   -0.00585018
     atom   60 type  2   force =    -0.00000043   -0.00007162   -0.00532028
     atom   61 type  2   force =    -0.00000043   -0.00157797   -0.00585128
     atom   62 type  2   force =     0.00017236   -0.00005816   -0.00507995
     atom   63 type  2   force =     0.00007380   -0.00088436   -0.00539404
     atom   64 type  2   force =    -0.00413456    0.00238917    0.00087338
[...]
              0.220378138138862E+03
              0.100087603332861E+03
              0.162901746151915E+03
             -0.911015251158744E+01
              0.500551641096205E+03
              0.838860704026465E+02
             -0.771872560787795E+02
              0.899577129129102E+01
             -0.507682411304343E+02
              0.411105591405058E+03
             -0.236974633427200E+02
              0.885332991311999E+02
              0.296460807626695E+03
              0.650006525642907E+02
             -0.233960118369077E+03
             -0.341001863680994E+03
              0.357602463148214E+01
             -0.383529992554267E+03
              0.130142182817705E+03
             -0.776355168346379E+02
             -0.180203072371592E+03
              0.161981488427543E+03
              0.620192360035076E+02
              0.146101419575249E+03
              0.129346004079230E+02
              0.232732418815537E+03
             -0.380211747226858E+03
             -0.349070517518865E+02
             -0.331678764011671E+03
              0.597192186384846E+02
              0.179677855702823E+03
             -0.332576419648080E+02
             -0.124976776698553E+03
              0.267192385711086E+03
             -0.123744770982286E+03
              0.870572883721300E+02
             -0.776347193125675E+02
              0.190739599973026E+03
              0.230430578874017E+03
             -0.993679696028830E+02
              0.198066190485824E+03
              0.760478273328113E+02
             -0.204324307541163E+03
             -0.122286074804354E+03
              0.329569035580624E+03
              0.156249022540288E+03
             -0.151076463476035E+02
             -0.443855657393074E+02
              0.484405298945284E+03
              0.290537148379282E+03
              0.106462807829053E+03
             -0.310478110806622E+03
              0.486249443233902E+03
             -0.219830450662809E+03
             -0.272613175123078E+03
             -0.422401572725975E+03
              0.203510388023863E+03
             -0.386438268078948E+03
              0.167486753731750E+03
              0.275040953794684E+03
              0.203779708235380E+03
              0.431735702875854E+02
              0.121601633398739E+03
             -0.304476502450602E+03
             -0.108230225446344E+03
             -0.983513916290317E+02
              0.147117035918370E+03
              0.328538190198304E+03
              0.323732919589365E+03
              0.247842836203613E+03
             -0.612746676813576E+02
              0.880084026702471E+02
              0.124048406780271E+02
             -0.973660657280225E+02
              0.145243159610663E+03
              0.139192825972209E+03
             -0.198358238206620E+03
             -0.200796767349481E+03
             -0.921537484976511E+02
              0.213207548025929E+03
              0.108445741764522E+03
             -0.145157260859584E+03
             -0.253019440838409E+03
             -0.347697183766435E+03
              0.723156889210134E+01
              0.990157779829269E+02
             -0.134455192611888E+03
              0.493843666090234E+03
              0.468479265741780E+01
             -0.573699410194430E+03
              0.143843340034469E+03
              0.236701032743474E+03
             -0.859778877339661E+02
              0.898727464910939E+01
             -0.129670935318161E+03
              0.220343230205339E+03
              0.108672338195452E+03
             -0.289859057106634E+03
              0.344185170148422E+03
              0.235807152620196E+02
             -0.137420733325280E+03
             -0.169427122518155E+03
              0.690123616717918E+03
              0.308538728277467E+03
             -0.773584668581771E+02
              0.170058253242868E+03
             -0.336299961502985E+03
             -0.730593635105470E+02
             -0.298906992453965E+03
              0.115419774742703E+03
              0.214581428617807E+03
              0.236021299461878E+03
             -0.103399312695276E+03
              0.180077074563728E+02
              0.294088056283892E+03
              0.939954384965240E+02
              0.175374581770863E+03
              0.713621968411792E+02
             -0.394265548956153E+02
              0.769342240344258E+00
             -0.546276820477752E+02
              0.609120864669349E+02
              0.204805047298287E+02
             -0.267092259930233E+03
              0.409285966204674E+03
              0.157512327052207E+03
             -0.290016238208392E+03
             -0.213176683231399E+03
             -0.300848664318876E+03
             -0.130302400791245E+03
             -0.945078979816240E+02
             -0.237903067001104E+03
             -0.234896251596196E+03
              0.282669576982109E+03
              0.225069076109895E+03
             -0.311105687741460E+02
              0.337817911505406E+03
              0.486660057052322E+02
             -0.542993302634485E+03
              0.291632029444479E+03
              0.497368596104006E+02
              0.228922802885687E+03
              0.309086929552908E+02
              0.258388452866435E+02
              0.466264101482623E+02
              0.123660812817862E+03
             -0.226554384207630E+03
             -0.106884884756693E+03
             -0.214373305350438E+03
             -0.177297296216866E+03
              0.739274482447613E+02
             -0.196732552598191E+03
              0.947583322734356E+02
              0.130103514055242E+03
             -0.120641485986957E+03
             -0.770550838935521E+02
              0.515879412496849E+01
              0.337596887962530E+03
              0.510698288822980E+02
              0.324042338785940E+03
              0.116210631571125E+03
             -0.428294948695758E+03
             -0.142026144971133E+03
              0.146061427770497E+03
              0.337140344482617E+03
              0.555330428861009E+02
              0.138577748955849E+03
              0.310191147838105E+03
             -0.179567037548767E+03
             -0.275720760533258E+03
              0.382296903258403E+03
              0.223421121133160E+02
             -0.404049126087895E+03
              0.147644387555562E+03
              0.255711684660711E+03
             -0.653953878091979E+02
             -0.266435842421328E+03
              0.555622269033202E+02
              0.115202551561733E+02
             -0.129451703452539E+03
              0.494432778172786E+02
             -0.430833415167397E+02
              0.601200039507425E+03
              0.175092064915273E+03
             -0.254624534214815E+03
              0.752136884839063E+02
              0.366025858861905E+03
             -0.247537230344566E+03
             -0.644282336170263E+02
             -0.234067705032417E+03
              0.187651444135530E+03
              0.592546202241641E+02
              0.124106353763929E+03
              0.225244509857237E+02
              0.425149221722729E+03
             -0.241866101200980E+03
             -0.190900320670119E+03
             -0.184359933572705E+03
              0.161994471913280E+03
              0.422515455085643E+03
             -0.707112324075649E+02
              0.172842356616513E+03
             -0.245572073354757E+03
              0.471868452827764E+02
             -0.785815699537210E+02
              0.173935186971980E+02
             -0.952566865751202E+02
             -0.775680796745360E+02
             -0.762824786704233E+02
              0.627334353641008E+02
              0.122726595528083E+03
             -0.267769903863748E+03
              0.198340725225795E+03
             -0.319103757883884E+03
              0.240760774931654E+03
             -0.254356066804270E+03
              0.412521362223579E+03
              0.226718385864049E+03
              0.260956952900418E+03
              0.648414230787291E+02
              0.762138707715512E+02
             -0.569950375641524E+03
              0.923098484752562E+02
              0.208222952723418E+02
              0.544156814802263E+02
             -0.930651377909286E+02
              0.440615780729153E+03
             -0.102179845492938E+03
             -0.182158325568411E+03
             -0.426295758418020E+03
             -0.147933049080284E+03
             -0.204569424345620E+03
             -0.177906987303174E+03
             -0.401091864647669E+02
             -0.973488145568558E+02
             -0.123915669057656E+03
             -0.189707625571876E+03
              0.145124272120566E+03
              0.457860890876496E+03
              0.386836341963230E+03
             -0.685846300088651E+02
             -0.464974950408211E+03
             -0.198301038380726E+03
              0.949763449120304E+02
              0.952143602220066E+02
              0.152044767950418E+03
              0.106811971285797E+03
              0.188791970898051E+02
              0.454305086150461E+03
             -0.110396461743677E+03
              0.223162316443409E+03
              0.114973156656924E+03
             -0.154730834999565E+03
             -0.741328969621452E+02
              0.205826267682111E+03
             -0.110085813650533E+03
             -0.675536994160352E+02
             -0.500926568419347E+02
              0.265038014361630E+03
             -0.348662934082061E+03
             -0.279851077791905E+02
             -0.269060564269855E+03
             -0.571641181251715E+03
             -0.156691335978849E+01
             -0.844317481276929E+02
              0.222161785284011E+03
              0.247006328920948E+03
              0.337760702094516E+03
             -0.219668956960242E+03
              0.341562756776595E+03
              0.854329986424789E+02
             -0.126894791312249E+03
              0.455748945715962E+02
             -0.107707345606437E+03
             -0.637257102378626E+02
              0.197320837485626E+03
             -0.163368778315818E+03
              0.438268575030173E+03
             -0.116857263248805E+03
             -0.242321075988818E+03
              0.458411545509080E+03
             -0.248088335918391E+03
             -0.199873673795692E+02
              0.240687321789330E+02
              0.132193458614220E+03
             -0.193593421785763E+03
             -0.147534703184988E+03
              0.235386928690542E+03
             -0.354227219947598E+03
              0.292071143101415E+03
              0.431614228470992E+02
              0.209261775021937E+03
              0.303254034710186E+03
              0.777944048399092E+02
             -0.421551208750254E+03
             -0.182411409577410E+03
             -0.304224033373358E+03
             -0.180946693748326E+03
             -0.481215408224798E+02
              0.653328523951072E+02
             -0.141881495619904E+03
             -0.245411340586406E+01
             -0.422984367206836E+03
              0.236512963740965E+02
             -0.272871540109479E+03
              0.264452823074673E+03
             -0.154972278987395E+03
             -0.373830084345842E+02
              0.199671556292935E+03
              0.395254647605803E+02
              0.185504109877837E+03
             -0.353813965667008E+03
              0.587151760586626E+02
              0.241194375185735E+02
              0.152364170690523E+03
              0.244127402276104E+03
             -0.451003863474500E+02
             -0.277784669049397E+03
             -0.160774583370601E+03
             -0.113271940575041E+03
             -0.332919285184626E+02
              0.259156559070872E+03
              0.168302853569943E+03
             -0.170427923117738E+03
             -0.159816749301016E+03
              0.117386638383796E+03
              0.127844017105138E+03
             -0.345502158673517E+03
              0.805061068134937E+02
              0.247643107392810E+03
             -0.110717679394756E+02
              0.312211740205412E+03
              0.144025609356792E+03
              0.245549308322395E+03
              0.373375535342003E+03
              0.562777960794882E+02
             -0.508646947369559E+03
              0.701693028499346E+02
              0.549895702977074E+03
              0.399797590765983E+03
             -0.275660497055734E+03
              0.248660186844268E+02
              0.357831328958076E+03
              0.310033196423478E+03
              0.136346298969835E+03
             -0.824891342660302E+02
              0.136887957861218E+03
              0.283373389643799E+03
             -0.131036626648014E+03
             -0.843896554023005E+02
              0.191917189179764E+03
             -0.114550504930819E+02
              0.172464171306045E+03
             -0.532804743388235E+02
              0.359361511343323E+03
             -0.137058671175715E+03
              0.825528481814499E+02
             -0.152219513714091E+03
              0.177863675285454E+03
             -0.241242662457107E+02
              0.265060656282348E+03
              0.188998497402808E+02
              0.118727867685765E+03
             -0.168540686608190E+03
             -0.117879157617572E+03
             -0.601471741657767E+02
             -0.547827880772702E+02
              0.288582927975876E+03
              0.142122034645876E+03
              0.350108383131885E+03
              0.323263796697290E+03
              0.906716740472680E+02
              0.162108942080166E+02
              0.344374631711890E+03
              0.193573543963726E+03
              0.396515706542459E+00
              0.335453132504173E+03
             -0.275319896515452E+03
              0.964929626580947E+02
             -0.179508358184615E+03
             -0.485494014317198E+02
              0.463855278891164E+03
             -0.649046457819586E+02
             -0.194125838713298E+02
             -0.504437669877791E+02
              0.381085154309803E+03
             -0.817552115951103E+02
             -0.699331444497761E+01
              0.768722621889713E+03
             -0.227458231829903E+03
             -0.284049104727171E+03
             -0.284259422466574E+03
             -0.181520593383070E+03
              0.165633525416199E+03
             -0.743422432160214E+02
              0.420949305607733E+02
             -0.192725168893749E+02
              0.975007879536699E+02
              0.156442167892882E+03
              0.182373271987759E+03
              0.262456103477913E+03
              0.168149346306533E+03
              0.171307872150314E+03
             -0.317212226270446E+03
             -0.327635622813968E+03
             -0.738274137837942E+02
             -0.292832017095890E+03
              0.464876214985501E+03
              0.391556344439878E+03
              0.184768468449070E+03
              0.509156716572314E+03
             -0.254386942581487E+03
             -0.109588979091593E+03
             -0.158039394831308E+03
              0.440595546667991E+03
 
 BEEF-vdW xc energy contributions
            1 :    -3981.791653112567     
            2 :     3648.210883615025     
            3 :    -3079.835994074700     
            4 :     2428.623301703621     
            5 :    -1837.191441178342     
            6 :     1392.850387680706     
            7 :    -1113.654861427265     
            8 :     961.9625844429738     
            9 :    -872.8363988676438     
           10 :     785.1630425320800     
           11 :    -664.9070611121551     
           12 :     512.4458624993649     
           13 :    -352.8163914818251     
           14 :     216.5341448172376     
           15 :    -122.5514193860508     
           16 :     71.16539467314578     
           17 :    -47.50134128138689     
           18 :     31.19711394353180     
           19 :    -6.731972046785813     
           20 :    -30.11160206871773     
           21 :     72.14523466704850     
           22 :    -106.6173107279774     
           23 :     123.5190910913816     
           24 :    -121.5639488774641     
           25 :     108.6846785235684     
           26 :    -97.32732493036110     
           27 :     97.61885537809849     
           28 :    -112.1631942409404     
           29 :     134.9820534980008     
           30 :    -154.9356316634266     
           31 :    -343.2480750015147     
           32 :    -246.9883569013846     

     Writing all to output data dir ./PbI2.save/
 
     init_run     :     10.05s CPU     11.03s WALL (       1 calls)
     electrons    :    169.94s CPU    175.90s WALL (       1 calls)
     forces       :      7.24s CPU      7.55s WALL (       1 calls)
     stress       :    111.11s CPU    112.28s WALL (       1 calls)

     Called by init_run:
     wfcinit      :      5.68s CPU      6.31s WALL (       1 calls)
     potinit      :      1.32s CPU      1.44s WALL (       1 calls)
     hinit0       :      0.67s CPU      0.71s WALL (       1 calls)

     Called by electrons:
     c_bands      :    159.94s CPU    165.03s WALL (       2 calls)
     sum_band     :      6.30s CPU      6.59s WALL (       2 calls)
     v_of_rho     :      1.65s CPU      1.79s WALL (       2 calls)
     v_h          :      0.02s CPU      0.02s WALL (       2 calls)
     v_xc         :     25.99s CPU     28.26s WALL (      38 calls)
     newd         :      0.58s CPU      0.82s WALL (       2 calls)
     PAW_pot      :      0.56s CPU      0.57s WALL (       2 calls)
     mix_rho      :      0.00s CPU      0.00s WALL (       2 calls)
     vdW_kernel   :      0.25s CPU      0.26s WALL (       1 calls)

     Called by c_bands:
     init_us_2    :      0.17s CPU      0.19s WALL (       4 calls)
     init_us_2:cp :      0.17s CPU      0.19s WALL (       4 calls)
     cegterg      :    158.76s CPU    162.49s WALL (       2 calls)

     Called by sum_band:
     sum_band:wei :      0.00s CPU      0.00s WALL (       2 calls)
     sum_band:loo :      5.54s CPU      5.58s WALL (       2 calls)
     sum_band:buf :      0.00s CPU      0.00s WALL (       2 calls)
     sum_band:ini :      0.14s CPU      0.14s WALL (       2 calls)
     sum_band:cal :      2.41s CPU      2.42s WALL (       2 calls)
     sum_band:bec :      0.04s CPU      0.04s WALL (       2 calls)
     addusdens    :      0.65s CPU      0.89s WALL (       2 calls)
     addusd:skk   :      0.04s CPU      0.04s WALL (       4 calls)
     addusd:dgemm :      0.36s CPU      0.59s WALL (       4 calls)
     addusd:qvan2 :      0.24s CPU      0.24s WALL (       4 calls)

     Called by *egterg:
     cdiaghg      :    108.11s CPU    109.76s WALL (      15 calls)
     cegterg:over :      9.47s CPU      9.76s WALL (      15 calls)
     cegterg:upda :      4.11s CPU      4.24s WALL (      15 calls)
     cegterg:last :      2.56s CPU      2.58s WALL (       2 calls)
     h_psi        :     25.73s CPU     26.10s WALL (      17 calls)
     s_psi        :      5.11s CPU      5.16s WALL (      17 calls)
     g_psi        :      0.03s CPU      0.04s WALL (      15 calls)

     Called by h_psi:
     h_psi:calbec :      5.71s CPU      5.76s WALL (      17 calls)
     vloc_psi     :     14.78s CPU     14.92s WALL (      17 calls)
     add_vuspsi   :      5.11s CPU      5.17s WALL (      17 calls)

     General routines
     calbec       :     14.17s CPU     14.29s WALL (      24 calls)
     fft          :     15.95s CPU     16.22s WALL (    2232 calls)
     ffts         :      0.03s CPU      0.03s WALL (       4 calls)
     fftw         :     16.81s CPU     16.96s WALL (   10026 calls)
     interpolate  :      0.04s CPU      0.04s WALL (       2 calls)
 
     Parallel routines

     PAW routines
     PAW_pot      :      0.56s CPU      0.57s WALL (       2 calls)
 
     PWSCF        :   5m27.61s CPU   5m44.95s WALL

 
   This run was terminated on:   8:32:35   3Mar2024            

=------------------------------------------------------------------------------=
   JOB DONE.
=------------------------------------------------------------------------------=
