
     Program PWSCF v.7.1 starts on 22Mar2024 at  9:18:44 

     This program is part of the open-source Quantum ESPRESSO suite
     for quantum simulation of materials; please cite
         "P. Giannozzi et al., J. Phys.:Condens. Matter 21 395502 (2009);
         "P. Giannozzi et al., J. Phys.:Condens. Matter 29 465901 (2017);
         "P. Giannozzi et al., J. Chem. Phys. 152 154105 (2020);
          URL http://www.quantum-espresso.org", 
     in publications or presentations arising from this work. More details at
     http://www.quantum-espresso.org/quote

     Parallel version (MPI & OpenMP), running on     125 processor cores
     Number of MPI processes:               125
     Threads/MPI process:                     1

     MPI processes distributed on     1 nodes
     2022091 MiB available memory on the printing compute node when the environment starts
 
     Reading input from espresso.pwi
Warning: card &CELL ignored
Warning: card    CELL_DYNAMICS    = 'BFGS' ignored
Warning: card / ignored

     Current dimensions of program PWSCF are:
     Max number of different atomic species (ntypx) = 10
     Max number of k-points (npk) =  40000
     Max angular momentum in pseudopotentials (lmaxx) =  4
     file Pb.pbe-dn-kjpaw_psl.1.0.0.UPF: wavefunction(s)  6S 6P 5D renormalized
     file I.pbe-dn-kjpaw_psl.1.0.0.UPF: wavefunction(s)  5S 5P renormalized

     **************************************************************************
     Initializing libbeef V0.1.2 with the BEEF-vdW functional.
     Citation: Wellendorff et al., PRB 85, 235149 (2012).
     **************************************************************************


     IMPORTANT: XC functional enforced from input :
     Exchange-correlation= BEEF-VDW
                           (   1   4  43  14   2   0   0)
     Any further DFT definition will be discarded
     Please, verify this is what you really want

 
     R & G space division:  proc/nbgrp/npool/nimage =     125
     Subspace diagonalization in iterative solution of the eigenvalue problem:
     a serial algorithm will be used

 
     Parallelization info
     --------------------
     sticks:   dense  smooth     PW     G-vecs:    dense   smooth      PW
     Min         244     195     48                40630    29071    3626
     Max         245     196     49                40639    29082    3637
     Sum       30589   24439   6121              5079105  3634441  454335
 
     Using Slab Decomposition
 


     bravais-lattice index     =            4
     lattice parameter (alat)  =      35.6120  a.u.
     unit-cell volume          =   45937.3577 (a.u.)^3
     number of atoms/cell      =          143
     number of atomic types    =            2
     number of electrons       =      2288.00
     number of Kohn-Sham states=         1373
     kinetic-energy cutoff     =      70.0000  Ry
     charge density cutoff     =     350.0000  Ry
     scf convergence threshold =      1.0E-07
     mixing beta               =       0.7000
     number of iterations used =            8  plain     mixing
     energy convergence thresh.=      1.0E-04
     force convergence thresh. =      1.0E-03
     Exchange-correlation= BEEF-VDW
                           (   1   4  43  14   2   0   0)
     nstep                     =           50


     celldm(1)=  35.612033  celldm(2)=   0.000000  celldm(3)=   1.174479
     celldm(4)=   0.000000  celldm(5)=   0.000000  celldm(6)=   0.000000

     crystal axes: (cart. coord. in units of alat)
               a(1) = (   1.000000   0.000000   0.000000 )  
               a(2) = (  -0.500000   0.866025   0.000000 )  
               a(3) = (   0.000000   0.000000   1.174479 )  

     reciprocal axes: (cart. coord. in units 2 pi/alat)
               b(1) = (  1.000000  0.577350 -0.000000 )  
               b(2) = (  0.000000  1.154701  0.000000 )  
               b(3) = (  0.000000 -0.000000  0.851442 )  


     PseudoPot. # 1 for Pb read from file:
     //group///packages/espresso/pseudo/psl_1.0.0/pslibrary.1.0.0/pbe/PSEUDOPOTENTIALS/Pb.pbe-dn-kjpaw_psl.1.0.0.UPF
     MD5 check sum: 39ab5b8a6bbd56b7735ad9f188aac93a
     Pseudo is Projector augmented-wave + core cor, Zval = 14.0
     Generated using 'atomic' code by A. Dal Corso  v.7.1
     Shape of augmentation charge: PSQ
     Using radial grid of 1281 points,  6 beta functions with: 
                l(1) =   0
                l(2) =   0
                l(3) =   1
                l(4) =   1
                l(5) =   2
                l(6) =   2
     Q(r) pseudized with 0 coefficients 


     PseudoPot. # 2 for I  read from file:
     //group///packages/espresso/pseudo/psl_1.0.0/pslibrary.1.0.0/pbe/PSEUDOPOTENTIALS/I.pbe-dn-kjpaw_psl.1.0.0.UPF
     MD5 check sum: bfa8781bc1224d19af3f3980e3fab11e
     Pseudo is Projector augmented-wave + core cor, Zval = 17.0
     Generated using 'atomic' code by A. Dal Corso  v.7.1
     Shape of augmentation charge: PSQ
     Using radial grid of 1247 points,  6 beta functions with: 
                l(1) =   0
                l(2) =   0
                l(3) =   1
                l(4) =   1
                l(5) =   2
                l(6) =   2
     Q(r) pseudized with 0 coefficients 


     atomic species   valence    mass     pseudopotential
        Pb            14.00   207.20000     Pb( 1.00)
        I             17.00   126.90447     I ( 1.00)

     No symmetry found


                                    s                        frac. trans.

      isym =  1     identity                                     

 cryst.   s( 1) = (     1          0          0      )
                  (     0          1          0      )
                  (     0          0          1      )

 cart.    s( 1) = (  1.0000000  0.0000000  0.0000000 )
                  (  0.0000000  1.0000000  0.0000000 )
                  (  0.0000000  0.0000000  1.0000000 )


     point group C_1 (1)    
     there are  1 classes
     the character table:

       E    
A      1.00

     the symmetry operations in each class and the name of the first element:

     E        1
          identity                                               

   Cartesian axes

     site n.     atom                  positions (alat units)
         1           Pb  tau(   1) = (   0.1250136   0.2164827   1.1744753  )
         2           Pb  tau(   2) = (   0.1250034   0.2164918   0.3914896  )
         3           Pb  tau(   3) = (   0.1250085   0.2164873   0.7829825  )
         4           Pb  tau(   4) = (   0.0000128   0.4329881   1.1744712  )
         5           Pb  tau(   5) = (   0.0000026   0.4329971   0.3914855  )
         6           Pb  tau(   6) = (   0.0000077   0.4329926   0.7829784  )
         7           Pb  tau(   7) = (  -0.1249881   0.6494934   1.1744671  )
         8           Pb  tau(   8) = (  -0.1249983   0.6495025   0.3914814  )
         9           Pb  tau(   9) = (  -0.1249932   0.6494980   0.7829742  )
        10           Pb  tau(  10) = (  -0.2499889   0.8659988   1.1744630  )
        11           Pb  tau(  11) = (  -0.2499991   0.8660078   0.3914773  )
        12           Pb  tau(  12) = (  -0.2499940   0.8660033   0.7829701  )
        13           Pb  tau(  13) = (   0.3750136   0.2164818   1.1744786  )
        14           Pb  tau(  14) = (   0.3750034   0.2164908   0.3914929  )
        15           Pb  tau(  15) = (   0.3750085   0.2164863   0.7829857  )
        16           Pb  tau(  16) = (   0.2500128   0.4329871   1.1744745  )
        17           Pb  tau(  17) = (   0.2500026   0.4329962   0.3914888  )
        18           Pb  tau(  18) = (   0.2500077   0.4329916   0.7829816  )
        19           Pb  tau(  19) = (   0.1250119   0.6494925   1.1744703  )
        20           Pb  tau(  20) = (   0.1250017   0.6495015   0.3914847  )
        21           Pb  tau(  21) = (   0.1250068   0.6494970   0.7829775  )
        22           Pb  tau(  22) = (   0.0000111   0.8659978   1.1744662  )
        23           Pb  tau(  23) = (   0.0000009   0.8660069   0.3914805  )
        24           Pb  tau(  24) = (   0.0000060   0.8660024   0.7829734  )
        25           Pb  tau(  25) = (   0.6250136   0.2164808   1.1744818  )
        26           Pb  tau(  26) = (   0.6250034   0.2164898   0.3914962  )
        27           Pb  tau(  27) = (   0.6250085   0.2164853   0.7829890  )
        28           Pb  tau(  28) = (   0.5000128   0.4329862   1.1744777  )
        29           Pb  tau(  29) = (   0.5000026   0.4329952   0.3914920  )
        30           Pb  tau(  30) = (   0.5000077   0.4329907   0.7829849  )
        31           Pb  tau(  31) = (   0.3750119   0.6494915   1.1744736  )
        32           Pb  tau(  32) = (   0.3750017   0.6495006   0.3914879  )
        33           Pb  tau(  33) = (   0.3750068   0.6494960   0.7829808  )
        34           Pb  tau(  34) = (   0.2500111   0.8659969   1.1744695  )
        35           Pb  tau(  35) = (   0.2500009   0.8660059   0.3914838  )
        36           Pb  tau(  36) = (   0.2500060   0.8660014   0.7829766  )
        37           Pb  tau(  37) = (   0.8750136   0.2164798   1.1744851  )
        38           Pb  tau(  38) = (   0.8750034   0.2164889   0.3914994  )
        39           Pb  tau(  39) = (   0.8750085   0.2164844   0.7829923  )
        40           Pb  tau(  40) = (   0.7500128   0.4329852   1.1744810  )
        41           Pb  tau(  41) = (   0.7500026   0.4329942   0.3914953  )
        42           Pb  tau(  42) = (   0.7500077   0.4329897   0.7829881  )
        43           Pb  tau(  43) = (   0.6250119   0.6494906   1.1744769  )
        44           Pb  tau(  44) = (   0.6250017   0.6494996   0.3914912  )
        45           Pb  tau(  45) = (   0.6250068   0.6494951   0.7829840  )
        46           Pb  tau(  46) = (   0.5000111   0.8659959   1.1744727  )
        47           Pb  tau(  47) = (   0.5000009   0.8660050   0.3914870  )
        48           Pb  tau(  48) = (   0.5000060   0.8660004   0.7829799  )
        49           I   tau(  49) = (   0.1250105   0.0721505   0.6824253  )
        50           I   tau(  50) = (   0.1250156   0.0721459   1.0739182  )
        51           I   tau(  51) = (   0.0000045   0.2886603   0.2909283  )
        52           I   tau(  52) = (   0.0000096   0.2886558   0.6824212  )
        53           I   tau(  53) = (   0.0000147   0.2886513   1.0739140  )
        54           I   tau(  54) = (  -0.1249963   0.5051657   0.2909242  )
        55           I   tau(  55) = (  -0.1249912   0.5051612   0.6824171  )
        56           I   tau(  56) = (  -0.1249861   0.5051566   1.0739099  )
        57           I   tau(  57) = (  -0.2499971   0.7216710   0.2909201  )
        58           I   tau(  58) = (  -0.2499920   0.7216665   0.6824129  )
        59           I   tau(  59) = (  -0.2499869   0.7216620   1.0739058  )
        60           I   tau(  60) = (   0.3750054   0.0721540   0.2909357  )
        61           I   tau(  61) = (   0.3750105   0.0721495   0.6824286  )
        62           I   tau(  62) = (   0.3750156   0.0721450   1.0739214  )
        63           I   tau(  63) = (   0.2500045   0.2886594   0.2909316  )
        64           I   tau(  64) = (   0.2500096   0.2886548   0.6824244  )
        65           I   tau(  65) = (   0.2500147   0.2886503   1.0739173  )
        66           I   tau(  66) = (   0.1250037   0.5051647   0.2909275  )
        67           I   tau(  67) = (   0.1250088   0.5051602   0.6824203  )
        68           I   tau(  68) = (   0.1250139   0.5051557   1.0739132  )
        69           I   tau(  69) = (   0.0000029   0.7216701   0.2909233  )
        70           I   tau(  70) = (   0.0000080   0.7216656   0.6824162  )
        71           I   tau(  71) = (   0.0000131   0.7216610   1.0739090  )
        72           I   tau(  72) = (   0.6250054   0.0721530   0.2909390  )
        73           I   tau(  73) = (   0.6250105   0.0721485   0.6824318  )
        74           I   tau(  74) = (   0.6250156   0.0721440   1.0739247  )
        75           I   tau(  75) = (   0.5000045   0.2886584   0.2909348  )
        76           I   tau(  76) = (   0.5000096   0.2886539   0.6824277  )
        77           I   tau(  77) = (   0.5000147   0.2886494   1.0739205  )
        78           I   tau(  78) = (   0.3750037   0.5051638   0.2909307  )
        79           I   tau(  79) = (   0.3750088   0.5051592   0.6824236  )
        80           I   tau(  80) = (   0.3750139   0.5051547   1.0739164  )
        81           I   tau(  81) = (   0.2500029   0.7216691   0.2909266  )
        82           I   tau(  82) = (   0.2500080   0.7216646   0.6824194  )
        83           I   tau(  83) = (   0.2500131   0.7216601   1.0739123  )
        84           I   tau(  84) = (   0.8750054   0.0721521   0.2909422  )
        85           I   tau(  85) = (   0.8750105   0.0721476   0.6824351  )
        86           I   tau(  86) = (   0.8750156   0.0721430   1.0739279  )
        87           I   tau(  87) = (   0.7500045   0.2886574   0.2909381  )
        88           I   tau(  88) = (   0.7500096   0.2886529   0.6824310  )
        89           I   tau(  89) = (   0.7500147   0.2886484   1.0739238  )
        90           I   tau(  90) = (   0.6250037   0.5051628   0.2909340  )
        91           I   tau(  91) = (   0.6250088   0.5051583   0.6824268  )
        92           I   tau(  92) = (   0.6250139   0.5051538   1.0739197  )
        93           I   tau(  93) = (   0.5000029   0.7216681   0.2909299  )
        94           I   tau(  94) = (   0.5000080   0.7216636   0.6824227  )
        95           I   tau(  95) = (   0.5000131   0.7216591   1.0739156  )
        96           I   tau(  96) = (  -0.0000017   0.1443297   0.1005555  )
        97           I   tau(  97) = (   0.0000034   0.1443252   0.4920483  )
        98           I   tau(  98) = (   0.0000085   0.1443207   0.8835412  )
        99           I   tau(  99) = (  -0.1250025   0.3608351   0.1005514  )
       100           I   tau( 100) = (  -0.1249974   0.3608306   0.4920442  )
       101           I   tau( 101) = (  -0.1249923   0.3608260   0.8835371  )
       102           I   tau( 102) = (  -0.2500034   0.5773404   0.1005472  )
       103           I   tau( 103) = (  -0.2499983   0.5773359   0.4920401  )
       104           I   tau( 104) = (  -0.2499932   0.5773314   0.8835329  )
       105           I   tau( 105) = (  -0.3750042   0.7938458   0.1005431  )
       106           I   tau( 106) = (  -0.3749991   0.7938413   0.4920360  )
       107           I   tau( 107) = (  -0.3749940   0.7938368   0.8835288  )
       108           I   tau( 108) = (   0.2499983   0.1443288   0.1005587  )
       109           I   tau( 109) = (   0.2500034   0.1443242   0.4920516  )
       110           I   tau( 110) = (   0.2500085   0.1443197   0.8835444  )
       111           I   tau( 111) = (   0.1249975   0.3608341   0.1005546  )
       112           I   tau( 112) = (   0.1250026   0.3608296   0.4920475  )
       113           I   tau( 113) = (   0.1250077   0.3608251   0.8835403  )
       114           I   tau( 114) = (  -0.0000034   0.5773395   0.1005505  )
       115           I   tau( 115) = (   0.0000017   0.5773350   0.4920433  )
       116           I   tau( 116) = (   0.0000068   0.5773304   0.8835362  )
       117           I   tau( 117) = (  -0.1250042   0.7938448   0.1005464  )
       118           I   tau( 118) = (  -0.1249991   0.7938403   0.4920392  )
       119           I   tau( 119) = (  -0.1249940   0.7938358   0.8835321  )
       120           I   tau( 120) = (   0.4999983   0.1443278   0.1005620  )
       121           I   tau( 121) = (   0.5000034   0.1443233   0.4920548  )
       122           I   tau( 122) = (   0.5000085   0.1443188   0.8835477  )
       123           I   tau( 123) = (   0.3749975   0.3608332   0.1005579  )
       124           I   tau( 124) = (   0.3750026   0.3608286   0.4920507  )
       125           I   tau( 125) = (   0.3750077   0.3608241   0.8835436  )
       126           I   tau( 126) = (   0.2499966   0.5773385   0.1005537  )
       127           I   tau( 127) = (   0.2500017   0.5773340   0.4920466  )
       128           I   tau( 128) = (   0.2500068   0.5773295   0.8835394  )
       129           I   tau( 129) = (   0.1249958   0.7938439   0.1005496  )
       130           I   tau( 130) = (   0.1250009   0.7938394   0.4920425  )
       131           I   tau( 131) = (   0.1250060   0.7938348   0.8835353  )
       132           I   tau( 132) = (   0.7499983   0.1443268   0.1005653  )
       133           I   tau( 133) = (   0.7500034   0.1443223   0.4920581  )
       134           I   tau( 134) = (   0.7500085   0.1443178   0.8835509  )
       135           I   tau( 135) = (   0.6249975   0.3608322   0.1005611  )
       136           I   tau( 136) = (   0.6250026   0.3608277   0.4920540  )
       137           I   tau( 137) = (   0.6250077   0.3608232   0.8835468  )
       138           I   tau( 138) = (   0.4999966   0.5773376   0.1005570  )
       139           I   tau( 139) = (   0.5000017   0.5773330   0.4920499  )
       140           I   tau( 140) = (   0.5000068   0.5773285   0.8835427  )
       141           I   tau( 141) = (   0.3749958   0.7938429   0.1005529  )
       142           I   tau( 142) = (   0.3750009   0.7938384   0.4920457  )
       143           I   tau( 143) = (   0.3750060   0.7938339   0.8835386  )

   Crystallographic axes

     site n.     atom                  positions (cryst. coord.)
         1           Pb  tau(   1) = (  0.2500000  0.2499727  0.9999973  )
         2           Pb  tau(   2) = (  0.2499950  0.2499832  0.3333306  )
         3           Pb  tau(   3) = (  0.2499975  0.2499780  0.6666639  )
         4           Pb  tau(   4) = (  0.2499986  0.4999716  0.9999938  )
         5           Pb  tau(   5) = (  0.2499936  0.4999820  0.3333271  )
         6           Pb  tau(   6) = (  0.2499961  0.4999768  0.6666604  )
         7           Pb  tau(   7) = (  0.2499972  0.7499704  0.9999902  )
         8           Pb  tau(   8) = (  0.2499922  0.7499809  0.3333236  )
         9           Pb  tau(   9) = (  0.2499947  0.7499757  0.6666569  )
        10           Pb  tau(  10) = (  0.2499957  0.9999693  0.9999867  )
        11           Pb  tau(  11) = (  0.2499908  0.9999797  0.3333201  )
        12           Pb  tau(  12) = (  0.2499932  0.9999745  0.6666534  )
        13           Pb  tau(  13) = (  0.4999994  0.2499716  1.0000000  )
        14           Pb  tau(  14) = (  0.4999944  0.2499821  0.3333334  )
        15           Pb  tau(  15) = (  0.4999969  0.2499768  0.6666667  )
        16           Pb  tau(  16) = (  0.4999980  0.4999705  0.9999965  )
        17           Pb  tau(  17) = (  0.4999930  0.4999809  0.3333299  )
        18           Pb  tau(  18) = (  0.4999955  0.4999757  0.6666632  )
        19           Pb  tau(  19) = (  0.4999966  0.7499693  0.9999930  )
        20           Pb  tau(  20) = (  0.4999916  0.7499798  0.3333264  )
        21           Pb  tau(  21) = (  0.4999941  0.7499745  0.6666597  )
        22           Pb  tau(  22) = (  0.4999952  0.9999682  0.9999895  )
        23           Pb  tau(  23) = (  0.4999902  0.9999786  0.3333228  )
        24           Pb  tau(  24) = (  0.4999927  0.9999734  0.6666562  )
        25           Pb  tau(  25) = (  0.7499989  0.2499705  1.0000028  )
        26           Pb  tau(  26) = (  0.7499939  0.2499809  0.3333362  )
        27           Pb  tau(  27) = (  0.7499964  0.2499757  0.6666695  )
        28           Pb  tau(  28) = (  0.7499975  0.4999694  0.9999993  )
        29           Pb  tau(  29) = (  0.7499925  0.4999798  0.3333326  )
        30           Pb  tau(  30) = (  0.7499950  0.4999746  0.6666660  )
        31           Pb  tau(  31) = (  0.7499960  0.7499682  0.9999958  )
        32           Pb  tau(  32) = (  0.7499910  0.7499786  0.3333291  )
        33           Pb  tau(  33) = (  0.7499935  0.7499734  0.6666625  )
        34           Pb  tau(  34) = (  0.7499946  0.9999671  0.9999923  )
        35           Pb  tau(  35) = (  0.7499896  0.9999775  0.3333256  )
        36           Pb  tau(  36) = (  0.7499921  0.9999723  0.6666590  )
        37           Pb  tau(  37) = (  0.9999983  0.2499694  1.0000056  )
        38           Pb  tau(  38) = (  0.9999933  0.2499798  0.3333389  )
        39           Pb  tau(  39) = (  0.9999958  0.2499746  0.6666723  )
        40           Pb  tau(  40) = (  0.9999969  0.4999682  1.0000021  )
        41           Pb  tau(  41) = (  0.9999919  0.4999787  0.3333354  )
        42           Pb  tau(  42) = (  0.9999944  0.4999735  0.6666687  )
        43           Pb  tau(  43) = (  0.9999955  0.7499671  0.9999986  )
        44           Pb  tau(  44) = (  0.9999905  0.7499775  0.3333319  )
        45           Pb  tau(  45) = (  0.9999930  0.7499723  0.6666652  )
        46           Pb  tau(  46) = (  0.9999941  0.9999659  0.9999951  )
        47           Pb  tau(  47) = (  0.9999891  0.9999764  0.3333284  )
        48           Pb  tau(  48) = (  0.9999916  0.9999712  0.6666617  )
        49           I   tau(  49) = (  0.1666666  0.0833122  0.5810454  )
        50           I   tau(  50) = (  0.1666691  0.0833070  0.9143787  )
        51           I   tau(  51) = (  0.1666626  0.3333162  0.2477085  )
        52           I   tau(  52) = (  0.1666651  0.3333110  0.5810418  )
        53           I   tau(  53) = (  0.1666676  0.3333058  0.9143752  )
        54           I   tau(  54) = (  0.1666612  0.5833151  0.2477050  )
        55           I   tau(  55) = (  0.1666637  0.5833099  0.5810383  )
        56           I   tau(  56) = (  0.1666662  0.5833047  0.9143717  )
        57           I   tau(  57) = (  0.1666598  0.8333139  0.2477015  )
        58           I   tau(  58) = (  0.1666623  0.8333087  0.5810348  )
        59           I   tau(  59) = (  0.1666648  0.8333035  0.9143682  )
        60           I   tau(  60) = (  0.4166635  0.0833163  0.2477148  )
        61           I   tau(  61) = (  0.4166660  0.0833111  0.5810481  )
        62           I   tau(  62) = (  0.4166685  0.0833058  0.9143815  )
        63           I   tau(  63) = (  0.4166621  0.3333151  0.2477113  )
        64           I   tau(  64) = (  0.4166646  0.3333099  0.5810446  )
        65           I   tau(  65) = (  0.4166671  0.3333047  0.9143780  )
        66           I   tau(  66) = (  0.4166607  0.5833140  0.2477078  )
        67           I   tau(  67) = (  0.4166632  0.5833088  0.5810411  )
        68           I   tau(  68) = (  0.4166657  0.5833035  0.9143744  )
        69           I   tau(  69) = (  0.4166593  0.8333128  0.2477043  )
        70           I   tau(  70) = (  0.4166618  0.8333076  0.5810376  )
        71           I   tau(  71) = (  0.4166643  0.8333024  0.9143709  )
        72           I   tau(  72) = (  0.6666629  0.0833152  0.2477176  )
        73           I   tau(  73) = (  0.6666654  0.0833099  0.5810509  )
        74           I   tau(  74) = (  0.6666679  0.0833047  0.9143842  )
        75           I   tau(  75) = (  0.6666615  0.3333140  0.2477141  )
        76           I   tau(  76) = (  0.6666640  0.3333088  0.5810474  )
        77           I   tau(  77) = (  0.6666665  0.3333036  0.9143807  )
        78           I   tau(  78) = (  0.6666601  0.5833129  0.2477106  )
        79           I   tau(  79) = (  0.6666626  0.5833076  0.5810439  )
        80           I   tau(  80) = (  0.6666651  0.5833024  0.9143772  )
        81           I   tau(  81) = (  0.6666587  0.8333117  0.2477070  )
        82           I   tau(  82) = (  0.6666612  0.8333065  0.5810404  )
        83           I   tau(  83) = (  0.6666637  0.8333013  0.9143737  )
        84           I   tau(  84) = (  0.9166624  0.0833141  0.2477203  )
        85           I   tau(  85) = (  0.9166649  0.0833088  0.5810537  )
        86           I   tau(  86) = (  0.9166674  0.0833036  0.9143870  )
        87           I   tau(  87) = (  0.9166610  0.3333129  0.2477168  )
        88           I   tau(  88) = (  0.9166635  0.3333077  0.5810502  )
        89           I   tau(  89) = (  0.9166660  0.3333025  0.9143835  )
        90           I   tau(  90) = (  0.9166596  0.5833118  0.2477133  )
        91           I   tau(  91) = (  0.9166621  0.5833065  0.5810467  )
        92           I   tau(  92) = (  0.9166646  0.5833013  0.9143800  )
        93           I   tau(  93) = (  0.9166582  0.8333106  0.2477098  )
        94           I   tau(  94) = (  0.9166607  0.8333054  0.5810431  )
        95           I   tau(  95) = (  0.9166632  0.8333002  0.9143765  )
        96           I   tau(  96) = (  0.0833271  0.1666576  0.0856171  )
        97           I   tau(  97) = (  0.0833296  0.1666524  0.4189505  )
        98           I   tau(  98) = (  0.0833321  0.1666472  0.7522838  )
        99           I   tau(  99) = (  0.0833257  0.4166565  0.0856136  )
       100           I   tau( 100) = (  0.0833282  0.4166513  0.4189470  )
       101           I   tau( 101) = (  0.0833307  0.4166460  0.7522803  )
       102           I   tau( 102) = (  0.0833243  0.6666553  0.0856101  )
       103           I   tau( 103) = (  0.0833268  0.6666501  0.4189434  )
       104           I   tau( 104) = (  0.0833293  0.6666449  0.7522768  )
       105           I   tau( 105) = (  0.0833229  0.9166542  0.0856066  )
       106           I   tau( 106) = (  0.0833254  0.9166489  0.4189399  )
       107           I   tau( 107) = (  0.0833279  0.9166437  0.7522733  )
       108           I   tau( 108) = (  0.3333265  0.1666565  0.0856199  )
       109           I   tau( 109) = (  0.3333290  0.1666513  0.4189532  )
       110           I   tau( 110) = (  0.3333315  0.1666461  0.7522866  )
       111           I   tau( 111) = (  0.3333251  0.4166554  0.0856164  )
       112           I   tau( 112) = (  0.3333276  0.4166501  0.4189497  )
       113           I   tau( 113) = (  0.3333301  0.4166449  0.7522831  )
       114           I   tau( 114) = (  0.3333237  0.6666542  0.0856129  )
       115           I   tau( 115) = (  0.3333262  0.6666490  0.4189462  )
       116           I   tau( 116) = (  0.3333287  0.6666438  0.7522795  )
       117           I   tau( 117) = (  0.3333223  0.9166531  0.0856094  )
       118           I   tau( 118) = (  0.3333248  0.9166478  0.4189427  )
       119           I   tau( 119) = (  0.3333273  0.9166426  0.7522760  )
       120           I   tau( 120) = (  0.5833260  0.1666554  0.0856227  )
       121           I   tau( 121) = (  0.5833285  0.1666502  0.4189560  )
       122           I   tau( 122) = (  0.5833310  0.1666450  0.7522893  )
       123           I   tau( 123) = (  0.5833246  0.4166542  0.0856192  )
       124           I   tau( 124) = (  0.5833271  0.4166490  0.4189525  )
       125           I   tau( 125) = (  0.5833296  0.4166438  0.7522858  )
       126           I   tau( 126) = (  0.5833232  0.6666531  0.0856157  )
       127           I   tau( 127) = (  0.5833257  0.6666479  0.4189490  )
       128           I   tau( 128) = (  0.5833282  0.6666427  0.7522823  )
       129           I   tau( 129) = (  0.5833218  0.9166519  0.0856121  )
       130           I   tau( 130) = (  0.5833243  0.9166467  0.4189455  )
       131           I   tau( 131) = (  0.5833268  0.9166415  0.7522788  )
       132           I   tau( 132) = (  0.8333254  0.1666543  0.0856254  )
       133           I   tau( 133) = (  0.8333279  0.1666491  0.4189588  )
       134           I   tau( 134) = (  0.8333304  0.1666438  0.7522921  )
       135           I   tau( 135) = (  0.8333240  0.4166531  0.0856219  )
       136           I   tau( 136) = (  0.8333265  0.4166479  0.4189553  )
       137           I   tau( 137) = (  0.8333290  0.4166427  0.7522886  )
       138           I   tau( 138) = (  0.8333226  0.6666520  0.0856184  )
       139           I   tau( 139) = (  0.8333251  0.6666468  0.4189518  )
       140           I   tau( 140) = (  0.8333276  0.6666415  0.7522851  )
       141           I   tau( 141) = (  0.8333212  0.9166508  0.0856149  )
       142           I   tau( 142) = (  0.8333237  0.9166456  0.4189482  )
       143           I   tau( 143) = (  0.8333262  0.9166404  0.7522816  )

     number of k points=     1  Gaussian smearing, width (Ry)=  0.0100
                       cart. coord. in units 2pi/alat
        k(    1) = (   0.0000000   0.0000000   0.0000000), wk =   2.0000000

                       cryst. coord.
        k(    1) = (   0.0000000   0.0000000   0.0000000), wk =   2.0000000

     Dense  grid:  5079105 G-vectors     FFT dimensions: ( 216, 216, 250)

     Smooth grid:  3634441 G-vectors     FFT dimensions: ( 192, 192, 225)

     Dynamical RAM for                 wfc:      76.13 MB

     Dynamical RAM for     wfc (w. buffer):      76.13 MB

     Dynamical RAM for           str. fact:       1.24 MB

     Dynamical RAM for           local pot:       0.00 MB

     Dynamical RAM for          nlocal pot:     142.73 MB

     Dynamical RAM for                qrad:       3.00 MB

     Dynamical RAM for          rho,v,vnew:       4.00 MB

     Dynamical RAM for               rhoin:       1.33 MB

     Dynamical RAM for            rho*nmix:       9.92 MB

     Dynamical RAM for           G-vectors:       2.55 MB

     Dynamical RAM for          h,s,v(r/c):    1380.71 MB

     Dynamical RAM for          <psi|beta>:      53.93 MB

     Dynamical RAM for                 psi:     304.53 MB

     Dynamical RAM for                hpsi:     304.53 MB

     Dynamical RAM for                spsi:     304.53 MB

     Dynamical RAM for      wfcinit/wfcrot:     195.42 MB

     Dynamical RAM for           addusdens:     174.22 MB

     Dynamical RAM for          addusforce:     291.47 MB

     Dynamical RAM for         addusstress:     124.62 MB

     Estimated static dynamical RAM per process >     236.40 MB

     Estimated max dynamical RAM per process >       2.53 GB

     Estimated total dynamical RAM >     316.72 GB

     Atomic positions and unit cell read from directory:
     ./PbI2.save/
     Atomic positions from file used, from input discarded
 

     Check: negative core charge=   -0.000001

     The initial density is read from file :
     ./PbI2.save/charge-density



     %%%%%%%%%%%%%%%%%%%%%%%%%%%%%%%%%%%%%%%%%%%%%%%%%%%%%%%%%%%%%%%%%%%%%%%%
     %                                                                      %
     % You are using vdW-DF, which was implemented by the Thonhauser group. %
     % Please cite the following two papers that made this development      %
     % possible and the two reviews that describe the various versions:     %
     %                                                                      %
     %   T. Thonhauser et al., PRL 115, 136402 (2015).                      %
     %   T. Thonhauser et al., PRB 76, 125112 (2007).                       %
     %   K. Berland et al., Rep. Prog. Phys. 78, 066501 (2015).             %
     %   D.C. Langreth et al., J. Phys.: Condens. Matter 21, 084203 (2009). %
     %                                                                      %
     % If you are calculating stress with vdW-DF, please also cite:         %
     %                                                                      %
     %   R. Sabatini et al., J. Phys.: Condens. Matter 24, 424209 (2012).   %
     %                                                                      %
     %%%%%%%%%%%%%%%%%%%%%%%%%%%%%%%%%%%%%%%%%%%%%%%%%%%%%%%%%%%%%%%%%%%%%%%%

     %%%%%%%%%%%%%%%%%%%%%%%%%%%%%%%%%%%%%%%%%%%%%%%%%%%%%%%%%%%%%%%%%%%%%%%%
     %                                                                      %
     %  vdW-DF NEWS:                                                        %
     %                                                                      %
     %  * vdW-DF3 is now available. DOI: 10.1021/acs.jctc.0c00471           %
     %    use with input_dft = 'vdW-DF3-opt1' or 'vdW-DF3-opt2'             %
     %                                                                      %
     %  * Unscreened and range-separated vdW-DF hybrid functionals          %
     %    DOI: 10.1063/1.4986522 and 10.1088/1361-648X/ac2ad2               %
     %    use with input_dft = 'vdW-DF-cx0' (etc) and 'vdW-DF-ahcx'         %
     %                                                                      %
     %%%%%%%%%%%%%%%%%%%%%%%%%%%%%%%%%%%%%%%%%%%%%%%%%%%%%%%%%%%%%%%%%%%%%%%%


     Carrying out vdW-DF run using the following parameters:
     Nqs    =  20  Npoints =  1024  r_max =  100.000
     q_mesh =  0.00001000  0.04494208  0.09755937  0.15916263
               0.23128650  0.31572767  0.41458969  0.53033537
               0.66584808  0.82450364  1.01025438  1.22772762
               1.48234092  1.78043706  2.12944203  2.53805004
               3.01644009  3.57652955  4.23227104  5.00000000


     -----------------------------------------------
     Non-local corr. energy    =      68.47805278 Ry
     -----------------------------------------------

     Cannot read wfcs: file not found
     Starting wfcs are 1287 randomized atomic wfcs +   86 random wfcs
     Checking if some PAW data can be deallocated... 
       PAW data deallocated on   95 nodes for type:  1
       PAW data deallocated on   30 nodes for type:  2

     total cpu time spent up to now is       37.1 secs

     Self-consistent Calculation

     iteration #  1     ecut=    70.00 Ry     beta= 0.70
     Davidson diagonalization with overlap

---- Real-time Memory Report at c_bands before calling an iterative solver
           813 MiB given to the printing process from OS
             0 MiB allocation reported by mallinfo(arena+hblkhd)
       1987354 MiB available memory on the node where the printing process lives
------------------
     ethr =  1.00E-05,  avg # of iterations = 25.0

     Threshold (ethr) on eigenvalues was too large:
     Diagonalizing with lowered threshold

     Davidson diagonalization with overlap

---- Real-time Memory Report at c_bands before calling an iterative solver
          2494 MiB given to the printing process from OS
             0 MiB allocation reported by mallinfo(arena+hblkhd)
       1967476 MiB available memory on the node where the printing process lives
------------------
     c_bands:  4 eigenvalues not converged
     ethr =  1.12E-08,  avg # of iterations = 20.0


     -----------------------------------------------
     Non-local corr. energy    =      68.47819125 Ry
     -----------------------------------------------


     total cpu time spent up to now is     1683.9 secs

     total energy              =  -96570.25954525 Ry
     estimated scf accuracy    <       0.00000013 Ry

     iteration #  2     ecut=    70.00 Ry     beta= 0.70
     Davidson diagonalization with overlap

---- Real-time Memory Report at c_bands before calling an iterative solver
          2571 MiB given to the printing process from OS
             0 MiB allocation reported by mallinfo(arena+hblkhd)
       1963698 MiB available memory on the node where the printing process lives
------------------
     c_bands:  5 eigenvalues not converged
     ethr =  5.51E-12,  avg # of iterations = 40.0


     -----------------------------------------------
     Non-local corr. energy    =      68.47815493 Ry
     -----------------------------------------------


     total cpu time spent up to now is     2975.2 secs

     total energy              =  -96570.25954578 Ry
     estimated scf accuracy    <       0.00000079 Ry

     iteration #  3     ecut=    70.00 Ry     beta= 0.70
     Davidson diagonalization with overlap

---- Real-time Memory Report at c_bands before calling an iterative solver
          2662 MiB given to the printing process from OS
             0 MiB allocation reported by mallinfo(arena+hblkhd)
       1963211 MiB available memory on the node where the printing process lives
------------------
     c_bands:  1 eigenvalues not converged
     ethr =  5.51E-12,  avg # of iterations = 20.0


     -----------------------------------------------
     Non-local corr. energy    =      68.47801863 Ry
     -----------------------------------------------


     total cpu time spent up to now is     4004.6 secs

     End of self-consistent calculation

          k = 0.0000 0.0000 0.0000 (454335 PWs)   bands (ev):

   -40.9465 -40.9465 -40.9448 -40.9448 -40.9443 -40.9403 -40.9403 -40.9403
   -40.9402 -40.9402 -40.9402 -40.9402 -40.9401 -40.9401 -40.9401 -40.9401
   -40.9401 -40.9401 -40.9401 -40.9401 -40.9400 -40.9400 -40.9400 -40.9399
   -40.9399 -40.9399 -40.9397 -40.9397 -40.9397 -40.9397 -40.9397 -40.9397
   -40.9395 -40.9395 -40.9395 -40.9389 -40.9389 -40.9389 -40.9389 -40.9389
   -40.9389 -40.9389 -40.9389 -40.9389 -40.9388 -40.9388 -40.9388 -40.9386
   -40.9386 -40.9386 -40.9386 -40.9386 -40.9386 -40.9385 -40.9385 -40.9385
   -40.9385 -40.9384 -40.9384 -40.9383 -40.9383 -40.9383 -40.9382 -40.9382
   -40.9382 -40.9382 -40.9382 -40.9382 -40.9382 -40.9382 -40.9382 -40.9381
   -40.9381 -40.9381 -40.9380 -40.9379 -40.9379 -40.9378 -40.9378 -40.9377
   -40.9376 -40.9376 -40.9376 -40.9376 -40.9376 -40.9376 -40.9376 -40.9376
   -40.9376 -40.9375 -40.9375 -40.9375 -40.9375 -40.9375 -40.9375 -40.9375
   -40.9375 -40.9375 -40.9375 -40.9375 -40.9375 -40.9375 -40.9375 -40.9374
   -40.9374 -40.9374 -40.9374 -40.9372 -40.9372 -40.9372 -40.9372 -40.9372
   -40.9372 -40.9367 -40.9367 -40.9367 -40.9366 -40.9366 -40.9366 -40.9366
   -40.9366 -40.9366 -40.9364 -40.9364 -40.9364 -40.9363 -40.9363 -40.9363
   -40.9363 -40.9363 -40.9363 -40.9363 -40.9363 -40.9363 -40.9363 -40.9363
   -40.9363 -40.9363 -40.9363 -40.9363 -40.9362 -40.9362 -40.9362 -40.9362
   -40.9362 -40.9362 -40.9360 -40.9360 -40.9360 -40.9359 -40.9359 -40.9359
   -40.9358 -40.9358 -40.9358 -40.9350 -40.9350 -40.9350 -40.9349 -40.9349
   -40.9346 -40.9346 -40.9345 -40.9345 -40.9345 -40.9344 -40.9343 -40.9343
   -40.9343 -40.9343 -40.9343 -40.9343 -40.9342 -40.9342 -40.9342 -40.9340
   -40.9340 -40.9340 -40.9340 -40.9340 -40.9340 -40.9337 -40.9337 -40.9337
   -40.9337 -40.9336 -40.9336 -40.9336 -40.9336 -40.9335 -40.9335 -40.9335
   -40.9334 -40.9334 -40.9334 -40.9334 -40.9334 -40.9329 -40.9327 -40.9327
   -40.9327 -40.9327 -40.9327 -40.9327 -40.9326 -40.9326 -40.9326 -40.9325
   -40.9325 -40.9325 -40.9323 -40.9323 -40.9323 -40.9319 -40.9319 -40.9319
   -40.9318 -40.9318 -40.9318 -40.9318 -40.9318 -40.9318 -40.9318 -40.9318
   -40.9317 -40.9315 -40.9315 -40.9315 -40.9312 -40.9312 -40.9312 -40.9311
   -40.9310 -40.9310 -40.9310 -40.9310 -40.9310 -40.9310 -40.9310 -40.9310
   -40.9310 -40.9310 -40.9310 -40.9309 -40.9309 -40.9309 -40.9309 -40.9309
   -40.9305 -40.9305 -40.9304 -40.9304 -40.9304 -40.9304 -40.9304 -40.9304
   -40.9304 -40.9303 -40.9302 -40.9302 -40.9301 -40.9301 -40.9301 -40.9301
   -40.9301 -40.9301 -40.9301 -40.9300 -40.9300 -40.9300 -40.9300 -40.9300
   -40.9300 -40.9300 -40.9300 -40.9278 -40.9278 -40.9278 -40.9278 -40.9278
   -40.9278 -40.9272 -40.9272 -40.9272 -40.9272 -40.9272 -40.9272 -40.9269
   -40.9269 -40.9269 -40.9269 -40.9269 -40.9269 -40.9265 -40.9265 -40.9265
   -40.9265 -40.9265 -40.9264 -40.9264 -40.9264 -40.9264 -40.9264 -40.9264
   -40.9264 -40.9257 -40.9257 -40.9257 -40.9249 -40.9249 -40.9249 -40.9240
   -40.9239 -40.9239 -40.9233 -40.9233 -40.9232 -40.9232 -40.9231 -40.9231
   -40.8653 -40.8652 -40.8652 -40.8588 -40.8588 -40.8587 -40.8517 -40.8516
   -40.8516 -40.8241 -40.8241 -40.8240 -40.8237 -40.8237 -40.8236 -40.7193
   -40.7192 -40.7192 -40.7155 -40.7155 -40.7155 -40.7147 -40.7146 -40.7146
   -40.7058 -40.7058 -40.7058 -40.7051 -40.7051 -40.7050 -40.6604 -40.6604
   -40.6604 -40.6604 -40.6604 -40.6604 -40.6595 -40.6595 -40.6595 -40.6594
   -40.6594 -40.6594 -40.6545 -40.6545 -40.6545 -40.6545 -40.6545 -40.6544
   -40.6544 -40.6544 -40.6544 -40.6534 -40.6534 -40.6533 -40.6517 -40.6516
   -40.6516 -40.6513 -40.6513 -40.6513 -40.6513 -40.6513 -40.6513 -40.6504
   -40.6503 -40.6503 -40.6503 -40.6503 -40.6503 -40.6474 -40.6473 -40.6473
   -40.6473 -40.6472 -40.6472 -40.6357 -40.6356 -40.6356 -40.6350 -40.6350
   -40.6350 -40.6288 -40.6288 -40.6288 -40.6273 -40.6273 -40.6273 -40.6253
   -40.6253 -40.6253 -40.5863 -40.5863 -40.5845 -40.5845 -40.5839 -40.5790
   -40.5790 -40.5790 -40.5789 -40.5789 -40.5789 -40.5781 -40.5780 -40.5780
   -40.5780 -40.5780 -40.5779 -40.5547 -40.5547 -40.5546 -40.5546 -40.5546
   -40.5546 -40.5501 -40.5501 -40.5501 -40.5501 -40.5501 -40.5500 -40.5438
   -40.5437 -40.5437 -40.5437 -40.5437 -40.5436 -40.5254 -40.5254 -40.5254
   -40.5204 -40.5204 -40.5204 -40.5180 -40.5180 -40.5180 -40.5042 -40.5041
   -40.5041 -40.5034 -40.5034 -40.5034 -40.4522 -40.4522 -40.4521 -40.4514
   -40.4514 -40.4514 -40.3998 -40.3998 -40.3998 -40.3974 -40.3974 -40.3973
   -40.3814 -40.3814 -40.3813 -13.1103 -13.1103 -13.1088 -13.1077 -13.1077
   -13.1069 -13.1045 -13.1044 -13.1044 -13.1031 -13.1023 -13.1016 -13.1016
   -13.1012 -13.1000 -13.1000 -13.0999 -13.0999 -13.0996 -13.0982 -13.0982
   -13.0977 -13.0977 -13.0974 -13.0969 -13.0957 -13.0956 -13.0956 -13.0954
   -13.0954 -13.0913 -13.0907 -13.0907 -13.0903 -13.0896 -13.0896 -13.0895
   -13.0882 -13.0882 -13.0881 -13.0880 -13.0879 -13.0879 -13.0875 -13.0875
   -13.0873 -13.0873 -13.0869 -13.0869 -13.0868 -13.0868 -13.0857 -13.0850
   -13.0850 -13.0848 -13.0848 -13.0847 -13.0846 -13.0846 -13.0843 -13.0842
   -13.0842 -13.0839 -13.0839 -13.0838 -13.0837 -13.0837 -13.0837 -13.0834
   -13.0832 -13.0832 -13.0830 -13.0828 -13.0827 -13.0824 -13.0824 -13.0818
   -13.0818 -13.0818 -13.0818 -13.0815 -13.0808 -13.0807 -13.0807 -13.0803
   -13.0799 -13.0796 -13.0796 -13.0796 -13.0793 -13.0793 -13.0792 -13.0792
   -13.0792 -13.0792 -13.0790 -13.0788 -13.0784 -13.0784 -13.0783 -13.0782
   -13.0782 -13.0781 -13.0781 -13.0781 -13.0779 -13.0779 -13.0775 -13.0773
   -13.0773 -13.0773 -13.0773 -13.0771 -13.0770 -13.0769 -13.0769 -13.0766
   -13.0766 -13.0761 -13.0761 -13.0758 -13.0758 -13.0758 -13.0757 -13.0755
   -13.0752 -13.0752 -13.0748 -13.0748 -13.0748 -13.0748 -13.0747 -13.0747
   -13.0744 -13.0739 -13.0739 -13.0736 -13.0731 -13.0731 -13.0729 -13.0728
   -13.0725 -13.0725 -13.0724 -13.0722 -13.0722 -13.0719 -13.0719 -13.0707
   -13.0704 -13.0704 -13.0704 -13.0704 -13.0702 -13.0691 -13.0691 -13.0680
   -13.0623 -13.0600 -13.0600 -12.8390 -12.8390 -12.8341 -12.8262 -12.8259
   -12.8259 -12.8237 -12.8233 -12.8233 -12.8205 -12.8204 -12.8168 -12.8166
   -12.8165 -12.8164 -12.8146 -12.8139 -12.8139 -12.8136 -12.8136 -12.8103
   -12.8091 -12.8089 -12.8089 -12.8072 -12.8063 -12.8063 -12.8057 -12.8057
   -12.8029 -12.8029 -12.8021 -12.8016 -12.8015 -12.8011 -12.7726 -12.7689
   -12.7689 -12.7652 -12.7651 -12.7620 -12.7603 -12.7569 -12.7569 -12.7544
   -12.7544 -12.7543 -12.7532 -12.7531 -12.7531 -12.7483 -12.7482 -12.7460
   -12.7458 -12.7454 -12.7453 -12.7408 -12.7402 -12.7402 -12.7391 -12.7391
   -12.7387 -12.7371 -12.7371 -12.7361 -12.5432 -12.5432 -12.5208 -12.5135
   -12.5090 -12.5090 -12.4479 -12.4479 -12.4473 -12.4240 -12.4119 -12.4119
   -12.3909 -12.3773 -12.3773  -8.2531  -8.2094  -8.0555  -8.0542  -8.0542
    -8.0539  -8.0531  -8.0531  -8.0200  -8.0178  -8.0178  -8.0173  -8.0167
    -8.0167  -7.9286  -7.8251  -7.8077  -7.7959  -7.7959  -7.7956  -7.7949
    -7.7949  -7.7938  -7.7784  -7.7784  -7.7776  -7.7774  -7.7770  -7.7770
    -7.7753  -7.7743  -7.7743  -7.7728  -7.7728  -7.7708  -7.7650  -7.7601
    -7.7583  -7.7583  -7.7448  -7.7448  -7.7285  -7.7147  -7.7147  -7.7074
    -7.6925  -7.6925  -7.6921  -7.6911  -7.6911  -7.6907  -7.6773  -7.6772
    -7.6772  -7.6671  -7.6671  -7.6610  -7.6607  -7.6607  -7.6596  -7.6596
    -7.6591  -7.6588  -7.6574  -7.6574  -7.6405  -7.6401  -7.6401  -7.6394
    -7.6394  -7.6388  -7.5984  -7.5983  -7.5081  -7.4909  -7.4908  -7.4759
    -7.4712  -7.4458  -7.4458  -7.4170  -7.4080  -7.4079  -7.3765  -7.3764
    -7.3759  -7.3338  -7.3337  -7.3190  -7.3190  -7.3105  -7.3035  -7.2283
    -7.2196  -7.2196  -3.8070  -3.8059  -3.8059  -3.8004  -3.8004  -3.7992
    -3.7952  -3.7952  -3.7924  -3.7923  -3.7916  -3.7916  -3.7903  -3.7903
    -3.7903  -3.7900  -3.7900  -3.7859  -3.5850  -3.5375  -3.5375  -3.5359
    -3.5351  -3.5347  -3.5347  -3.5254  -3.5254  -3.5234  -3.5226  -3.5226
    -3.5207  -3.5088  -3.5088  -3.4925  -3.4817  -3.4817  -3.4578  -3.3755
    -3.3328  -3.2959  -3.2959  -3.2915  -3.2452  -3.2181  -3.2181  -3.0327
    -2.9256  -2.9256   0.7514   0.7514   0.7518   0.8572   0.8583   0.8583
     1.0448   1.0448   1.0498   1.0498   1.0509   1.0529   1.1093   1.1174
     1.1174   1.1178   1.1178   1.1205   1.1850   1.2014   1.2014   1.2612
     1.2658   1.2658   1.2700   1.2700   1.2712   1.3092   1.3120   1.3120
     1.3134   1.3140   1.3140   1.3390   1.3406   1.3406   1.3421   1.3421
     1.3429   1.3847   1.4377   1.4377   1.4498   1.4586   1.4587   1.4714
     1.4797   1.4797   1.4941   1.5290   1.5290   1.5451   1.5451   1.6241
     1.6337   1.6337   1.6390   1.6407   1.6407   1.6785   1.6924   1.6924
     1.6942   1.6942   1.6950   1.7036   1.7354   1.7439   1.7439   1.7670
     1.7672   1.7672   1.7777   1.7804   1.7804   1.7890   1.7946   1.7946
     1.8187   1.8187   1.8188   1.8295   1.8295   1.8296   1.8541   1.8541
     1.8560   1.9146   1.9177   1.9177   1.9233   1.9268   1.9268   2.0349
     2.0379   2.0379   2.0393   2.0393   2.0497   2.0680   2.0680   2.0737
     2.0737   2.0753   2.0767   2.0767   2.0779   2.0840   2.0840   2.0954
     2.0977   2.0977   2.1100   2.1259   2.1290   2.1291   2.1301   2.1319
     2.1334   2.1334   2.1427   2.1652   2.1683   2.1866   2.1866   2.2048
     2.2049   2.2222   2.2257   2.2257   2.2281   2.2310   2.2310   2.2493
     2.2667   2.2667   2.3559   2.3559   2.3601   2.3782   2.3825   2.3825
     2.4314   2.4658   2.4723   2.4742   2.4742   2.4804   2.4804   2.4848
     2.4902   2.5065   2.5065   2.5140   2.5140   2.5420   2.5420   2.5457
     2.5637   2.5689   2.5689   2.5756   2.5756   2.5858   2.5858   2.5878
     2.6384   2.6384   2.6386   2.6442   2.6442   2.6487   2.6487   2.6500
     2.6519   2.6552   2.6569   2.6569   2.6853   2.6853   2.6985   2.7285
     2.7297   2.7297   2.7337   2.7341   2.7341   2.7354   2.7367   2.7368
     2.7435   2.7435   2.7493   2.7493   2.7527   2.7590   2.7590   2.7594
     2.7723   2.7723   2.7799   2.7800   2.7824   2.8014   2.8014   2.8169
     2.8169   2.8177   2.8191   2.8191   2.8202   2.8269   2.8853   2.9032
     2.9033   2.9057   2.9140   2.9140   2.9300   2.9300   2.9481   2.9509
     2.9509   2.9613   2.9679   2.9690   2.9690   2.9921   2.9921   2.9973
     3.0124   3.0173   3.0173   3.0212   3.0321   3.0321   3.0416   3.0416
     3.0419   3.0498   3.0499   3.0565   3.0565   3.0729   3.0738   3.0738
     3.0741   3.0772   3.0772   3.0884   3.1052   3.1052   3.1201   3.1354
     3.1375   3.1418   3.1418   3.2030   3.2038   3.2038   3.2082   3.2082
     3.2093   3.2112   3.2112   3.2126   3.2167   3.2167   3.2235   3.2503
     3.2757   3.2757   3.3135   3.3295   3.3295   3.4291   3.4313   3.4320
     3.4321   3.4667   3.4667   3.4858   3.4867   3.4933   3.4933   4.9443
     5.8093   5.8927   6.1856   6.3236   6.3364   6.3364   6.3390   6.3390
     6.3392   6.4308   6.4308   6.4490   6.4643   6.4643   6.4734   6.4762
     6.4762   6.4895   6.5715   6.5715   6.6536   6.6567   6.6568   6.6576
     6.6576   6.7040   6.7040   6.7340   6.8177   6.8178   6.8360   6.8361
     6.8361   6.8861   6.8893   6.8917   6.8917   6.9030   6.9030   6.9169
     6.9169   6.9661   6.9768   6.9768   6.9861   6.9861   6.9901   7.0166
     7.0166   7.0190   7.0216   7.0217   7.0218   7.0658   7.0659   7.0823
     7.0824   7.0834   7.0868   7.0946   7.1018   7.1018   7.1119   7.1119
     7.1155   7.1169   7.1173   7.1173   7.1838   7.1877   7.1904   7.1904
     7.1937   7.1938   7.1989   7.1995   7.1995   7.2133   7.2134   7.2134
     7.2162   7.2196   7.2196   7.2334   7.2341   7.2341   7.2420   7.2493
     7.2493   7.3415   7.3415   7.3421   7.3441   7.3442   7.3663   7.3913
     7.3992   7.3992   7.4061   7.4061   7.4131   7.4165   7.4174   7.4300
     7.4300   7.4424   7.4425   7.4453   7.4509   7.4510   7.4708   7.4708
     7.4723   7.4870   7.5407   7.5440   7.5440   7.5549   7.5552   7.5561
     7.5561   7.5625   7.5625   7.5971   7.5988   7.5988   7.6074   7.6319
     7.6319   7.6501   7.6502   7.7500   7.7732   7.7732   7.7920   7.8113
     7.8113   7.9165   7.9165   7.9268   7.9884   8.0220   8.0220   9.0924
     9.0946   9.0946   9.4344   9.4481   9.4481   9.5596   9.6822   9.6827
     9.6827   9.6840   9.6852   9.6852   9.7071   9.7071   9.7286   9.7907
     9.8368   9.8368   9.8510   9.8734   9.8734   9.9488   9.9557   9.9557
     9.9657   9.9666   9.9666  10.0096  10.1730  10.1730  10.1799  10.1929
    10.1929  10.1976  10.2002  10.2004  10.2005  10.2039  10.2077  10.2077
    10.2114  10.2166  10.2167  10.2256  10.2395  10.2645  10.2645  10.3665
    10.3693  10.3768  10.3768  10.3872  10.4195  10.4195  10.5638  10.5638
    10.5642  10.5950  10.5950  10.6865  10.6966  10.6966  10.7191  10.7285
    10.7285  10.7406  10.7683  10.7932  10.7960  10.7960  10.8216  10.8221
    10.8221  10.8278  10.8279  10.8531  10.8531  10.8562  10.9248  10.9534
    10.9534  10.9662  10.9662  10.9704  10.9787

     occupation numbers 
     1.0000   1.0000   1.0000   1.0000   1.0000   1.0000   1.0000   1.0000
     1.0000   1.0000   1.0000   1.0000   1.0000   1.0000   1.0000   1.0000
     1.0000   1.0000   1.0000   1.0000   1.0000   1.0000   1.0000   1.0000
     1.0000   1.0000   1.0000   1.0000   1.0000   1.0000   1.0000   1.0000
     1.0000   1.0000   1.0000   1.0000   1.0000   1.0000   1.0000   1.0000
     1.0000   1.0000   1.0000   1.0000   1.0000   1.0000   1.0000   1.0000
     1.0000   1.0000   1.0000   1.0000   1.0000   1.0000   1.0000   1.0000
     1.0000   1.0000   1.0000   1.0000   1.0000   1.0000   1.0000   1.0000
     1.0000   1.0000   1.0000   1.0000   1.0000   1.0000   1.0000   1.0000
     1.0000   1.0000   1.0000   1.0000   1.0000   1.0000   1.0000   1.0000
     1.0000   1.0000   1.0000   1.0000   1.0000   1.0000   1.0000   1.0000
     1.0000   1.0000   1.0000   1.0000   1.0000   1.0000   1.0000   1.0000
     1.0000   1.0000   1.0000   1.0000   1.0000   1.0000   1.0000   1.0000
     1.0000   1.0000   1.0000   1.0000   1.0000   1.0000   1.0000   1.0000
     1.0000   1.0000   1.0000   1.0000   1.0000   1.0000   1.0000   1.0000
     1.0000   1.0000   1.0000   1.0000   1.0000   1.0000   1.0000   1.0000
     1.0000   1.0000   1.0000   1.0000   1.0000   1.0000   1.0000   1.0000
     1.0000   1.0000   1.0000   1.0000   1.0000   1.0000   1.0000   1.0000
     1.0000   1.0000   1.0000   1.0000   1.0000   1.0000   1.0000   1.0000
     1.0000   1.0000   1.0000   1.0000   1.0000   1.0000   1.0000   1.0000
     1.0000   1.0000   1.0000   1.0000   1.0000   1.0000   1.0000   1.0000
     1.0000   1.0000   1.0000   1.0000   1.0000   1.0000   1.0000   1.0000
     1.0000   1.0000   1.0000   1.0000   1.0000   1.0000   1.0000   1.0000
     1.0000   1.0000   1.0000   1.0000   1.0000   1.0000   1.0000   1.0000
     1.0000   1.0000   1.0000   1.0000   1.0000   1.0000   1.0000   1.0000
     1.0000   1.0000   1.0000   1.0000   1.0000   1.0000   1.0000   1.0000
     1.0000   1.0000   1.0000   1.0000   1.0000   1.0000   1.0000   1.0000
     1.0000   1.0000   1.0000   1.0000   1.0000   1.0000   1.0000   1.0000
     1.0000   1.0000   1.0000   1.0000   1.0000   1.0000   1.0000   1.0000
     1.0000   1.0000   1.0000   1.0000   1.0000   1.0000   1.0000   1.0000
     1.0000   1.0000   1.0000   1.0000   1.0000   1.0000   1.0000   1.0000
     1.0000   1.0000   1.0000   1.0000   1.0000   1.0000   1.0000   1.0000
     1.0000   1.0000   1.0000   1.0000   1.0000   1.0000   1.0000   1.0000
     1.0000   1.0000   1.0000   1.0000   1.0000   1.0000   1.0000   1.0000
     1.0000   1.0000   1.0000   1.0000   1.0000   1.0000   1.0000   1.0000
     1.0000   1.0000   1.0000   1.0000   1.0000   1.0000   1.0000   1.0000
     1.0000   1.0000   1.0000   1.0000   1.0000   1.0000   1.0000   1.0000
     1.0000   1.0000   1.0000   1.0000   1.0000   1.0000   1.0000   1.0000
     1.0000   1.0000   1.0000   1.0000   1.0000   1.0000   1.0000   1.0000
     1.0000   1.0000   1.0000   1.0000   1.0000   1.0000   1.0000   1.0000
     1.0000   1.0000   1.0000   1.0000   1.0000   1.0000   1.0000   1.0000
     1.0000   1.0000   1.0000   1.0000   1.0000   1.0000   1.0000   1.0000
     1.0000   1.0000   1.0000   1.0000   1.0000   1.0000   1.0000   1.0000
     1.0000   1.0000   1.0000   1.0000   1.0000   1.0000   1.0000   1.0000
     1.0000   1.0000   1.0000   1.0000   1.0000   1.0000   1.0000   1.0000
     1.0000   1.0000   1.0000   1.0000   1.0000   1.0000   1.0000   1.0000
     1.0000   1.0000   1.0000   1.0000   1.0000   1.0000   1.0000   1.0000
     1.0000   1.0000   1.0000   1.0000   1.0000   1.0000   1.0000   1.0000
     1.0000   1.0000   1.0000   1.0000   1.0000   1.0000   1.0000   1.0000
     1.0000   1.0000   1.0000   1.0000   1.0000   1.0000   1.0000   1.0000
     1.0000   1.0000   1.0000   1.0000   1.0000   1.0000   1.0000   1.0000
     1.0000   1.0000   1.0000   1.0000   1.0000   1.0000   1.0000   1.0000
     1.0000   1.0000   1.0000   1.0000   1.0000   1.0000   1.0000   1.0000
     1.0000   1.0000   1.0000   1.0000   1.0000   1.0000   1.0000   1.0000
     1.0000   1.0000   1.0000   1.0000   1.0000   1.0000   1.0000   1.0000
     1.0000   1.0000   1.0000   1.0000   1.0000   1.0000   1.0000   1.0000
     1.0000   1.0000   1.0000   1.0000   1.0000   1.0000   1.0000   1.0000
     1.0000   1.0000   1.0000   1.0000   1.0000   1.0000   1.0000   1.0000
     1.0000   1.0000   1.0000   1.0000   1.0000   1.0000   1.0000   1.0000
     1.0000   1.0000   1.0000   1.0000   1.0000   1.0000   1.0000   1.0000
     1.0000   1.0000   1.0000   1.0000   1.0000   1.0000   1.0000   1.0000
     1.0000   1.0000   1.0000   1.0000   1.0000   1.0000   1.0000   1.0000
     1.0000   1.0000   1.0000   1.0000   1.0000   1.0000   1.0000   1.0000
     1.0000   1.0000   1.0000   1.0000   1.0000   1.0000   1.0000   1.0000
     1.0000   1.0000   1.0000   1.0000   1.0000   1.0000   1.0000   1.0000
     1.0000   1.0000   1.0000   1.0000   1.0000   1.0000   1.0000   1.0000
     1.0000   1.0000   1.0000   1.0000   1.0000   1.0000   1.0000   1.0000
     1.0000   1.0000   1.0000   1.0000   1.0000   1.0000   1.0000   1.0000
     1.0000   1.0000   1.0000   1.0000   1.0000   1.0000   1.0000   1.0000
     1.0000   1.0000   1.0000   1.0000   1.0000   1.0000   1.0000   1.0000
     1.0000   1.0000   1.0000   1.0000   1.0000   1.0000   1.0000   1.0000
     1.0000   1.0000   1.0000   1.0000   1.0000   1.0000   1.0000   1.0000
     1.0000   1.0000   1.0000   1.0000   1.0000   1.0000   1.0000   1.0000
     1.0000   1.0000   1.0000   1.0000   1.0000   1.0000   1.0000   1.0000
     1.0000   1.0000   1.0000   1.0000   1.0000   1.0000   1.0000   1.0000
     1.0000   1.0000   1.0000   1.0000   1.0000   1.0000   1.0000   1.0000
     1.0000   1.0000   1.0000   1.0000   1.0000   1.0000   1.0000   1.0000
     1.0000   1.0000   1.0000   1.0000   1.0000   1.0000   1.0000   1.0000
     1.0000   1.0000   1.0000   1.0000   1.0000   1.0000   1.0000   1.0000
     1.0000   1.0000   1.0000   1.0000   1.0000   1.0000   1.0000   1.0000
     1.0000   1.0000   1.0000   1.0000   1.0000   1.0000   1.0000   1.0000
     1.0000   1.0000   1.0000   1.0000   1.0000   1.0000   1.0000   1.0000
     1.0000   1.0000   1.0000   1.0000   1.0000   1.0000   1.0000   1.0000
     1.0000   1.0000   1.0000   1.0000   1.0000   1.0000   1.0000   1.0000
     1.0000   1.0000   1.0000   1.0000   1.0000   1.0000   1.0000   1.0000
     1.0000   1.0000   1.0000   1.0000   1.0000   1.0000   1.0000   1.0000
     1.0000   1.0000   1.0000   1.0000   1.0000   1.0000   1.0000   1.0000
     1.0000   1.0000   1.0000   1.0000   1.0000   1.0000   1.0000   1.0000
     1.0000   1.0000   1.0000   1.0000   1.0000   1.0000   1.0000   1.0000
     1.0000   1.0000   1.0000   1.0000   1.0000   1.0000   1.0000   1.0000
     1.0000   1.0000   1.0000   1.0000   1.0000   1.0000   1.0000   1.0000
     1.0000   1.0000   1.0000   1.0000   1.0000   1.0000   1.0000   1.0000
     1.0000   1.0000   1.0000   1.0000   1.0000   1.0000   1.0000   1.0000
     1.0000   1.0000   1.0000   1.0000   1.0000   1.0000   1.0000   1.0000
     1.0000   1.0000   1.0000   1.0000   1.0000   1.0000   1.0000   1.0000
     1.0000   1.0000   1.0000   1.0000   1.0000   1.0000   1.0000   1.0000
     1.0000   1.0000   1.0000   1.0000   1.0000   1.0000   1.0000   1.0000
     1.0000   1.0000   1.0000   1.0000   1.0000   1.0000   1.0000   1.0000
     1.0000   1.0000   1.0000   1.0000   1.0000   1.0000   1.0000   1.0000
     1.0000   1.0000   1.0000   1.0000   1.0000   1.0000   1.0000   1.0000
     1.0000   1.0000   1.0000   1.0000   1.0000   1.0000   1.0000   1.0000
     1.0000   1.0000   1.0000   1.0000   1.0000   1.0000   1.0000   1.0000
     1.0000   1.0000   1.0000   1.0000   1.0000   1.0000   1.0000   1.0000
     1.0000   1.0000   1.0000   1.0000   1.0000   1.0000   1.0000   1.0000
     1.0000   1.0000   1.0000   1.0000   1.0000   1.0000   1.0000   1.0000
     1.0000   1.0000   1.0000   1.0000   1.0000   1.0000   1.0000   1.0000
     1.0000   1.0000   1.0000   1.0000   1.0000   1.0000   1.0000   1.0000
     1.0000   1.0000   1.0000   1.0000   1.0000   1.0000   1.0000   1.0000
     1.0000   1.0000   1.0000   1.0000   1.0000   1.0000   1.0000   1.0000
     1.0000   1.0000   1.0000   1.0000   1.0000   1.0000   1.0000   1.0000
     1.0000   1.0000   1.0000   1.0000   1.0000   1.0000   1.0000   1.0000
     1.0000   1.0000   1.0000   1.0000   1.0000   1.0000   1.0000   1.0000
     1.0000   1.0000   1.0000   1.0000   1.0000   1.0000   1.0000   1.0000
     1.0000   1.0000   1.0000   1.0000   1.0000   1.0000   1.0000   1.0000
     1.0000   1.0000   1.0000   1.0000   1.0000   1.0000   1.0000   1.0000
     1.0000   1.0000   1.0000   1.0000   1.0000   1.0000   1.0000   1.0000
     1.0000   1.0000   1.0000   1.0000   1.0000   1.0000   1.0000   1.0000
     1.0000   1.0000   1.0000   1.0000   1.0000   1.0000   1.0000   1.0000
     1.0000   1.0000   1.0000   1.0000   1.0000   1.0000   1.0000   1.0000
     1.0000   1.0000   1.0000   1.0000   1.0000   1.0000   1.0000   1.0000
     1.0000   1.0000   1.0000   1.0000   1.0000   1.0000   1.0000   1.0000
     1.0000   1.0000   1.0000   1.0000   1.0000   1.0000   1.0000   1.0000
     1.0000   1.0000   1.0000   1.0000   1.0000   1.0000   1.0000   1.0000
     1.0000   1.0000   1.0000   1.0000   1.0000   1.0000   1.0000   1.0000
     1.0000   1.0000   1.0000   1.0000   1.0000   1.0000   1.0000   1.0000
     1.0000   1.0000   1.0000   1.0000   1.0000   1.0000   1.0000   1.0000
     1.0000   1.0000   1.0000   1.0000   1.0000   1.0000   1.0000   1.0000
     1.0000   1.0000   1.0000   1.0000   1.0000   1.0000   1.0000   1.0000
     1.0000   1.0000   1.0000   1.0000   1.0000   1.0000   1.0000   1.0000
     1.0000   1.0000   1.0000   1.0000   1.0000   1.0000   1.0000   1.0000
     1.0000   1.0000   1.0000   1.0000   1.0000   1.0000   1.0000   1.0000
     1.0000   1.0000   1.0000   1.0000   1.0000   1.0000   1.0000   1.0000
     1.0000   1.0000   1.0000   1.0000   1.0000   1.0000   1.0000   1.0000
     1.0000   1.0000   1.0000   1.0000   1.0000   1.0000   1.0000   1.0000
     1.0000   1.0000   1.0000   1.0000   1.0000   1.0000   1.0000   1.0000
     1.0000   1.0000   1.0000   1.0000   1.0000   1.0000   1.0000   1.0000
     1.0000   1.0000   1.0000   1.0000   1.0000   1.0000   1.0000   1.0000
     1.0000   1.0000   1.0000   1.0000   1.0000   1.0000   1.0000   1.0000
     1.0000   1.0000   1.0000   1.0000   1.0000   1.0000   1.0000   1.0000
     1.0000   1.0000   1.0000   1.0000   1.0000   1.0000   1.0000   1.0000
     1.0000   1.0000   1.0000   1.0000   1.0000   1.0000   1.0000   1.0000
     1.0000   1.0000   1.0000   1.0000   1.0000   1.0000   1.0000   1.0000
     1.0000   1.0000   1.0000   1.0000   1.0000   1.0000   1.0000   1.0000
     0.0000   0.0000   0.0000   0.0000   0.0000   0.0000   0.0000   0.0000
     0.0000   0.0000   0.0000   0.0000   0.0000   0.0000   0.0000   0.0000
     0.0000   0.0000   0.0000   0.0000   0.0000   0.0000   0.0000   0.0000
     0.0000   0.0000   0.0000   0.0000   0.0000   0.0000   0.0000   0.0000
     0.0000   0.0000   0.0000   0.0000   0.0000   0.0000   0.0000   0.0000
     0.0000   0.0000   0.0000   0.0000   0.0000   0.0000   0.0000   0.0000
     0.0000   0.0000   0.0000   0.0000   0.0000   0.0000   0.0000   0.0000
     0.0000   0.0000   0.0000   0.0000   0.0000   0.0000   0.0000   0.0000
     0.0000   0.0000   0.0000   0.0000   0.0000   0.0000   0.0000   0.0000
     0.0000   0.0000   0.0000   0.0000   0.0000   0.0000   0.0000   0.0000
     0.0000   0.0000   0.0000   0.0000   0.0000   0.0000   0.0000   0.0000
     0.0000   0.0000   0.0000   0.0000   0.0000   0.0000   0.0000   0.0000
     0.0000   0.0000   0.0000   0.0000   0.0000   0.0000   0.0000   0.0000
     0.0000   0.0000   0.0000   0.0000   0.0000   0.0000   0.0000   0.0000
     0.0000   0.0000   0.0000   0.0000   0.0000   0.0000   0.0000   0.0000
     0.0000   0.0000   0.0000   0.0000   0.0000   0.0000   0.0000   0.0000
     0.0000   0.0000   0.0000   0.0000   0.0000   0.0000   0.0000   0.0000
     0.0000   0.0000   0.0000   0.0000   0.0000   0.0000   0.0000   0.0000
     0.0000   0.0000   0.0000   0.0000   0.0000   0.0000   0.0000   0.0000
     0.0000   0.0000   0.0000   0.0000   0.0000   0.0000   0.0000   0.0000
     0.0000   0.0000   0.0000   0.0000   0.0000   0.0000   0.0000   0.0000
     0.0000   0.0000   0.0000   0.0000   0.0000   0.0000   0.0000   0.0000
     0.0000   0.0000   0.0000   0.0000   0.0000   0.0000   0.0000   0.0000
     0.0000   0.0000   0.0000   0.0000   0.0000   0.0000   0.0000   0.0000
     0.0000   0.0000   0.0000   0.0000   0.0000   0.0000   0.0000   0.0000
     0.0000   0.0000   0.0000   0.0000   0.0000   0.0000   0.0000   0.0000
     0.0000   0.0000   0.0000   0.0000   0.0000   0.0000   0.0000   0.0000
     0.0000   0.0000   0.0000   0.0000   0.0000   0.0000   0.0000   0.0000
     0.0000   0.0000   0.0000   0.0000   0.0000

     the Fermi energy is     5.3767 ev

!    total energy              =  -96570.25954572 Ry
     total all-electron energy =  -3359209.819787 Ry
     estimated scf accuracy    <       0.00000010 Ry
     smearing contrib. (-TS)   =      -0.00000046 Ry
     internal energy E=F+TS    =  -96570.25954525 Ry

     The total energy is F=E-TS. E is the sum of the following terms:
     one-electron contribution =  -17877.56654535 Ry
     hartree contribution      =    9979.70430601 Ry
     xc contribution           =   -6751.47716714 Ry
     ewald contribution        =  -14636.47301279 Ry
     one-center paw contrib.   =  -67284.44712597 Ry
      -> PAW hartree energy AE =     192.45979551 Ry
      -> PAW hartree energy PS =    -192.93828353 Ry
      -> PAW xc energy AE      =   -1596.89832658 Ry
      -> PAW xc energy PS      =      66.65946399 Ry
      -> total E_H with PAW    =    9979.22581798 Ry
      -> total E_XC with PAW   =   -8281.71602973 Ry

     convergence has been achieved in   3 iterations


     -----------------------------------------------
     Non-local corr. energy    =      68.47801863 Ry
     -----------------------------------------------


     Forces acting on atoms (cartesian axes, Ry/au):

     atom    1 type  1   force =     0.00000030   -0.00004639   -0.00011693
     atom    2 type  1   force =     0.00000100    0.00026035   -0.00031451
     atom    3 type  1   force =    -0.00000020    0.00011950    0.00027254
     atom    4 type  1   force =    -0.00011981   -0.00002605   -0.00016591
     atom    5 type  1   force =     0.00006670   -0.00036113   -0.00038188
     atom    6 type  1   force =    -0.00002529    0.00009281    0.00036515
     atom    7 type  1   force =    -0.00008300   -0.00008857   -0.00016551
     atom    8 type  1   force =    -0.00028056    0.00023621   -0.00038328
     atom    9 type  1   force =     0.00006672   -0.00006695    0.00036489
     atom   10 type  1   force =    -0.00004049    0.00002386   -0.00011657
     atom   11 type  1   force =     0.00022664   -0.00013438   -0.00031594
     atom   12 type  1   force =     0.00010297   -0.00005855    0.00027283
     atom   13 type  1   force =     0.00009466    0.00005498   -0.00011617
     atom   14 type  1   force =    -0.00060565   -0.00035102   -0.00007688
     atom   15 type  1   force =     0.00004374    0.00002546    0.00022443
     atom   16 type  1   force =     0.00011929   -0.00002626   -0.00016597
     atom   17 type  1   force =    -0.00006551   -0.00036276   -0.00038304
     atom   18 type  1   force =     0.00002428    0.00009285    0.00036562
     atom   19 type  1   force =    -0.00000136    0.00000103   -0.00010683
     atom   20 type  1   force =    -0.00000075   -0.00000046   -0.00011554
     atom   21 type  1   force =    -0.00000117    0.00000105    0.00061070
     atom   22 type  1   force =     0.00003548    0.00011736   -0.00016538
     atom   23 type  1   force =    -0.00034661    0.00012247   -0.00038177
     atom   24 type  1   force =     0.00009077   -0.00002337    0.00036612
     atom   25 type  1   force =    -0.00000113    0.00013264   -0.00014076
     atom   26 type  1   force =    -0.00000040   -0.00037697    0.00004034
     atom   27 type  1   force =    -0.00000085   -0.00004272    0.00031731
     atom   28 type  1   force =     0.00011377   -0.00006520   -0.00014153
     atom   29 type  1   force =    -0.00032704    0.00018850    0.00004008
     atom   30 type  1   force =    -0.00003859    0.00002286    0.00031736
     atom   31 type  1   force =     0.00008231   -0.00008924   -0.00016557
     atom   32 type  1   force =     0.00028105    0.00023614   -0.00038391
     atom   33 type  1   force =    -0.00006721   -0.00006760    0.00036584
     atom   34 type  1   force =    -0.00003714    0.00011757   -0.00016616
     atom   35 type  1   force =     0.00034543    0.00012150   -0.00038128
     atom   36 type  1   force =    -0.00009364   -0.00002341    0.00036576
     atom   37 type  1   force =    -0.00009534    0.00005549   -0.00011669
     atom   38 type  1   force =     0.00060690   -0.00035029   -0.00007830
     atom   39 type  1   force =    -0.00004417    0.00002666    0.00022411
     atom   40 type  1   force =    -0.00011484   -0.00006493   -0.00014070
     atom   41 type  1   force =     0.00032708    0.00018965    0.00004041
     atom   42 type  1   force =     0.00003804    0.00002311    0.00031627
     atom   43 type  1   force =     0.00000009   -0.00010963   -0.00011725
     atom   44 type  1   force =     0.00000138    0.00069849   -0.00007526
     atom   45 type  1   force =     0.00000002   -0.00004927    0.00022410
     atom   46 type  1   force =     0.00004065    0.00002386   -0.00011739
     atom   47 type  1   force =    -0.00022487   -0.00013509   -0.00031338
     atom   48 type  1   force =    -0.00010197   -0.00005854    0.00027282
     atom   49 type  2   force =     0.00000115    0.00000334    0.00021375
     atom   50 type  2   force =    -0.00000135   -0.00000028    0.00017850
     atom   51 type  2   force =    -0.00001165   -0.00001380   -0.00033510
     atom   52 type  2   force =     0.00001587   -0.00010948   -0.00021690
     atom   53 type  2   force =     0.00000710    0.00000296    0.00021261
     atom   54 type  2   force =     0.00003816    0.00002026    0.00010697
     atom   55 type  2   force =    -0.00002089   -0.00001355   -0.00019859
     atom   56 type  2   force =     0.00008190    0.00004403    0.00026258
     atom   57 type  2   force =    -0.00001650    0.00000519   -0.00033260
     atom   58 type  2   force =    -0.00009106    0.00006876   -0.00021176
     atom   59 type  2   force =     0.00000767    0.00000237    0.00021305
     atom   60 type  2   force =    -0.00000934    0.00001217   -0.00033352
     atom   61 type  2   force =    -0.00010668    0.00004084   -0.00021796
     atom   62 type  2   force =     0.00000146   -0.00000647    0.00020342
     atom   63 type  2   force =     0.00000914   -0.00001663   -0.00033352
     atom   64 type  2   force =    -0.00001610   -0.00011288   -0.00021399
     atom   65 type  2   force =    -0.00000815    0.00000495    0.00020430
     atom   66 type  2   force =     0.00000074   -0.00011349   -0.00026047
     atom   67 type  2   force =    -0.00000326    0.00003900   -0.00021551
     atom   68 type  2   force =    -0.00000227    0.00000024    0.00015987
     atom   69 type  2   force =    -0.00009697    0.00005815   -0.00026207
     atom   70 type  2   force =     0.00003482   -0.00001894   -0.00021209
     atom   71 type  2   force =    -0.00000052    0.00000589    0.00015852
     atom   72 type  2   force =    -0.00000017   -0.00004357    0.00009968
     atom   73 type  2   force =     0.00000163    0.00003101   -0.00020405
     atom   74 type  2   force =    -0.00000300   -0.00009214    0.00025460
     atom   75 type  2   force =     0.00013317    0.00007601    0.00007177
     atom   76 type  2   force =    -0.00001214    0.00000017   -0.00016341
     atom   77 type  2   force =    -0.00006734   -0.00003768    0.00029818
     atom   78 type  2   force =    -0.00003443    0.00001875    0.00010314
     atom   79 type  2   force =     0.00002335   -0.00000913   -0.00020545
     atom   80 type  2   force =    -0.00008197    0.00004552    0.00026386
     atom   81 type  2   force =     0.00010075    0.00005475   -0.00026354
     atom   82 type  2   force =    -0.00003454   -0.00002132   -0.00020916
     atom   83 type  2   force =     0.00000047   -0.00000170    0.00015755
     atom   84 type  2   force =     0.00000960    0.00001266   -0.00033152
     atom   85 type  2   force =     0.00010552    0.00004401   -0.00021582
     atom   86 type  2   force =    -0.00000168   -0.00000802    0.00021019
     atom   87 type  2   force =    -0.00013165    0.00007510    0.00007443
     atom   88 type  2   force =     0.00000718   -0.00000244   -0.00016166
     atom   89 type  2   force =     0.00006438   -0.00003898    0.00029810
     atom   90 type  2   force =     0.00000220   -0.00016055    0.00006566
     atom   91 type  2   force =    -0.00000157    0.00001094   -0.00015932
     atom   92 type  2   force =     0.00000388    0.00006928    0.00029381
     atom   93 type  2   force =     0.00002277   -0.00000011   -0.00033073
     atom   94 type  2   force =     0.00008477    0.00007258   -0.00021626
     atom   95 type  2   force =    -0.00000897    0.00000176    0.00021262
     atom   96 type  2   force =     0.00008138   -0.00004624    0.00015075
     atom   97 type  2   force =    -0.00028645    0.00016207    0.00027334
     atom   98 type  2   force =     0.00001149   -0.00000574   -0.00004396
     atom   99 type  2   force =     0.00012352    0.00001721    0.00026472
     atom  100 type  2   force =     0.00008980    0.00017769    0.00016889
     atom  101 type  2   force =     0.00004064   -0.00003948   -0.00013964
     atom  102 type  2   force =     0.00008005    0.00009889    0.00026696
     atom  103 type  2   force =     0.00020277   -0.00001534    0.00017095
     atom  104 type  2   force =    -0.00001618    0.00006070   -0.00014414
     atom  105 type  2   force =     0.00000019    0.00009031    0.00015498
     atom  106 type  2   force =     0.00000108   -0.00034309    0.00027691
     atom  107 type  2   force =     0.00000076    0.00001462   -0.00004314
     atom  108 type  2   force =    -0.00007866   -0.00004624    0.00015702
     atom  109 type  2   force =     0.00028914    0.00015718    0.00027777
     atom  110 type  2   force =    -0.00001787   -0.00000569   -0.00004319
     atom  111 type  2   force =    -0.00000045    0.00000366    0.00034221
     atom  112 type  2   force =     0.00000097    0.00014057    0.00019309
     atom  113 type  2   force =     0.00000327   -0.00000357   -0.00011690
     atom  114 type  2   force =     0.00003922    0.00001936    0.00024272
     atom  115 type  2   force =    -0.00020932   -0.00011889   -0.00084240
     atom  116 type  2   force =    -0.00013966   -0.00007974   -0.00013919
     atom  117 type  2   force =     0.00000363    0.00000158    0.00034690
     atom  118 type  2   force =     0.00012152   -0.00007302    0.00018869
     atom  119 type  2   force =    -0.00000059    0.00000289   -0.00011957
     atom  120 type  2   force =    -0.00004377   -0.00012057    0.00026310
     atom  121 type  2   force =     0.00011456   -0.00016312    0.00016784
     atom  122 type  2   force =    -0.00005227   -0.00001326   -0.00014432
     atom  123 type  2   force =    -0.00012266    0.00001818    0.00026853
     atom  124 type  2   force =    -0.00008632    0.00018404    0.00017026
     atom  125 type  2   force =    -0.00004048   -0.00003995   -0.00014544
     atom  126 type  2   force =    -0.00003982    0.00002348    0.00024305
     atom  127 type  2   force =     0.00021219   -0.00012381   -0.00084503
     atom  128 type  2   force =     0.00014081   -0.00008159   -0.00013591
     atom  129 type  2   force =     0.00000430   -0.00004436    0.00024505
     atom  130 type  2   force =    -0.00000355    0.00024288   -0.00084326
     atom  131 type  2   force =     0.00000255    0.00016437   -0.00013683
     atom  132 type  2   force =     0.00004073   -0.00011914    0.00026724
     atom  133 type  2   force =    -0.00011455   -0.00016865    0.00016358
     atom  134 type  2   force =     0.00005408   -0.00001413   -0.00014268
     atom  135 type  2   force =    -0.00000263    0.00000440    0.00015808
     atom  136 type  2   force =    -0.00000168   -0.00000275   -0.00002360
     atom  137 type  2   force =     0.00000028    0.00000231   -0.00013414
     atom  138 type  2   force =    -0.00007919    0.00010102    0.00026353
     atom  139 type  2   force =    -0.00020511   -0.00001823    0.00016473
     atom  140 type  2   force =     0.00001576    0.00005575   -0.00014505
     atom  141 type  2   force =    -0.00000183    0.00000438    0.00034046
     atom  142 type  2   force =    -0.00012057   -0.00007059    0.00019023
     atom  143 type  2   force =     0.00000176    0.00000457   -0.00012177
     The non-local contrib.  to forces
     atom    1 type  1   force =     0.00000997   -0.00110534    0.00501225
     atom    2 type  1   force =    -0.00000078   -0.09379482    0.05210191
     atom    3 type  1   force =     0.00001373    0.00002474   -0.00311960
     atom    4 type  1   force =     0.00067646   -0.00016106    0.00405554
     atom    5 type  1   force =     0.03100544   -0.01457883    0.02590475
     atom    6 type  1   force =     0.00041820    0.00213464   -0.00397187
     atom    7 type  1   force =     0.00023108    0.00060436    0.00405138
     atom    8 type  1   force =     0.00289184    0.03413561    0.02591905
     atom    9 type  1   force =     0.00209118   -0.00076574   -0.00397152
     atom   10 type  1   force =    -0.00090460    0.00050194    0.00501021
     atom   11 type  1   force =    -0.08123563    0.04690361    0.05208835
     atom   12 type  1   force =     0.00006359   -0.00006378   -0.00312357
     atom   13 type  1   force =     0.00710850    0.00406515   -0.00036129
     atom   14 type  1   force =     0.00129269    0.00071988   -0.04892609
     atom   15 type  1   force =     0.00065659    0.00034039   -0.00330982
     atom   16 type  1   force =    -0.00065053   -0.00016166    0.00405126
     atom   17 type  1   force =    -0.03099401   -0.01459110    0.02589793
     atom   18 type  1   force =    -0.00039306    0.00213376   -0.00397397
     atom   19 type  1   force =     0.00001241   -0.00003420    0.00439079
     atom   20 type  1   force =     0.00000776   -0.00002924    0.01184879
     atom   21 type  1   force =     0.00000785   -0.00003056   -0.01011787
     atom   22 type  1   force =    -0.00043110   -0.00054681    0.00404963
     atom   23 type  1   force =    -0.02811586   -0.01961568    0.02589607
     atom   24 type  1   force =     0.00168417   -0.00146844   -0.00397427
     atom   25 type  1   force =     0.00001168   -0.00311894    0.00520449
     atom   26 type  1   force =     0.00000497   -0.02257322    0.00053200
     atom   27 type  1   force =     0.00000985   -0.00021256   -0.00337318
     atom   28 type  1   force =    -0.00265447    0.00151189    0.00520397
     atom   29 type  1   force =    -0.01951524    0.01124923    0.00052830
     atom   30 type  1   force =    -0.00014379    0.00005396   -0.00337777
     atom   31 type  1   force =    -0.00020662    0.00060352    0.00404855
     atom   32 type  1   force =    -0.00286484    0.03413330    0.02590504
     atom   33 type  1   force =    -0.00206815   -0.00076764   -0.00397351
     atom   34 type  1   force =     0.00045467   -0.00054889    0.00404988
     atom   35 type  1   force =     0.02812426   -0.01960655    0.02588707
     atom   36 type  1   force =    -0.00166320   -0.00147033   -0.00397341
     atom   37 type  1   force =    -0.00709676    0.00407118   -0.00036959
     atom   38 type  1   force =    -0.00128259    0.00072315   -0.04891689
     atom   39 type  1   force =    -0.00063305    0.00034032   -0.00330653
     atom   40 type  1   force =     0.00267784    0.00151322    0.00520898
     atom   41 type  1   force =     0.01953045    0.01125098    0.00053158
     atom   42 type  1   force =     0.00016336    0.00005424   -0.00337423
     atom   43 type  1   force =     0.00001058   -0.00820278   -0.00033781
     atom   44 type  1   force =     0.00000972   -0.00149747   -0.04893345
     atom   45 type  1   force =     0.00001048   -0.00077998   -0.00330758
     atom   46 type  1   force =     0.00092962    0.00050529    0.00501307
     atom   47 type  1   force =     0.08122798    0.04689820    0.05210676
     atom   48 type  1   force =    -0.00004038   -0.00006587   -0.00311947
     atom   49 type  2   force =    -0.00000572    0.00001503    0.25474735
     atom   50 type  2   force =    -0.00000191    0.00001057    0.24563680
     atom   51 type  2   force =    -0.03852944   -0.00720312    0.21614178
     atom   52 type  2   force =    -0.00084665   -0.00216659    0.25356865
     atom   53 type  2   force =     0.00008912    0.00124651    0.24433163
     atom   54 type  2   force =    -0.02183733   -0.01260195    0.21981943
     atom   55 type  2   force =     0.00060851    0.00036399    0.25621649
     atom   56 type  2   force =    -0.00047730   -0.00025852    0.24518670
     atom   57 type  2   force =    -0.02551125   -0.02975213    0.21614382
     atom   58 type  2   force =    -0.00231582    0.00037774    0.25357170
     atom   59 type  2   force =     0.00110793   -0.00052477    0.24433112
     atom   60 type  2   force =     0.01301155    0.03698199    0.21614309
     atom   61 type  2   force =    -0.00147663    0.00182429    0.25356296
     atom   62 type  2   force =     0.00101335   -0.00068575    0.24432549
     atom   63 type  2   force =     0.03852161   -0.00721186    0.21614413
     atom   64 type  2   force =     0.00083061   -0.00216786    0.25356984
     atom   65 type  2   force =    -0.00009687    0.00124521    0.24432499
     atom   66 type  2   force =    -0.00000870   -0.00775634    0.23648222
     atom   67 type  2   force =    -0.00000970    0.00353983    0.26299726
     atom   68 type  2   force =    -0.00000839   -0.00028577    0.24500415
     atom   69 type  2   force =    -0.00672922    0.00389090    0.23648384
     atom   70 type  2   force =     0.00305182   -0.00175015    0.26300321
     atom   71 type  2   force =    -0.00026786    0.00016688    0.24500171
     atom   72 type  2   force =    -0.00000285    0.02523076    0.21982009
     atom   73 type  2   force =    -0.00000062   -0.00068805    0.25621395
     atom   74 type  2   force =    -0.00000871    0.00055762    0.24518257
     atom   75 type  2   force =    -0.01212542   -0.00699830    0.23713274
     atom   76 type  2   force =    -0.00085154   -0.00046834    0.25585670
[...]
     atom  104 type  2   force =    -0.00000931    0.00003688    0.00015277
     atom  105 type  2   force =     0.00000106   -0.00001906    0.00026015
     atom  106 type  2   force =    -0.00000226   -0.00002143   -0.00002993
     atom  107 type  2   force =     0.00000222    0.00002613    0.00020125
     atom  108 type  2   force =     0.00001648    0.00000734    0.00026285
     atom  109 type  2   force =     0.00000743    0.00000023   -0.00002808
     atom  110 type  2   force =    -0.00003316   -0.00001212    0.00020241
     atom  111 type  2   force =    -0.00000120    0.00003172    0.00028614
     atom  112 type  2   force =    -0.00000040   -0.00000400   -0.00005258
     atom  113 type  2   force =     0.00000695   -0.00004006    0.00019602
     atom  114 type  2   force =     0.00002113    0.00000503    0.00030138
     atom  115 type  2   force =     0.00001961    0.00001508   -0.00005360
     atom  116 type  2   force =     0.00000039    0.00000008    0.00016270
     atom  117 type  2   force =     0.00002962   -0.00001133    0.00029371
     atom  118 type  2   force =    -0.00000238    0.00000187   -0.00006711
     atom  119 type  2   force =    -0.00002827    0.00001924    0.00018907
     atom  120 type  2   force =     0.00000889   -0.00002528    0.00028599
     atom  121 type  2   force =     0.00002001    0.00001067   -0.00005329
     atom  122 type  2   force =    -0.00002193   -0.00000697    0.00015543
     atom  123 type  2   force =    -0.00000885    0.00001031    0.00029564
     atom  124 type  2   force =     0.00001400    0.00002059   -0.00004557
     atom  125 type  2   force =    -0.00002002   -0.00002068    0.00015487
     atom  126 type  2   force =    -0.00002215    0.00001269    0.00030492
     atom  127 type  2   force =    -0.00001543    0.00000600   -0.00005200
     atom  128 type  2   force =     0.00000345   -0.00000335    0.00017149
     atom  129 type  2   force =     0.00000814   -0.00002416    0.00030746
     atom  130 type  2   force =    -0.00000707   -0.00001900   -0.00005512
     atom  131 type  2   force =     0.00000567    0.00000412    0.00016951
     atom  132 type  2   force =    -0.00001325   -0.00002140    0.00029362
     atom  133 type  2   force =    -0.00002041    0.00000037   -0.00005877
     atom  134 type  2   force =     0.00002681   -0.00000792    0.00015921
     atom  135 type  2   force =    -0.00000393    0.00000701    0.00030665
     atom  136 type  2   force =    -0.00000310   -0.00000509   -0.00005463
     atom  137 type  2   force =     0.00000066    0.00000269    0.00012569
     atom  138 type  2   force =    -0.00001689    0.00000904    0.00028639
     atom  139 type  2   force =    -0.00001153   -0.00002155   -0.00005752
     atom  140 type  2   force =     0.00001029    0.00002709    0.00015450
     atom  141 type  2   force =    -0.00002622   -0.00000456    0.00028361
     atom  142 type  2   force =     0.00000619    0.00001062   -0.00006057
     atom  143 type  2   force =     0.00003096    0.00002283    0.00018560

     Total force =     0.003772     Total SCF correction =     0.002272
     SCF correction compared to forces is large: reduce conv_thr to get better values


     Computing stress (Cartesian axis) and pressure



     -----------------------------------------------
     Non-local corr. energy    =      68.47801863 Ry
     -----------------------------------------------

          total   stress  (Ry/bohr**3)                   (kbar)     P=        3.43
   0.00002163  -0.00000000  -0.00000000            3.18       -0.00       -0.00
  -0.00000000   0.00002163  -0.00000000           -0.00        3.18       -0.00
  -0.00000000  -0.00000000   0.00002674           -0.00       -0.00        3.93

     kinetic stress (kbar)  14904.32     -0.00      0.00
                               -0.00  14904.32     -0.00
                                0.00     -0.00  14915.12

     local   stress (kbar)  -7682.58     -0.01     -0.00
                               -0.01  -7682.58     -0.00
                               -0.00     -0.00   1577.04

     nonloc. stress (kbar)  -1087.95     -0.00      0.00
                               -0.00  -1087.95     -0.00
                                0.00     -0.00  -1094.03

     hartree stress (kbar)  12044.51      0.00      0.00
                                0.00  12044.51      0.00
                                0.00      0.00   7868.96

     exc-cor stress (kbar)   6889.70      0.00      0.00
                                0.00   6889.70     -0.00
                                0.00     -0.00   6888.42

     corecor stress (kbar) -11220.05     -0.00     -0.00
                               -0.00 -11220.05     -0.00
                               -0.00     -0.00 -11219.95

     ewald   stress (kbar) -13927.36      0.01      0.00
                                0.01 -13927.36      0.00
                                0.00      0.00 -19015.62

     hubbard stress (kbar)      0.00      0.00      0.00
                                0.00      0.00      0.00
                                0.00      0.00      0.00

     DFT-D   stress (kbar)      0.00      0.00      0.00
                                0.00      0.00      0.00
                                0.00      0.00      0.00

     XDM     stress (kbar)      0.00      0.00      0.00
                                0.00      0.00      0.00
                                0.00      0.00      0.00

     dft-nl  stress (kbar)     82.58     -0.00     -0.00
                               -0.00     82.58      0.00
                               -0.00      0.00     83.99

     TS-vdW  stress (kbar)      0.00      0.00      0.00
                                0.00      0.00      0.00
                                0.00      0.00      0.00

     MDB     stress (kbar)      0.00      0.00      0.00
                                0.00      0.00      0.00
                                0.00      0.00      0.00

     3D-RISM stress (kbar)      0.00      0.00      0.00
                                0.00      0.00      0.00
                                0.00      0.00      0.00

     Energy error            =      3.8E-05 Ry
     Gradient error          =      8.5E-04 Ry/Bohr

     bfgs converged in  18 scf cycles and  17 bfgs steps
     (criteria: energy <  1.0E-04 Ry, force <  1.0E-03 Ry/Bohr)

     End of BFGS Geometry Optimization

     Final energy             =  -96570.2595457172 Ry

     File ./PbI2.bfgs deleted, as requested
Begin final coordinates

ATOMIC_POSITIONS (angstrom)
Pb            2.3557668311        4.0752752046       22.1513261914
Pb            2.3557986347        3.5388377847        7.2735995211
Pb            2.3557495705        4.0824878545       14.7528148627
Pb            0.0015717115        8.1588148360       22.1405063320
Pb            0.0532264898        8.0997652363        7.3893354852
Pb            0.0025698135        8.1631549933       14.7475328482
Pb           -2.3556067982       12.2415488493       22.1404668786
Pb           -2.3808279490       12.3157005980        7.3893050393
Pb           -2.3513238752       12.2402364856       14.7475563750
Pb           -4.7149522881       16.3220876029       22.1512595016
Pb           -5.1794015502       16.5902096487        7.2737061740
Pb           -4.7087200310       16.3185056788       14.7528212450
Pb            7.0646526024        4.0783097205       22.1555826981
Pb            7.0635979741        4.0776963535        7.3207996293
Pb            7.0666657240        4.0794751152       14.7497906820
Pb            4.7099535759        8.1588230683       22.1405631329
Pb            4.6582751232        8.0998328329        7.3894775034
Pb            4.7089614862        8.1631753869       14.7476005002
Pb            2.3557753166       12.2398408405       22.1395461214
Pb            2.3557722135       12.2398552747        7.3893432441
Pb            2.3557868833       12.2398210137       14.7379158007
Pb           -0.0013959153       16.3191517649       22.1405210863
Pb           -0.0782612820       16.3038860260        7.3894167826
Pb            0.0018876527       16.3160789749       14.7475808652
Pb           11.7783260099        4.0734159563       22.1451606653
Pb           11.7783000576        4.0415535111        7.3838208111
Pb           11.7783213934        4.0788651506       14.7529296903
Pb            9.4172396144        8.1628912833       22.1451506484
Pb            9.3896178738        8.1788387723        7.3838791198
Pb            9.4219807318        8.1601587495       14.7529350556
Pb            7.0671302632       12.2415697656       22.1405561142
Pb            7.0923380335       12.3157371890        7.3894615821
Pb            7.0628601967       12.2402501431       14.7475692521
Pb            4.7129439421       16.3191513063       22.1405568120
Pb            4.7898593974       16.3038982167        7.3894310878
Pb            4.7096838682       16.3160917300       14.7475395213
Pb           16.4919940168        4.0782781161       22.1556049765
Pb           16.4930021993        4.0776539289        7.3207343412
Pb           16.4899469989        4.0794543825       14.7496784413
Pb           14.1393776419        8.1628714276       22.1450865209
Pb           14.1669254860        8.1788093365        7.3837650092
Pb           14.1346313572        8.1601429802       14.7529049705
Pb           11.7782913407       12.2425357120       22.1554586390
Pb           11.7782550077       12.2437594225        7.3207333176
Pb           11.7782913435       12.2402537504       14.7496921207
Pb            9.4264779293       16.3220877000       22.1513107218
Pb            9.8909796444       16.5902214505        7.2735810758
Pb            9.4202153419       16.3185003279       14.7527777374
I             2.3557375363        1.3597181466       12.8824090144
I             2.3557221557        1.3597170983       20.2553969571
I             0.0120253580        5.3547159460        5.5014696885
I             0.0014408223        5.4403079633       12.8705288009
I             0.0000235240        5.4342915977       20.2575938025
I            -2.3734907078        9.5093601568        5.4925415332
I            -2.3548443045        9.5202757543       12.8735385265
I            -2.3565681238        9.5192571524       20.2497203118
I            -4.7787973371       13.6524786827        5.5014766951
I            -4.7100418927       13.6008543707       12.8705681960
I            -4.7159470440       13.6025970221       20.2575250609
I             6.9875855979        1.3918226507        5.5015514342
I             7.0667973671        1.3583067218       12.8706362651
I             7.0623104248        1.3625289954       20.2575915581
I             4.6995638156        5.3548404177        5.5015367359
I             4.7100508188        5.4403190204       12.8706254987
I             4.7114611119        5.4343220030       20.2576206092
I             2.3557649041        9.5187157573        5.4781223930
I             2.3557511982        9.5220182714       12.8718045009
I             2.3557499378        9.5187514470       20.2494811823
I            -0.0008444180       13.6005243448        5.4780865208
I             0.0019983949       13.5988583159       12.8718284593
I            -0.0008524985       13.6005250364       20.2494636416
I            11.7783232237        1.3804249673        5.4926253012
I            11.7782720667        1.3589119553       12.8735753094
I            11.7782928707        1.3609339777       20.2497894298
I             9.4094563452        5.4321841615        5.4893940182
I             9.4233158786        5.4401835808       12.8759330693
I             9.4118832200        5.4335558789       20.2597324087
I             7.0849519921        9.5094202157        5.4926621745
I             7.0663091815        9.5202706410       12.8735962440
I             7.0680407913        9.5192795406       20.2498098868
I             4.7123715911       13.6005183180        5.4781275738
I             4.7095037076       13.5988650117       12.8718036770
I             4.7123503702       13.6005329660       20.2495014473
I            16.5690263602        1.3917670187        5.5014819755
I            16.4897552193        1.3582904095       12.8705190668
I            16.4942515657        1.3625090726       20.2576038473
I            14.1470926227        5.4321329862        5.4893194813
I            14.1332143144        5.4401877814       12.8758572712
I            14.1447353372        5.4334984365       20.2597160336
I            11.7782225587        9.5350130365        5.4893377541
I            11.7782681216        9.5190639124       12.8758705020
I            11.7782611833        9.5321878149       20.2596391944
I             9.4901963993       13.6524355140        5.5014769656
I             9.4215049279       13.6008362689       12.8705485861
I             9.4273855153       13.6025984771       20.2575629790
I             0.0203750443        2.7079968537        1.9115993031
I             0.0416676330        2.6956174542        9.3055973816
I             0.0001497698        2.7196769657       16.6433123428
I            -2.3546573360        6.8014897744        1.8849941023
I            -2.3520656648        6.8017906132        9.2679567279
I            -2.3541288649        6.7993231081       16.6428923039
I            -4.7092956557       10.8797963124        1.8849334124
I            -4.7076999185       10.8818817207        9.2679407926
I            -4.7108748378       10.8813179235       16.6428862545
I            -7.0667855144       14.9831284035        1.9114783992
I            -7.0668328304       15.0078186107        9.3056601659
I            -7.0668267369       14.9600265014       16.6433089432
I             4.6911727212        2.7080162573        1.9115468743
I             4.6698551324        2.6956572753        9.3056729962
I             4.7112833949        2.7196888307       16.6433480358
I             2.3557126895        6.8017886021        1.8844048962
I             2.3557093056        6.8514903441        9.2414789130
I             2.3557209032        6.8004883610       16.6444746968
I            -0.0002452322       10.8797069747        1.8798041291
I            -0.0065375972       10.8759683723        9.2358744981
I             0.0000034809       10.8798041503       16.6418834604
I            -2.3538378501       14.9589765477        1.8843446752
I            -2.3103859675       14.9337620473        9.2414978104
I            -2.3549358392       14.9596115456       16.6444598709
I             9.4236598704        2.7181580936        1.8850273595
I             9.4226462715        2.7157421058        9.2680432676
I             9.4215717409        2.7187398232       16.6429389254
I             7.0661352173        6.8014846640        1.8850375606
I             7.0635143330        6.8018062566        9.2680931310
I             7.0656241164        6.7993661313       16.6429629311
I             4.7116939271       10.8797159838        1.8798693373
I             4.7179585371       10.8760381267        9.2360416048
I             4.7115003218       10.8798288726       16.6419314877
I             2.3557334303       14.9603545836        1.8798450266
I             2.3557659736       14.9676496243        9.2359718709
I             2.3557737083       14.9600774390       16.6419069077
I            14.1329128892        2.7181641493        1.8850465396
I            14.1339280557        2.7157536316        9.2680414539
I            14.1350360535        2.7187419421       16.6429101081
I            11.7782983031        6.7998368950        1.8847508193
I            11.7782815526        6.7998236513        9.2591007122
I            11.7782916642        6.7997966091       16.6469386282
I             9.4207838283       10.8798177272        1.8849972779
I             9.4191657056       10.8818982556        9.2680805908
I             9.4223512708       10.8813316675       16.6429217396
I             7.0653057821       14.9590047663        1.8844197777
I             7.0220905730       14.9339244605        9.2415178830
I             7.0664186755       14.9596307050       16.6444637900
End final coordinates



     Writing all to output data dir ./PbI2.save/
 
     init_run     :     33.69s CPU     35.28s WALL (       1 calls)
     electrons    :   3917.55s CPU   3970.75s WALL (       1 calls)
     forces       :     20.00s CPU     20.71s WALL (       1 calls)
     stress       :    365.63s CPU    368.62s WALL (       1 calls)

     Called by init_run:
     wfcinit      :     26.78s CPU     27.67s WALL (       1 calls)
     wfcinit:atom :      0.06s CPU      0.12s WALL (       1 calls)
     wfcinit:wfcr :     25.95s CPU     26.52s WALL (       1 calls)
     potinit      :      1.72s CPU      1.98s WALL (       1 calls)
     hinit0       :      1.16s CPU      1.26s WALL (       1 calls)

     Called by electrons:
     c_bands      :   3879.53s CPU   3929.95s WALL (       4 calls)
     sum_band     :     29.64s CPU     31.08s WALL (       4 calls)
     v_of_rho     :      3.27s CPU      3.50s WALL (       4 calls)
     v_h          :      0.04s CPU      0.04s WALL (       4 calls)
     v_xc         :      4.81s CPU      5.06s WALL (       6 calls)
     newd         :      2.11s CPU      2.96s WALL (       4 calls)
     PAW_pot      :      2.21s CPU      2.24s WALL (       4 calls)
     mix_rho      :      0.06s CPU      0.07s WALL (       4 calls)
     vdW_kernel   :      0.24s CPU      0.25s WALL (       1 calls)

     Called by c_bands:
     init_us_2    :      0.99s CPU      1.14s WALL (       9 calls)
     init_us_2:cp :      0.99s CPU      1.14s WALL (       9 calls)
     cegterg      :   3877.36s CPU   3925.86s WALL (       6 calls)

     Called by sum_band:
     sum_band:wei :      0.00s CPU      0.00s WALL (       4 calls)
     sum_band:loo :     27.42s CPU     27.63s WALL (       4 calls)
     sum_band:buf :      0.00s CPU      0.00s WALL (       4 calls)
     sum_band:ini :      0.66s CPU      0.67s WALL (       4 calls)
     sum_band:cal :     15.52s CPU     15.65s WALL (       4 calls)
     sum_band:bec :      0.14s CPU      0.14s WALL (       4 calls)
     addusdens    :      2.02s CPU      3.05s WALL (       4 calls)
     addusd:skk   :      0.11s CPU      0.39s WALL (       8 calls)
     addusd:dgemm :      1.12s CPU      1.86s WALL (       8 calls)
     addusd:qvan2 :      0.73s CPU      0.74s WALL (       8 calls)

     Called by *egterg:
     cdiaghg      :   3008.49s CPU   3033.25s WALL (     109 calls)
     cegterg:over :    202.26s CPU    206.91s WALL (     105 calls)
     cegterg:upda :    128.85s CPU    130.67s WALL (     105 calls)
     cegterg:last :     96.77s CPU     97.56s WALL (       9 calls)
     h_psi        :    328.38s CPU    333.21s WALL (     112 calls)
     s_psi        :     94.46s CPU     96.07s WALL (     112 calls)
     g_psi        :      0.51s CPU      0.51s WALL (     105 calls)

     Called by h_psi:
     h_psi:calbec :    101.10s CPU    101.95s WALL (     112 calls)
     vloc_psi     :    130.92s CPU    132.04s WALL (     112 calls)
     add_vuspsi   :     94.53s CPU     96.30s WALL (     112 calls)

     General routines
     calbec       :    136.06s CPU    137.21s WALL (     121 calls)
     fft          :      3.34s CPU      3.44s WALL (     420 calls)
     ffts         :      0.07s CPU      0.08s WALL (       8 calls)
     fftw         :    135.35s CPU    136.46s WALL (   73032 calls)
     interpolate  :      0.08s CPU      0.08s WALL (       4 calls)
 
     Parallel routines

     PAW routines
     PAW_pot      :      2.21s CPU      2.24s WALL (       4 calls)
 
     PWSCF        :      1h12m CPU      1h13m WALL

 
   This run was terminated on:  10:32:23  22Mar2024            

=------------------------------------------------------------------------------=
   JOB DONE.
=------------------------------------------------------------------------------=
