
     Program PWSCF v.7.1 starts on 28Mar2024 at  6:24:26 

     This program is part of the open-source Quantum ESPRESSO suite
     for quantum simulation of materials; please cite
         "P. Giannozzi et al., J. Phys.:Condens. Matter 21 395502 (2009);
         "P. Giannozzi et al., J. Phys.:Condens. Matter 29 465901 (2017);
         "P. Giannozzi et al., J. Chem. Phys. 152 154105 (2020);
          URL http://www.quantum-espresso.org", 
     in publications or presentations arising from this work. More details at
     http://www.quantum-espresso.org/quote

     Parallel version (MPI & OpenMP), running on      27 processor cores
     Number of MPI processes:                27
     Threads/MPI process:                     1

     MPI processes distributed on     1 nodes
     1971633 MiB available memory on the printing compute node when the environment starts
 
     Reading input from espresso.pwi
Warning: card &CELL ignored
Warning: card    CELL_DYNAMICS    = 'BFGS' ignored
Warning: card / ignored

     Current dimensions of program PWSCF are:
     Max number of different atomic species (ntypx) = 10
     Max number of k-points (npk) =  40000
     Max angular momentum in pseudopotentials (lmaxx) =  4
     file Ga.pbe-dn-kjpaw_psl.1.0.0.UPF: wavefunction(s)  4S renormalized
     file N.pbe-n-kjpaw_psl.1.0.0.UPF: wavefunction(s)  2S renormalized

     **************************************************************************
     Initializing libbeef V0.1.2 with the BEEF-vdW functional.
     Citation: Wellendorff et al., PRB 85, 235149 (2012).
     **************************************************************************


     IMPORTANT: XC functional enforced from input :
     Exchange-correlation= BEEF-VDW
                           (   1   4  43  14   2   0   0)
     Any further DFT definition will be discarded
     Please, verify this is what you really want

 
     R & G space division:  proc/nbgrp/npool/nimage =      27
     Subspace diagonalization in iterative solution of the eigenvalue problem:
     a serial algorithm will be used

 
     Parallelization info
     --------------------
     sticks:   dense  smooth     PW     G-vecs:    dense   smooth      PW
     Min         134     107     28                10662     7629    1068
     Max         135     108     29                10667     7636    1077
     Sum        3643    2905    769               287969   206075   28939
 
     Using Slab Decomposition
 


     bravais-lattice index     =            4
     lattice parameter (alat)  =      12.2626  a.u.
     unit-cell volume          =    2602.7676 (a.u.)^3
     number of atoms/cell      =           31
     number of atomic types    =            2
     number of electrons       =       282.00
     number of Kohn-Sham states=          169
     kinetic-energy cutoff     =      70.0000  Ry
     charge density cutoff     =     350.0000  Ry
     scf convergence threshold =      1.0E-07
     mixing beta               =       0.7000
     number of iterations used =            8  plain     mixing
     Exchange-correlation= BEEF-VDW
                           (   1   4  43  14   2   0   0)

     celldm(1)=  12.262616  celldm(2)=   0.000000  celldm(3)=   1.629879
     celldm(4)=   0.000000  celldm(5)=   0.000000  celldm(6)=   0.000000

     crystal axes: (cart. coord. in units of alat)
               a(1) = (   1.000000   0.000000   0.000000 )  
               a(2) = (  -0.500000   0.866025   0.000000 )  
               a(3) = (   0.000000   0.000000   1.629879 )  

     reciprocal axes: (cart. coord. in units 2 pi/alat)
               b(1) = (  1.000000  0.577350 -0.000000 )  
               b(2) = (  0.000000  1.154701  0.000000 )  
               b(3) = (  0.000000 -0.000000  0.613542 )  


     PseudoPot. # 1 for Ga read from file:
     /trace/group/acmegroup/atimmins/packages/espresso/pseudo/psl_1.0.0/pslibrary.1.0.0/pbe/PSEUDOPOTENTIALS/Ga.pbe-dn-kjpaw_psl.1.0.0.UPF
     MD5 check sum: cd2a01e492f15b435d17032472d8505c
     Pseudo is Projector augmented-wave + core cor, Zval = 13.0
     Generated using 'atomic' code by A. Dal Corso  v.7.1
     Shape of augmentation charge: PSQ
     Using radial grid of 1205 points,  6 beta functions with: 
                l(1) =   0
                l(2) =   0
                l(3) =   1
                l(4) =   1
                l(5) =   2
                l(6) =   2
     Q(r) pseudized with 0 coefficients 


     PseudoPot. # 2 for N  read from file:
     /trace/group/acmegroup/atimmins/packages/espresso/pseudo/psl_1.0.0/pslibrary.1.0.0/pbe/PSEUDOPOTENTIALS/N.pbe-n-kjpaw_psl.1.0.0.UPF
     MD5 check sum: f77f775694dac7e2c3fe1c82443d1a16
     Pseudo is Projector augmented-wave + core cor, Zval =  5.0
     Generated using 'atomic' code by A. Dal Corso  v.7.1
     Shape of augmentation charge: PSQ
     Using radial grid of 1085 points,  4 beta functions with: 
                l(1) =   0
                l(2) =   0
                l(3) =   1
                l(4) =   1
     Q(r) pseudized with 0 coefficients 


     atomic species   valence    mass     pseudopotential
        Ga            13.00    69.72300     Ga( 1.00)
        N              5.00    14.00700     N ( 1.00)

      6 Sym. Ops. (no inversion) found ( 4 have fractional translation)


                                    s                        frac. trans.

      isym =  1     identity                                     

 cryst.   s( 1) = (     1          0          0      )
                  (     0          1          0      )
                  (     0          0          1      )

 cart.    s( 1) = (  1.0000000  0.0000000  0.0000000 )
                  (  0.0000000  1.0000000  0.0000000 )
                  (  0.0000000  0.0000000  1.0000000 )


      isym =  2     120 deg rotation - cryst. axis [0,0,1]       

 cryst.   s( 2) = (     0          1          0      )    f =(  0.4999999 )
                  (    -1         -1          0      )       (  0.0000004 )
                  (     0          0          1      )       (  0.0000000 )

 cart.    s( 2) = ( -0.5000000 -0.8660254  0.0000000 )    f =(  0.4999998 )
                  (  0.8660254 -0.5000000  0.0000000 )       (  0.0000003 )
                  (  0.0000000  0.0000000  1.0000000 )       (  0.0000000 )


      isym =  3     120 deg rotation - cryst. axis [0,0,-1]      

 cryst.   s( 3) = (    -1         -1          0      )    f =(  0.4999996 )
                  (     1          0          0      )       (  0.4999999 )
                  (     0          0          1      )       (  0.0000000 )

 cart.    s( 3) = ( -0.5000000  0.8660254  0.0000000 )    f =(  0.2499996 )
                  ( -0.8660254 -0.5000000  0.0000000 )       (  0.4330127 )
                  (  0.0000000  0.0000000  1.0000000 )       (  0.0000000 )


      isym =  4     inv. 180 deg rotation - cart. axis [1,0,0]   

 cryst.   s( 4) = (    -1          0          0      )    f =(  0.4999996 )
                  (     1          1          0      )       (  0.0000000 )
                  (     0          0          1      )       (  0.0000000 )

 cart.    s( 4) = ( -1.0000000  0.0000000  0.0000000 )    f =(  0.4999996 )
                  (  0.0000000  1.0000000  0.0000000 )       (  0.0000000 )
                  (  0.0000000  0.0000000  1.0000000 )       (  0.0000000 )


      isym =  5     inv. 180 deg rotation - cryst. axis [0,1,0]  

 cryst.   s( 5) = (     1          1          0      )
                  (     0         -1          0      )
                  (     0          0          1      )

 cart.    s( 5) = (  0.5000000  0.8660254  0.0000000 )
                  (  0.8660254 -0.5000000  0.0000000 )
                  (  0.0000000  0.0000000  1.0000000 )


      isym =  6     inv. 180 deg rotation - cryst. axis [1,1,0]  

 cryst.   s( 6) = (     0         -1          0      )    f =(  0.4999999 )
                  (    -1          0          0      )       (  0.4999999 )
                  (     0          0          1      )       (  0.0000000 )

 cart.    s( 6) = (  0.5000000 -0.8660254  0.0000000 )    f =(  0.2500000 )
                  ( -0.8660254 -0.5000000  0.0000000 )       (  0.4330127 )
                  (  0.0000000  0.0000000  1.0000000 )       (  0.0000000 )


     point group C_3v (3m)  
     there are  3 classes
     the character table:

       E     2C3   3s_v 
A_1    1.00  1.00  1.00
A_2    1.00  1.00 -1.00
E      2.00 -1.00  0.00

     the symmetry operations in each class and the name of the first element:

     E        1
          identity                                               
     2C3      2    3
          120 deg rotation - cryst. axis [0,0,1]                 
     3s_v     4    5    6
          inv. 180 deg rotation - cart. axis [1,0,0]             

   Cartesian axes

     site n.     atom                  positions (alat units)
         1           Ga  tau(   1) = (   0.2500002   0.1443375   0.4067871  )
         2           Ga  tau(   2) = (   0.2500002   0.1443375   1.2217266  )
         3           Ga  tau(   3) = (   0.0000002   0.5773502   0.4067871  )
         4           Ga  tau(   4) = (   0.0000002   0.5773502   1.2217266  )
         5           Ga  tau(   5) = (   0.7500002   0.1443375   0.4067871  )
         6           Ga  tau(   6) = (   0.7500002   0.1443375   1.2217266  )
         7           Ga  tau(   7) = (   0.5000002   0.5773502   0.4067871  )
         8           Ga  tau(   8) = (   0.5000002   0.5773502   1.2217266  )
         9           Ga  tau(   9) = (  -0.0000003   0.2886754   0.8142568  )
        10           Ga  tau(  10) = (  -0.0000003   0.2886754   1.6291964  )
        11           Ga  tau(  11) = (  -0.2500003   0.7216881   0.8142568  )
        12           Ga  tau(  12) = (  -0.2500003   0.7216881   1.6291964  )
        13           Ga  tau(  13) = (   0.4999997   0.2886754   0.8142568  )
        14           Ga  tau(  14) = (   0.4999997   0.2886754   1.6291964  )
        15           Ga  tau(  15) = (   0.2499997   0.7216881   0.8142568  )
        16           Ga  tau(  16) = (   0.2499997   0.7216881   1.6291964  )
        17           N   tau(  17) = (   0.2500002   0.1443375   1.5286943  )
        18           N   tau(  18) = (   0.0000002   0.5773502   0.7137548  )
        19           N   tau(  19) = (   0.0000002   0.5773502   1.5286943  )
        20           N   tau(  20) = (   0.7500002   0.1443375   0.7137548  )
        21           N   tau(  21) = (   0.7500002   0.1443375   1.5286943  )
        22           N   tau(  22) = (   0.5000002   0.5773502   0.7137548  )
        23           N   tau(  23) = (   0.5000002   0.5773502   1.5286943  )
        24           N   tau(  24) = (  -0.0000003   0.2886754   0.3062850  )
        25           N   tau(  25) = (  -0.0000003   0.2886754   1.1212245  )
        26           N   tau(  26) = (  -0.2500003   0.7216881   0.3062850  )
        27           N   tau(  27) = (  -0.2500003   0.7216881   1.1212245  )
        28           N   tau(  28) = (   0.4999997   0.2886754   0.3062850  )
        29           N   tau(  29) = (   0.4999997   0.2886754   1.1212245  )
        30           N   tau(  30) = (   0.2499997   0.7216881   0.3062850  )
        31           N   tau(  31) = (   0.2499997   0.7216881   1.1212245  )

   Crystallographic axes

     site n.     atom                  positions (cryst. coord.)
         1           Ga  tau(   1) = (  0.3333335  0.1666666  0.2495811  )
         2           Ga  tau(   2) = (  0.3333335  0.1666666  0.7495811  )
         3           Ga  tau(   3) = (  0.3333335  0.6666666  0.2495811  )
         4           Ga  tau(   4) = (  0.3333335  0.6666666  0.7495811  )
         5           Ga  tau(   5) = (  0.8333335  0.1666666  0.2495811  )
         6           Ga  tau(   6) = (  0.8333335  0.1666666  0.7495811  )
         7           Ga  tau(   7) = (  0.8333335  0.6666666  0.2495811  )
         8           Ga  tau(   8) = (  0.8333335  0.6666666  0.7495811  )
         9           Ga  tau(   9) = (  0.1666665  0.3333336  0.4995811  )
        10           Ga  tau(  10) = (  0.1666665  0.3333336  0.9995811  )
        11           Ga  tau(  11) = (  0.1666665  0.8333336  0.4995811  )
        12           Ga  tau(  12) = (  0.1666665  0.8333336  0.9995811  )
        13           Ga  tau(  13) = (  0.6666665  0.3333336  0.4995811  )
        14           Ga  tau(  14) = (  0.6666665  0.3333336  0.9995811  )
        15           Ga  tau(  15) = (  0.6666665  0.8333336  0.4995811  )
        16           Ga  tau(  16) = (  0.6666665  0.8333336  0.9995811  )
        17           N   tau(  17) = (  0.3333335  0.1666666  0.9379189  )
        18           N   tau(  18) = (  0.3333335  0.6666666  0.4379189  )
        19           N   tau(  19) = (  0.3333335  0.6666666  0.9379189  )
        20           N   tau(  20) = (  0.8333335  0.1666666  0.4379189  )
        21           N   tau(  21) = (  0.8333335  0.1666666  0.9379189  )
        22           N   tau(  22) = (  0.8333335  0.6666666  0.4379189  )
        23           N   tau(  23) = (  0.8333335  0.6666666  0.9379189  )
        24           N   tau(  24) = (  0.1666665  0.3333336  0.1879189  )
        25           N   tau(  25) = (  0.1666665  0.3333336  0.6879189  )
        26           N   tau(  26) = (  0.1666665  0.8333336  0.1879189  )
        27           N   tau(  27) = (  0.1666665  0.8333336  0.6879189  )
        28           N   tau(  28) = (  0.6666665  0.3333336  0.1879189  )
        29           N   tau(  29) = (  0.6666665  0.3333336  0.6879189  )
        30           N   tau(  30) = (  0.6666665  0.8333336  0.1879189  )
        31           N   tau(  31) = (  0.6666665  0.8333336  0.6879189  )

     number of k points=     8  Gaussian smearing, width (Ry)=  0.0100
                       cart. coord. in units 2pi/alat
        k(    1) = (   0.0000000   0.0000000   0.0000000), wk =   0.0625000
        k(    2) = (   0.0000000   0.0000000  -0.3067712), wk =   0.0625000
        k(    3) = (   0.0000000   0.2886751   0.0000000), wk =   0.3750000
        k(    4) = (   0.0000000   0.2886751  -0.3067712), wk =   0.3750000
        k(    5) = (   0.0000000  -0.5773503   0.0000000), wk =   0.1875000
        k(    6) = (   0.0000000  -0.5773503  -0.3067712), wk =   0.1875000
        k(    7) = (   0.2500000   0.4330127   0.0000000), wk =   0.3750000
        k(    8) = (   0.2500000   0.4330127  -0.3067712), wk =   0.3750000

                       cryst. coord.
        k(    1) = (   0.0000000   0.0000000   0.0000000), wk =   0.0625000
        k(    2) = (   0.0000000   0.0000000  -0.5000000), wk =   0.0625000
        k(    3) = (   0.0000000   0.2500000   0.0000000), wk =   0.3750000
        k(    4) = (   0.0000000   0.2500000  -0.5000000), wk =   0.3750000
        k(    5) = (   0.0000000  -0.5000000   0.0000000), wk =   0.1875000
        k(    6) = (   0.0000000  -0.5000000  -0.5000000), wk =   0.1875000
        k(    7) = (   0.2500000   0.2500000   0.0000000), wk =   0.3750000
        k(    8) = (   0.2500000   0.2500000  -0.5000000), wk =   0.3750000

     Dense  grid:   287969 G-vectors     FFT dimensions: (  80,  80, 120)

     Smooth grid:   206075 G-vectors     FFT dimensions: (  72,  72, 108)

     Dynamical RAM for                 wfc:       2.46 MB

     Dynamical RAM for     wfc (w. buffer):      22.12 MB

     Dynamical RAM for           str. fact:       0.33 MB

     Dynamical RAM for           local pot:       0.00 MB

     Dynamical RAM for          nlocal pot:       5.93 MB

     Dynamical RAM for                qrad:       3.00 MB

     Dynamical RAM for          rho,v,vnew:       1.22 MB

     Dynamical RAM for               rhoin:       0.41 MB

     Dynamical RAM for            rho*nmix:       2.60 MB

     Dynamical RAM for           G-vectors:       0.67 MB

     Dynamical RAM for          h,s,v(r/c):      20.92 MB

     Dynamical RAM for          <psi|beta>:       1.05 MB

     Dynamical RAM for                 psi:       9.83 MB

     Dynamical RAM for                hpsi:       9.83 MB

     Dynamical RAM for                spsi:       9.83 MB

     Dynamical RAM for      wfcinit/wfcrot:       5.57 MB

     Dynamical RAM for           addusdens:      32.88 MB

     Dynamical RAM for          addusforce:      37.91 MB

     Dynamical RAM for         addusstress:      32.72 MB

     Estimated static dynamical RAM per process >      35.38 MB

     Estimated max dynamical RAM per process >      89.45 MB

     Estimated total dynamical RAM >       2.36 GB

     Atomic positions and unit cell read from directory:
     ./GaN.save/
     Atomic positions from file used, from input discarded
 

     Check: negative core charge=   -0.000003

     The initial density is read from file :
     ./GaN.save/charge-density



     %%%%%%%%%%%%%%%%%%%%%%%%%%%%%%%%%%%%%%%%%%%%%%%%%%%%%%%%%%%%%%%%%%%%%%%%
     %                                                                      %
     % You are using vdW-DF, which was implemented by the Thonhauser group. %
     % Please cite the following two papers that made this development      %
     % possible and the two reviews that describe the various versions:     %
     %                                                                      %
     %   T. Thonhauser et al., PRL 115, 136402 (2015).                      %
     %   T. Thonhauser et al., PRB 76, 125112 (2007).                       %
     %   K. Berland et al., Rep. Prog. Phys. 78, 066501 (2015).             %
     %   D.C. Langreth et al., J. Phys.: Condens. Matter 21, 084203 (2009). %
     %                                                                      %
     % If you are calculating stress with vdW-DF, please also cite:         %
     %                                                                      %
     %   R. Sabatini et al., J. Phys.: Condens. Matter 24, 424209 (2012).   %
     %                                                                      %
     %%%%%%%%%%%%%%%%%%%%%%%%%%%%%%%%%%%%%%%%%%%%%%%%%%%%%%%%%%%%%%%%%%%%%%%%

     %%%%%%%%%%%%%%%%%%%%%%%%%%%%%%%%%%%%%%%%%%%%%%%%%%%%%%%%%%%%%%%%%%%%%%%%
     %                                                                      %
     %  vdW-DF NEWS:                                                        %
     %                                                                      %
     %  * vdW-DF3 is now available. DOI: 10.1021/acs.jctc.0c00471           %
     %    use with input_dft = 'vdW-DF3-opt1' or 'vdW-DF3-opt2'             %
     %                                                                      %
     %  * Unscreened and range-separated vdW-DF hybrid functionals          %
     %    DOI: 10.1063/1.4986522 and 10.1088/1361-648X/ac2ad2               %
     %    use with input_dft = 'vdW-DF-cx0' (etc) and 'vdW-DF-ahcx'         %
     %                                                                      %
     %%%%%%%%%%%%%%%%%%%%%%%%%%%%%%%%%%%%%%%%%%%%%%%%%%%%%%%%%%%%%%%%%%%%%%%%


     Carrying out vdW-DF run using the following parameters:
     Nqs    =  20  Npoints =  1024  r_max =  100.000
     q_mesh =  0.00001000  0.04494208  0.09755937  0.15916263
               0.23128650  0.31572767  0.41458969  0.53033537
               0.66584808  0.82450364  1.01025438  1.22772762
               1.48234092  1.78043706  2.12944203  2.53805004
               3.01644009  3.57652955  4.23227104  5.00000000


     -----------------------------------------------
     Non-local corr. energy    =       8.65319770 Ry
     -----------------------------------------------

     Starting wfcs from file
     Checking if some PAW data can be deallocated... 
       PAW data deallocated on   15 nodes for type:  1
       PAW data deallocated on   12 nodes for type:  2

     total cpu time spent up to now is        6.3 secs

     Self-consistent Calculation

     iteration #  1     ecut=    70.00 Ry     beta= 0.70
     Davidson diagonalization with overlap

---- Real-time Memory Report at c_bands before calling an iterative solver
           257 MiB given to the printing process from OS
             0 MiB allocation reported by mallinfo(arena+hblkhd)
       1969490 MiB available memory on the node where the printing process lives
------------------
     ethr =  1.00E-05,  avg # of iterations =  1.0

     Threshold (ethr) on eigenvalues was too large:
     Diagonalizing with lowered threshold

     Davidson diagonalization with overlap

---- Real-time Memory Report at c_bands before calling an iterative solver
           308 MiB given to the printing process from OS
             0 MiB allocation reported by mallinfo(arena+hblkhd)
       1968243 MiB available memory on the node where the printing process lives
------------------
     ethr =  2.04E-13,  avg # of iterations =  8.9


     -----------------------------------------------
     Non-local corr. energy    =       8.65319880 Ry
     -----------------------------------------------


     total cpu time spent up to now is       28.1 secs

     End of self-consistent calculation

          k = 0.0000 0.0000 0.0000 ( 25781 PWs)   bands (ev):

    -7.0440  -6.7786  -6.7410  -6.7211  -6.7211  -6.6233  -6.6232  -6.5789
    -6.5731  -6.5731  -6.5208  -6.4811  -6.4346  -6.4205  -6.4205  -5.7732
    -5.7732  -5.7473  -5.7056  -5.7056  -5.7024  -5.6902  -5.6902  -5.6743
    -5.6533  -5.6532  -5.6513  -5.6347  -5.5815  -5.5815  -5.5528  -5.5528
    -5.4842  -5.4800  -5.4800  -5.3477  -5.3380  -5.3380  -5.3104  -5.3104
    -5.3017  -5.3017  -5.2977  -5.2923  -5.2923  -5.2740  -5.2721  -5.2721
    -5.2627  -5.2627  -5.2432  -5.2357  -5.2282  -5.2282  -5.2122  -5.2118
    -5.2118  -5.1893  -5.1893  -5.1630  -5.1630  -5.1624  -5.1481  -5.1419
    -5.1419  -5.1389  -5.1389  -5.1298  -5.1298  -5.1260  -5.1260  -5.1101
    -5.1076  -5.0880  -5.0878  -5.0878  -5.0706  -5.0706  -5.0542  -5.0198
    -5.0198  -4.9477  -4.8424  -3.8472  -3.8472  -3.7446  -3.6007  -3.5615
    -3.5615  -3.5383  -3.5383  -3.4687  -3.2070  -3.1970  -3.1970   1.9269
     2.2256   2.2653   2.2892   2.2892   2.4104   2.4108   2.4108   2.6804
     2.6804   3.2020   3.6490   3.6491   4.3064   4.6461   4.6461   4.7316
     5.2571   5.9741   6.1586   6.1587   6.3813   6.5266   6.5266   6.6778
     6.7180   6.7246   6.7246   6.7425   6.7613   6.7614   6.7960   6.7960
     7.1294   7.1295   7.3750   7.5707   7.5707   7.6045   7.8979   7.8980
     8.0653   8.0654   8.2041   8.5086   8.5087  10.6366  11.1339  12.4121
    12.4122  12.5492  12.6216  12.8380  12.9759  12.9760  13.1051  13.1051
    13.2549  13.5650  13.7214  13.7214  13.8637  14.3134  14.3134  14.8671
    14.8671  15.3016  16.0984  16.1291  16.1292  16.3214  16.3829  16.3830
    16.7430

     occupation numbers 
     1.0000   1.0000   1.0000   1.0000   1.0000   1.0000   1.0000   1.0000
     1.0000   1.0000   1.0000   1.0000   1.0000   1.0000   1.0000   1.0000
     1.0000   1.0000   1.0000   1.0000   1.0000   1.0000   1.0000   1.0000
     1.0000   1.0000   1.0000   1.0000   1.0000   1.0000   1.0000   1.0000
     1.0000   1.0000   1.0000   1.0000   1.0000   1.0000   1.0000   1.0000
     1.0000   1.0000   1.0000   1.0000   1.0000   1.0000   1.0000   1.0000
     1.0000   1.0000   1.0000   1.0000   1.0000   1.0000   1.0000   1.0000
     1.0000   1.0000   1.0000   1.0000   1.0000   1.0000   1.0000   1.0000
     1.0000   1.0000   1.0000   1.0000   1.0000   1.0000   1.0000   1.0000
     1.0000   1.0000   1.0000   1.0000   1.0000   1.0000   1.0000   1.0000
     1.0000   1.0000   1.0000   1.0000   1.0000   1.0000   1.0000   1.0000
     1.0000   1.0000   1.0000   1.0000   1.0000   1.0000   1.0000   1.0000
     1.0000   1.0000   1.0000   1.0000   1.0000   1.0000   1.0000   1.0000
     1.0000   1.0000   1.0000   1.0000   1.0000   1.0000   1.0000   1.0000
     1.0000   1.0000   1.0000   1.0000   1.0000   1.0000   1.0000   1.0000
     1.0000   1.0000   1.0000   1.0000   1.0000   1.0000   1.0000   1.0000
     1.0000   1.0000   1.0000   1.0000   1.0000   1.0000   1.0000   1.0000
     1.0000   1.0000   1.0000   1.0000   1.0000   0.0000   0.0000   0.0000
     0.0000   0.0000   0.0000   0.0000   0.0000   0.0000   0.0000   0.0000
     0.0000   0.0000   0.0000   0.0000   0.0000   0.0000   0.0000   0.0000
     0.0000   0.0000   0.0000   0.0000   0.0000   0.0000   0.0000   0.0000
     0.0000

          k = 0.0000 0.0000-0.3068 ( 25758 PWs)   bands (ev):

    -6.9579  -6.9070  -6.7191  -6.7191  -6.7187  -6.6151  -6.6151  -6.5833
    -6.5833  -6.5665  -6.5148  -6.4907  -6.4326  -6.4211  -6.4211  -5.7731
    -5.7731  -5.7470  -5.7051  -5.7051  -5.6992  -5.6894  -5.6894  -5.6743
    -5.6539  -5.6539  -5.6522  -5.6347  -5.5813  -5.5813  -5.5527  -5.5527
    -5.4807  -5.4807  -5.4688  -5.3376  -5.3376  -5.3341  -5.3117  -5.3117
    -5.2957  -5.2956  -5.2860  -5.2827  -5.2827  -5.2795  -5.2755  -5.2755
    -5.2642  -5.2627  -5.2627  -5.2415  -5.2415  -5.2342  -5.2277  -5.2184
    -5.2184  -5.2065  -5.1899  -5.1899  -5.1643  -5.1587  -5.1587  -5.1446
    -5.1439  -5.1439  -5.1356  -5.1356  -5.1272  -5.1272  -5.1247  -5.1246
    -5.1075  -5.1066  -5.0884  -5.0883  -5.0883  -5.0709  -5.0709  -5.0543
    -5.0200  -5.0200  -4.2061  -4.1267  -3.8304  -3.8304  -3.6804  -3.6804
    -3.6374  -3.4575  -3.3824  -3.3823  -3.2481  -3.2481  -3.2116   2.0507
     2.2098   2.2099   2.2279   2.3849   2.3850   2.4497   2.8660   2.9335
     2.9649   2.9650   3.1729   3.2676   3.2677   5.0476   5.4263   5.4264
     5.5351   5.5351   6.0106   6.0950   6.1132   6.2535   6.2536   6.2690
     6.4956   6.4956   6.9519   6.9519   7.0007   7.0445   7.0711   7.0711
     7.2652   7.3714   7.3714   7.3897   7.4679   7.4680   7.7850   7.7851
     8.0582   8.1624   8.1625   8.4796   8.4797  10.4437  11.7133  12.1631
    12.2797  12.2798  12.6759  12.7011  12.8709  12.8709  13.0957  13.4070
    13.4070  13.5279  13.6825  13.6825  13.7955  13.7956  14.0730  15.6705
    15.9074  15.9188  15.9188  16.0019  16.0019  16.1585  16.1589  16.1589
    16.7294

     occupation numbers 
     1.0000   1.0000   1.0000   1.0000   1.0000   1.0000   1.0000   1.0000
     1.0000   1.0000   1.0000   1.0000   1.0000   1.0000   1.0000   1.0000
     1.0000   1.0000   1.0000   1.0000   1.0000   1.0000   1.0000   1.0000
     1.0000   1.0000   1.0000   1.0000   1.0000   1.0000   1.0000   1.0000
     1.0000   1.0000   1.0000   1.0000   1.0000   1.0000   1.0000   1.0000
     1.0000   1.0000   1.0000   1.0000   1.0000   1.0000   1.0000   1.0000
     1.0000   1.0000   1.0000   1.0000   1.0000   1.0000   1.0000   1.0000
     1.0000   1.0000   1.0000   1.0000   1.0000   1.0000   1.0000   1.0000
     1.0000   1.0000   1.0000   1.0000   1.0000   1.0000   1.0000   1.0000
     1.0000   1.0000   1.0000   1.0000   1.0000   1.0000   1.0000   1.0000
     1.0000   1.0000   1.0000   1.0000   1.0000   1.0000   1.0000   1.0000
     1.0000   1.0000   1.0000   1.0000   1.0000   1.0000   1.0000   1.0000
     1.0000   1.0000   1.0000   1.0000   1.0000   1.0000   1.0000   1.0000
     1.0000   1.0000   1.0000   1.0000   1.0000   1.0000   1.0000   1.0000
     1.0000   1.0000   1.0000   1.0000   1.0000   1.0000   1.0000   1.0000
     1.0000   1.0000   1.0000   1.0000   1.0000   1.0000   1.0000   1.0000
     1.0000   1.0000   1.0000   1.0000   1.0000   1.0000   1.0000   1.0000
     1.0000   1.0000   1.0000   1.0000   1.0000   0.0000   0.0000   0.0000
     0.0000   0.0000   0.0000   0.0000   0.0000   0.0000   0.0000   0.0000
     0.0000   0.0000   0.0000   0.0000   0.0000   0.0000   0.0000   0.0000
     0.0000   0.0000   0.0000   0.0000   0.0000   0.0000   0.0000   0.0000
     0.0000

          k = 0.0000 0.2887 0.0000 ( 25764 PWs)   bands (ev):

    -6.9533  -6.7493  -6.7252  -6.7140  -6.6939  -6.6306  -6.6190  -6.5802
    -6.5689  -6.5530  -6.5169  -6.4797  -6.4385  -6.4229  -6.4164  -5.7829
    -5.7629  -5.7341  -5.7129  -5.7039  -5.6917  -5.6899  -5.6844  -5.6809
    -5.6618  -5.6578  -5.6497  -5.6438  -5.5837  -5.5742  -5.5461  -5.5302
    -5.5070  -5.4870  -5.4362  -5.3399  -5.3207  -5.3201  -5.3079  -5.3017
    -5.2951  -5.2931  -5.2880  -5.2867  -5.2796  -5.2774  -5.2666  -5.2645
    -5.2579  -5.2549  -5.2456  -5.2394  -5.2325  -5.2270  -5.2186  -5.2135
    -5.2060  -5.1945  -5.1888  -5.1786  -5.1763  -5.1703  -5.1607  -5.1596
    -5.1490  -5.1479  -5.1454  -5.1434  -5.1354  -5.1348  -5.1289  -5.1223
    -5.1180  -5.1022  -5.1003  -5.0960  -5.0862  -5.0769  -5.0689  -5.0351
    -5.0303  -4.8067  -4.7233  -4.2900  -3.9217  -3.8814  -3.8494  -3.7057
    -3.5730  -3.5677  -3.5488  -3.5018  -3.1924  -3.1007  -3.0769   2.0997
     2.3601   2.5396   2.5656   2.6163   2.6572   2.8127   2.8930   2.9036
     2.9590   3.4079   3.8381   3.8570   4.3651   4.5803   4.6286   4.7101
     5.1690   5.5162   5.6282   6.0005   6.0410   6.0477   6.2444   6.3524
     6.5392   6.6459   6.6476   6.6679   6.8505   6.9024   6.9317   6.9452
     6.9968   7.0779   7.0901   7.1665   7.1679   7.3046   7.3548   7.5343
     7.7809   7.8438   8.0669   8.1487   8.3593  11.1700  11.3117  11.8123
    12.1885  13.1833  13.2365  13.3383  13.4202  13.5026  13.6040  13.6664
    13.7253  13.9406  14.0578  14.3441  14.5896  14.6856  14.7693  15.0533
    15.0730  15.4418  16.1296  16.2175  16.3080  16.3370  16.4082  16.4694
    16.4817

     occupation numbers 
     1.0000   1.0000   1.0000   1.0000   1.0000   1.0000   1.0000   1.0000
     1.0000   1.0000   1.0000   1.0000   1.0000   1.0000   1.0000   1.0000
     1.0000   1.0000   1.0000   1.0000   1.0000   1.0000   1.0000   1.0000
     1.0000   1.0000   1.0000   1.0000   1.0000   1.0000   1.0000   1.0000
     1.0000   1.0000   1.0000   1.0000   1.0000   1.0000   1.0000   1.0000
     1.0000   1.0000   1.0000   1.0000   1.0000   1.0000   1.0000   1.0000
     1.0000   1.0000   1.0000   1.0000   1.0000   1.0000   1.0000   1.0000
     1.0000   1.0000   1.0000   1.0000   1.0000   1.0000   1.0000   1.0000
     1.0000   1.0000   1.0000   1.0000   1.0000   1.0000   1.0000   1.0000
     1.0000   1.0000   1.0000   1.0000   1.0000   1.0000   1.0000   1.0000
     1.0000   1.0000   1.0000   1.0000   1.0000   1.0000   1.0000   1.0000
     1.0000   1.0000   1.0000   1.0000   1.0000   1.0000   1.0000   1.0000
     1.0000   1.0000   1.0000   1.0000   1.0000   1.0000   1.0000   1.0000
     1.0000   1.0000   1.0000   1.0000   1.0000   1.0000   1.0000   1.0000
     1.0000   1.0000   1.0000   1.0000   1.0000   1.0000   1.0000   1.0000
     1.0000   1.0000   1.0000   1.0000   1.0000   1.0000   1.0000   1.0000
     1.0000   1.0000   1.0000   1.0000   1.0000   1.0000   1.0000   1.0000
     1.0000   1.0000   1.0000   1.0000   1.0000   0.0000   0.0000   0.0000
     0.0000   0.0000   0.0000   0.0000   0.0000   0.0000   0.0000   0.0000
     0.0000   0.0000   0.0000   0.0000   0.0000   0.0000   0.0000   0.0000
     0.0000   0.0000   0.0000   0.0000   0.0000   0.0000   0.0000   0.0000
     0.0000

          k = 0.0000 0.2887-0.3068 ( 25732 PWs)   bands (ev):

    -6.8901  -6.8239  -6.7258  -6.7123  -6.6926  -6.6185  -6.6102  -6.5953
    -6.5794  -6.5425  -6.5123  -6.4892  -6.4368  -6.4231  -6.4172  -5.7827
    -5.7628  -5.7339  -5.7124  -5.7037  -5.6910  -5.6899  -5.6819  -5.6810
    -5.6626  -5.6586  -5.6501  -5.6437  -5.5837  -5.5738  -5.5460  -5.5327
    -5.5045  -5.4876  -5.4293  -5.3378  -5.3204  -5.3200  -5.3023  -5.3013
    -5.2928  -5.2916  -5.2876  -5.2801  -5.2788  -5.2754  -5.2666  -5.2655
    -5.2569  -5.2514  -5.2456  -5.2413  -5.2349  -5.2296  -5.2221  -5.2160
    -5.2040  -5.1928  -5.1851  -5.1781  -5.1729  -5.1718  -5.1699  -5.1526
    -5.1483  -5.1456  -5.1422  -5.1415  -5.1363  -5.1337  -5.1274  -5.1272
    -5.1195  -5.1151  -5.1014  -5.0967  -5.0951  -5.0779  -5.0770  -5.0694
    -5.0333  -5.0306  -4.2416  -4.1606  -4.0667  -3.9992  -3.8875  -3.7463
    -3.7169  -3.5775  -3.3441  -3.3204  -3.2973  -3.1827  -3.1538   2.2425
     2.4032   2.4529   2.5244   2.6134   2.6729   2.7762   3.0556   3.1189
     3.1830   3.3084   3.5071   3.5344   3.6697   5.1431   5.1953   5.2065
     5.2946   5.3054   5.6107   5.7053   5.8922   5.9664   6.0857   6.2341
     6.4447   6.5243   6.5763   6.7228   6.7525   6.8350   6.8467   6.9125
     7.0855   7.1120   7.1977   7.2183   7.3096   7.3793   7.5133   7.5447
     7.6958   7.9396   7.9967   8.2608   8.3130  10.9634  11.3480  12.1015
    12.4043  12.5517  12.9264  13.2995  13.4228  13.4489  13.5117  13.6743
    13.8568  13.9736  14.1916  14.4229  14.5954  14.7395  14.8368  15.6348
    15.6919  15.7398  15.8228  15.9474  16.1067  16.2573  16.3148  16.3943
    16.5380

     occupation numbers 
     1.0000   1.0000   1.0000   1.0000   1.0000   1.0000   1.0000   1.0000
     1.0000   1.0000   1.0000   1.0000   1.0000   1.0000   1.0000   1.0000
     1.0000   1.0000   1.0000   1.0000   1.0000   1.0000   1.0000   1.0000
     1.0000   1.0000   1.0000   1.0000   1.0000   1.0000   1.0000   1.0000
     1.0000   1.0000   1.0000   1.0000   1.0000   1.0000   1.0000   1.0000
     1.0000   1.0000   1.0000   1.0000   1.0000   1.0000   1.0000   1.0000
     1.0000   1.0000   1.0000   1.0000   1.0000   1.0000   1.0000   1.0000
     1.0000   1.0000   1.0000   1.0000   1.0000   1.0000   1.0000   1.0000
     1.0000   1.0000   1.0000   1.0000   1.0000   1.0000   1.0000   1.0000
     1.0000   1.0000   1.0000   1.0000   1.0000   1.0000   1.0000   1.0000
     1.0000   1.0000   1.0000   1.0000   1.0000   1.0000   1.0000   1.0000
     1.0000   1.0000   1.0000   1.0000   1.0000   1.0000   1.0000   1.0000
     1.0000   1.0000   1.0000   1.0000   1.0000   1.0000   1.0000   1.0000
     1.0000   1.0000   1.0000   1.0000   1.0000   1.0000   1.0000   1.0000
     1.0000   1.0000   1.0000   1.0000   1.0000   1.0000   1.0000   1.0000
     1.0000   1.0000   1.0000   1.0000   1.0000   1.0000   1.0000   1.0000
     1.0000   1.0000   1.0000   1.0000   1.0000   1.0000   1.0000   1.0000
     1.0000   1.0000   1.0000   1.0000   1.0000   0.0000   0.0000   0.0000
     0.0000   0.0000   0.0000   0.0000   0.0000   0.0000   0.0000   0.0000
     0.0000   0.0000   0.0000   0.0000   0.0000   0.0000   0.0000   0.0000
     0.0000   0.0000   0.0000   0.0000   0.0000   0.0000   0.0000   0.0000
     0.0000

          k = 0.0000-0.5774 0.0000 ( 25772 PWs)   bands (ev):

    -6.8159  -6.7722  -6.7067  -6.6848  -6.6677  -6.6293  -6.6148  -6.6057
    -6.5647  -6.5343  -6.4870  -6.4834  -6.4606  -6.4216  -6.4122  -5.7913
    -5.7502  -5.7202  -5.7128  -5.7120  -5.6939  -5.6912  -5.6775  -5.6767
    -5.6667  -5.6622  -5.6555  -5.6460  -5.5848  -5.5647  -5.5394  -5.5258
    -5.5034  -5.4956  -5.4057  -5.3306  -5.3095  -5.3064  -5.3025  -5.2983
    -5.2969  -5.2949  -5.2828  -5.2751  -5.2744  -5.2628  -5.2624  -5.2460
    -5.2447  -5.2444  -5.2387  -5.2331  -5.2240  -5.2210  -5.2157  -5.2113
    -5.2017  -5.1983  -5.1945  -5.1933  -5.1833  -5.1815  -5.1736  -5.1673
    -5.1662  -5.1592  -5.1547  -5.1484  -5.1439  -5.1344  -5.1296  -5.1251
    -5.1192  -5.1150  -5.1049  -5.0925  -5.0861  -5.0814  -5.0532  -5.0387
    -4.9992  -4.8910  -4.4343  -4.4154  -4.3890  -4.2579  -3.9805  -3.7664
    -3.5738  -3.5558  -3.5116  -3.4006  -3.3129  -3.0477  -3.0234   2.2180
     2.6473   2.7226   2.8610   2.9858   3.0152   3.0995   3.1978   3.2642
     3.7647   3.9689   4.1008   4.1999   4.2594   4.7630   4.7816   4.8352
     4.8756   4.9843   5.1340   5.4239   5.4529   5.4818   5.5261   5.6019
     6.1923   6.5691   6.6036   6.6152   6.6335   6.6780   6.7012   6.7543
     6.8809   6.9232   6.9944   7.0323   7.0657   7.3137   7.3512   7.3856
     7.6056   7.8953   7.9082   8.1130   8.6197  10.2024  11.4431  12.0367
    12.8392  12.9543  13.6489  13.6860  13.9560  14.0090  14.2796  14.3280
    14.3362  14.4083  14.5777  14.6801  14.7595  15.1307  15.3186  15.8235
    15.9434  15.9701  16.0052  16.0180  16.1285  16.2181  16.3110  16.3209
    16.3706

     occupation numbers 
     1.0000   1.0000   1.0000   1.0000   1.0000   1.0000   1.0000   1.0000
     1.0000   1.0000   1.0000   1.0000   1.0000   1.0000   1.0000   1.0000
     1.0000   1.0000   1.0000   1.0000   1.0000   1.0000   1.0000   1.0000
     1.0000   1.0000   1.0000   1.0000   1.0000   1.0000   1.0000   1.0000
     1.0000   1.0000   1.0000   1.0000   1.0000   1.0000   1.0000   1.0000
     1.0000   1.0000   1.0000   1.0000   1.0000   1.0000   1.0000   1.0000
     1.0000   1.0000   1.0000   1.0000   1.0000   1.0000   1.0000   1.0000
     1.0000   1.0000   1.0000   1.0000   1.0000   1.0000   1.0000   1.0000
     1.0000   1.0000   1.0000   1.0000   1.0000   1.0000   1.0000   1.0000
     1.0000   1.0000   1.0000   1.0000   1.0000   1.0000   1.0000   1.0000
     1.0000   1.0000   1.0000   1.0000   1.0000   1.0000   1.0000   1.0000
     1.0000   1.0000   1.0000   1.0000   1.0000   1.0000   1.0000   1.0000
     1.0000   1.0000   1.0000   1.0000   1.0000   1.0000   1.0000   1.0000
     1.0000   1.0000   1.0000   1.0000   1.0000   1.0000   1.0000   1.0000
     1.0000   1.0000   1.0000   1.0000   1.0000   1.0000   1.0000   1.0000
     1.0000   1.0000   1.0000   1.0000   1.0000   1.0000   1.0000   1.0000
     1.0000   1.0000   1.0000   1.0000   1.0000   1.0000   1.0000   1.0000
     1.0000   1.0000   1.0000   1.0000   1.0000   0.0000   0.0000   0.0000
     0.0000   0.0000   0.0000   0.0000   0.0000   0.0000   0.0000   0.0000
     0.0000   0.0000   0.0000   0.0000   0.0000   0.0000   0.0000   0.0000
     0.0000   0.0000   0.0000   0.0000   0.0000   0.0000   0.0000   0.0000
     0.0000

          k = 0.0000-0.5774-0.3068 ( 25740 PWs)   bands (ev):

    -6.7987  -6.7517  -6.7053  -6.6832  -6.6641  -6.6522  -6.6307  -6.6052
    -6.5754  -6.5243  -6.4997  -6.4834  -6.4565  -6.4217  -6.4133  -5.7910
    -5.7502  -5.7200  -5.7132  -5.7120  -5.6937  -5.6916  -5.6765  -5.6761
    -5.6666  -5.6624  -5.6555  -5.6463  -5.5847  -5.5642  -5.5390  -5.5294
    -5.5018  -5.4963  -5.4058  -5.3307  -5.3080  -5.3070  -5.3049  -5.3002
    -5.2941  -5.2913  -5.2838  -5.2836  -5.2741  -5.2676  -5.2589  -5.2584
    -5.2419  -5.2409  -5.2354  -5.2327  -5.2277  -5.2228  -5.2124  -5.2095
    -5.1944  -5.1914  -5.1910  -5.1903  -5.1824  -5.1804  -5.1724  -5.1671
    -5.1668  -5.1589  -5.1558  -5.1496  -5.1433  -5.1389  -5.1292  -5.1232
    -5.1193  -5.1143  -5.1091  -5.0933  -5.0867  -5.0815  -5.0518  -5.0391
    -4.9228  -4.8164  -4.8083  -4.6939  -3.9318  -3.8699  -3.7967  -3.7743
    -3.7711  -3.6718  -3.6417  -3.3837  -3.2711  -3.1329  -3.1055   2.1739
     2.7734   2.8125   2.8948   2.9356   3.1292   3.2049   3.2250   3.3510
     3.3906   3.5954   3.7826   4.3198   4.8295   4.8790   4.9273   4.9281
     4.9850   5.0027   5.2163   5.4798   5.5449   5.5508   5.6724   5.7001
     5.8013   5.8274   6.1997   6.2161   6.3053   6.3069   6.8228   6.9196
     6.9679   7.0731   7.1193   7.2048   7.3756   7.4187   7.5029   7.6914
     7.7081   7.8202   7.8912   7.9398   8.6067  10.2858  11.4435  11.9674
    12.7712  13.0430  13.1295  13.3920  14.3185  14.3581  14.3768  14.3818
    14.4109  14.4530  14.6612  14.8006  14.9454  15.1823  15.1991  15.7266
    15.8185  15.8590  16.0561  16.1443  16.1844  16.3431  16.3867  16.4039
    16.4457

     occupation numbers 
     1.0000   1.0000   1.0000   1.0000   1.0000   1.0000   1.0000   1.0000
     1.0000   1.0000   1.0000   1.0000   1.0000   1.0000   1.0000   1.0000
     1.0000   1.0000   1.0000   1.0000   1.0000   1.0000   1.0000   1.0000
     1.0000   1.0000   1.0000   1.0000   1.0000   1.0000   1.0000   1.0000
     1.0000   1.0000   1.0000   1.0000   1.0000   1.0000   1.0000   1.0000
     1.0000   1.0000   1.0000   1.0000   1.0000   1.0000   1.0000   1.0000
     1.0000   1.0000   1.0000   1.0000   1.0000   1.0000   1.0000   1.0000
     1.0000   1.0000   1.0000   1.0000   1.0000   1.0000   1.0000   1.0000
     1.0000   1.0000   1.0000   1.0000   1.0000   1.0000   1.0000   1.0000
     1.0000   1.0000   1.0000   1.0000   1.0000   1.0000   1.0000   1.0000
     1.0000   1.0000   1.0000   1.0000   1.0000   1.0000   1.0000   1.0000
     1.0000   1.0000   1.0000   1.0000   1.0000   1.0000   1.0000   1.0000
     1.0000   1.0000   1.0000   1.0000   1.0000   1.0000   1.0000   1.0000
     1.0000   1.0000   1.0000   1.0000   1.0000   1.0000   1.0000   1.0000
     1.0000   1.0000   1.0000   1.0000   1.0000   1.0000   1.0000   1.0000
     1.0000   1.0000   1.0000   1.0000   1.0000   1.0000   1.0000   1.0000
     1.0000   1.0000   1.0000   1.0000   1.0000   1.0000   1.0000   1.0000
     1.0000   1.0000   1.0000   1.0000   1.0000   0.0000   0.0000   0.0000
     0.0000   0.0000   0.0000   0.0000   0.0000   0.0000   0.0000   0.0000
     0.0000   0.0000   0.0000   0.0000   0.0000   0.0000   0.0000   0.0000
     0.0000   0.0000   0.0000   0.0000   0.0000   0.0000   0.0000   0.0000
     0.0000

          k = 0.2500 0.4330 0.0000 ( 25702 PWs)   bands (ev):

    -6.8337  -6.7480  -6.7150  -6.6933  -6.6494  -6.6344  -6.6241  -6.5900
    -6.5743  -6.5341  -6.4940  -6.4791  -6.4470  -6.4367  -6.4077  -5.7858
    -5.7578  -5.7241  -5.7105  -5.7088  -5.6961  -5.6837  -5.6824  -5.6786
    -5.6682  -5.6631  -5.6512  -5.6467  -5.5810  -5.5691  -5.5484  -5.5224
    -5.5026  -5.4911  -5.4057  -5.3296  -5.3104  -5.3088  -5.3038  -5.3008
    -5.2968  -5.2880  -5.2845  -5.2767  -5.2718  -5.2689  -5.2647  -5.2587
    -5.2464  -5.2418  -5.2339  -5.2331  -5.2325  -5.2194  -5.2152  -5.2053
    -5.2008  -5.1982  -5.1942  -5.1876  -5.1838  -5.1815  -5.1761  -5.1725
    -5.1659  -5.1586  -5.1529  -5.1380  -5.1353  -5.1329  -5.1268  -5.1225
    -5.1204  -5.1141  -5.1070  -5.1033  -5.0923  -5.0875  -5.0617  -5.0486
    -5.0331  -4.6084  -4.5840  -4.5306  -4.3645  -4.0585  -4.0400  -4.0080
    -3.8019  -3.4485  -3.3240  -3.2948  -3.2029  -3.1257  -3.0898   2.2709
     2.5879   2.6642   2.7703   2.9514   3.0729   3.1221   3.4477   3.5174
     3.5703   3.7183   3.9864   4.1444   4.3033   4.4610   4.5591   4.7851
     4.8782   4.9610   5.2084   5.5342   5.6220   5.8092   6.0437   6.1204
     6.2406   6.3638   6.4138   6.4385   6.5437   6.6258   6.8250   6.8371
     6.8429   6.8720   7.0192   7.0398   7.1437   7.2978   7.3282   7.3709
     7.4507   7.4756   7.9334   7.9543   8.5904  10.6319  11.4720  11.5158
    12.6869  13.6908  13.7617  13.8284  13.8722  13.9283  14.1685  14.3069
    14.3383  14.4136  14.5464  14.7088  15.0174  15.1431  15.4233  15.5179
    15.8131  15.9688  16.0270  16.0941  16.1160  16.2129  16.2302  16.3011
    16.3884

     occupation numbers 
     1.0000   1.0000   1.0000   1.0000   1.0000   1.0000   1.0000   1.0000
     1.0000   1.0000   1.0000   1.0000   1.0000   1.0000   1.0000   1.0000
     1.0000   1.0000   1.0000   1.0000   1.0000   1.0000   1.0000   1.0000
     1.0000   1.0000   1.0000   1.0000   1.0000   1.0000   1.0000   1.0000
     1.0000   1.0000   1.0000   1.0000   1.0000   1.0000   1.0000   1.0000
     1.0000   1.0000   1.0000   1.0000   1.0000   1.0000   1.0000   1.0000
     1.0000   1.0000   1.0000   1.0000   1.0000   1.0000   1.0000   1.0000
     1.0000   1.0000   1.0000   1.0000   1.0000   1.0000   1.0000   1.0000
     1.0000   1.0000   1.0000   1.0000   1.0000   1.0000   1.0000   1.0000
     1.0000   1.0000   1.0000   1.0000   1.0000   1.0000   1.0000   1.0000
     1.0000   1.0000   1.0000   1.0000   1.0000   1.0000   1.0000   1.0000
     1.0000   1.0000   1.0000   1.0000   1.0000   1.0000   1.0000   1.0000
     1.0000   1.0000   1.0000   1.0000   1.0000   1.0000   1.0000   1.0000
     1.0000   1.0000   1.0000   1.0000   1.0000   1.0000   1.0000   1.0000
     1.0000   1.0000   1.0000   1.0000   1.0000   1.0000   1.0000   1.0000
     1.0000   1.0000   1.0000   1.0000   1.0000   1.0000   1.0000   1.0000
     1.0000   1.0000   1.0000   1.0000   1.0000   1.0000   1.0000   1.0000
     1.0000   1.0000   1.0000   1.0000   1.0000   0.0000   0.0000   0.0000
     0.0000   0.0000   0.0000   0.0000   0.0000   0.0000   0.0000   0.0000
     0.0000   0.0000   0.0000   0.0000   0.0000   0.0000   0.0000   0.0000
     0.0000   0.0000   0.0000   0.0000   0.0000   0.0000   0.0000   0.0000
     0.0000

          k = 0.2500 0.4330-0.3068 ( 25730 PWs)   bands (ev):

    -6.8070  -6.7406  -6.7100  -6.7066  -6.6598  -6.6259  -6.6154  -6.6113
    -6.5898  -6.5246  -6.5016  -6.4827  -6.4458  -6.4357  -6.4086  -5.7855
    -5.7578  -5.7239  -5.7104  -5.7087  -5.6973  -5.6827  -5.6823  -5.6777
    -5.6679  -5.6636  -5.6511  -5.6469  -5.5809  -5.5687  -5.5480  -5.5257
    -5.5028  -5.4902  -5.4050  -5.3300  -5.3115  -5.3084  -5.3024  -5.3000
    -5.2964  -5.2934  -5.2837  -5.2803  -5.2743  -5.2694  -5.2636  -5.2547
    -5.2514  -5.2443  -5.2383  -5.2305  -5.2289  -5.2245  -5.2099  -5.2018
    -5.1984  -5.1966  -5.1888  -5.1872  -5.1824  -5.1783  -5.1772  -5.1676
    -5.1650  -5.1562  -5.1525  -5.1413  -5.1360  -5.1351  -5.1282  -5.1226
    -5.1215  -5.1148  -5.1057  -5.1032  -5.0887  -5.0868  -5.0522  -5.0441
    -4.9602  -4.9227  -4.5300  -4.4123  -4.3881  -4.2752  -3.8010  -3.7635
    -3.5264  -3.4901  -3.4021  -3.3929  -3.3364  -3.2625  -3.1063   2.1864
     2.7525   2.7871   2.9972   3.0436   3.0692   3.1016   3.1505   3.2514
     3.4727   3.6729   4.1557   4.2243   4.2588   4.3378   4.4687   5.2251
     5.2367   5.2980   5.3323   5.4514   5.6185   5.7682   5.8637   5.9111
     5.9414   6.1060   6.1498   6.1842   6.3486   6.4410   6.7151   6.8401
     6.9107   6.9742   7.0357   7.2134   7.2371   7.2992   7.5485   7.5811
     7.6339   7.7374   7.7821   7.8587   8.5911  10.6833  11.4469  11.4821
    12.9598  13.1582  13.3748  13.4877  13.7664  14.1656  14.3588  14.4614
    14.5735  14.7504  14.9385  14.9992  15.1396  15.4302  15.4552  15.5264
    15.5552  15.5656  15.7660  15.9570  15.9957  16.1872  16.3308  16.4283
    16.4519

     occupation numbers 
     1.0000   1.0000   1.0000   1.0000   1.0000   1.0000   1.0000   1.0000
     1.0000   1.0000   1.0000   1.0000   1.0000   1.0000   1.0000   1.0000
     1.0000   1.0000   1.0000   1.0000   1.0000   1.0000   1.0000   1.0000
     1.0000   1.0000   1.0000   1.0000   1.0000   1.0000   1.0000   1.0000
     1.0000   1.0000   1.0000   1.0000   1.0000   1.0000   1.0000   1.0000
     1.0000   1.0000   1.0000   1.0000   1.0000   1.0000   1.0000   1.0000
     1.0000   1.0000   1.0000   1.0000   1.0000   1.0000   1.0000   1.0000
     1.0000   1.0000   1.0000   1.0000   1.0000   1.0000   1.0000   1.0000
     1.0000   1.0000   1.0000   1.0000   1.0000   1.0000   1.0000   1.0000
     1.0000   1.0000   1.0000   1.0000   1.0000   1.0000   1.0000   1.0000
     1.0000   1.0000   1.0000   1.0000   1.0000   1.0000   1.0000   1.0000
     1.0000   1.0000   1.0000   1.0000   1.0000   1.0000   1.0000   1.0000
     1.0000   1.0000   1.0000   1.0000   1.0000   1.0000   1.0000   1.0000
     1.0000   1.0000   1.0000   1.0000   1.0000   1.0000   1.0000   1.0000
     1.0000   1.0000   1.0000   1.0000   1.0000   1.0000   1.0000   1.0000
     1.0000   1.0000   1.0000   1.0000   1.0000   1.0000   1.0000   1.0000
     1.0000   1.0000   1.0000   1.0000   1.0000   1.0000   1.0000   1.0000
     1.0000   1.0000   1.0000   1.0000   1.0000   0.0000   0.0000   0.0000
     0.0000   0.0000   0.0000   0.0000   0.0000   0.0000   0.0000   0.0000
     0.0000   0.0000   0.0000   0.0000   0.0000   0.0000   0.0000   0.0000
     0.0000   0.0000   0.0000   0.0000   0.0000   0.0000   0.0000   0.0000
     0.0000

     the Fermi energy is     9.4056 ev

!    total energy              =   -4968.27889211 Ry
     total all-electron energy =    -63950.395442 Ry
     estimated scf accuracy    <          1.4E-09 Ry
     smearing contrib. (-TS)   =      -0.00000000 Ry
     internal energy E=F+TS    =   -4968.27889211 Ry

     The total energy is F=E-TS. E is the sum of the following terms:
     one-electron contribution =   -1533.98764381 Ry
     hartree contribution      =    1061.79982746 Ry
     xc contribution           =    -720.91035711 Ry
     ewald contribution        =   -1796.30567261 Ry
     one-center paw contrib.   =   -1978.87504605 Ry
      -> PAW hartree energy AE =     287.51162082 Ry
      -> PAW hartree energy PS =    -284.51639938 Ry
      -> PAW xc energy AE      =    -313.77169938 Ry
      -> PAW xc energy PS      =      79.32043867 Ry
      -> total E_H with PAW    =    1064.79504890 Ry
      -> total E_XC with PAW   =    -955.36161781 Ry

     convergence has been achieved in   1 iterations


     -----------------------------------------------
     Non-local corr. energy    =       8.65319880 Ry
     -----------------------------------------------


     Forces acting on atoms (cartesian axes, Ry/au):

     atom    1 type  1   force =     0.00000000    0.00000000   -0.00084819
     atom    2 type  1   force =     0.00000000    0.00000000    0.00023051
     atom    3 type  1   force =     0.00000475    0.00000274    0.00021136
     atom    4 type  1   force =     0.00018852    0.00010884   -0.00037398
     atom    5 type  1   force =     0.00000000   -0.00000548    0.00021136
     atom    6 type  1   force =     0.00000000   -0.00021768   -0.00037398
     atom    7 type  1   force =    -0.00000475    0.00000274    0.00021136
     atom    8 type  1   force =    -0.00018852    0.00010884   -0.00037398
     atom    9 type  1   force =     0.00049459   -0.00028555    0.00017624
     atom   10 type  1   force =     0.00016737   -0.00009663   -0.00037270
     atom   11 type  1   force =     0.00000000    0.00057110    0.00017624
     atom   12 type  1   force =     0.00000000    0.00019326   -0.00037270
     atom   13 type  1   force =    -0.00049459   -0.00028555    0.00017624
     atom   14 type  1   force =    -0.00016737   -0.00009663   -0.00037270
     atom   15 type  1   force =     0.00000000    0.00000000   -0.00012320
     atom   16 type  1   force =     0.00000000    0.00000000    0.00063527
     atom   17 type  2   force =     0.00000000    0.00000000   -0.00033036
     atom   18 type  2   force =    -0.00008015   -0.00004628    0.00027574
     atom   19 type  2   force =    -0.00011031   -0.00006369   -0.00011162
     atom   20 type  2   force =     0.00000000    0.00009255    0.00027574
     atom   21 type  2   force =     0.00000000    0.00012738   -0.00011162
     atom   22 type  2   force =     0.00008015   -0.00004628    0.00027574
     atom   23 type  2   force =     0.00011031   -0.00006369   -0.00011162
     atom   24 type  2   force =     0.00034011   -0.00019636    0.00019666
     atom   25 type  2   force =     0.00052490   -0.00030305   -0.00003558
     atom   26 type  2   force =     0.00000000    0.00039273    0.00019666
     atom   27 type  2   force =    -0.00000000    0.00060610   -0.00003558
     atom   28 type  2   force =    -0.00034011   -0.00019636    0.00019666
     atom   29 type  2   force =    -0.00052490   -0.00030305   -0.00003558
     atom   30 type  2   force =     0.00000000    0.00000000    0.00012336
     atom   31 type  2   force =     0.00000000    0.00000000    0.00041430
     The non-local contrib.  to forces
     atom    1 type  1   force =     0.00000000    0.00000000    0.40587539
     atom    2 type  1   force =     0.00000000    0.00000000   -0.01200110
     atom    3 type  1   force =    -0.02286016   -0.01319832    0.02199105
     atom    4 type  1   force =    -0.03648243   -0.02106314   -0.01697492
     atom    5 type  1   force =     0.00000000    0.02639664    0.02199105
     atom    6 type  1   force =    -0.00000000    0.04212628   -0.01697492
     atom    7 type  1   force =     0.02286016   -0.01319832    0.02199105
     atom    8 type  1   force =     0.03648243   -0.02106314   -0.01697492
     atom    9 type  1   force =     0.25552608   -0.14752805   -0.17285716
     atom   10 type  1   force =     0.00062524   -0.00036098    0.07909636
     atom   11 type  1   force =     0.00000000    0.29505610   -0.17285716
     atom   12 type  1   force =     0.00000000    0.00072196    0.07909636
     atom   13 type  1   force =    -0.25552608   -0.14752805   -0.17285716
     atom   14 type  1   force =    -0.00062524   -0.00036098    0.07909636
     atom   15 type  1   force =     0.00000000    0.00000000   -0.04489946
     atom   16 type  1   force =     0.00000000    0.00000000    0.00425877
     atom   17 type  2   force =     0.00000000    0.00000000   -0.00781887
     atom   18 type  2   force =    -0.02929175   -0.01691160    0.06256832
     atom   19 type  2   force =    -0.00766008   -0.00442255   -0.00250140
     atom   20 type  2   force =     0.00000000    0.03382320    0.06256832
     atom   21 type  2   force =     0.00000000    0.00884510   -0.00250140
     atom   22 type  2   force =     0.02929175   -0.01691160    0.06256832
     atom   23 type  2   force =     0.00766008   -0.00442255   -0.00250140
     atom   24 type  2   force =     0.06192441   -0.03575208    0.05279861
     atom   25 type  2   force =     0.01581820   -0.00913264   -0.05861003
     atom   26 type  2   force =     0.00000000    0.07150415    0.05279861
     atom   27 type  2   force =     0.00000000    0.01826528   -0.05861003
     atom   28 type  2   force =    -0.06192441   -0.03575208    0.05279861
     atom   29 type  2   force =    -0.01581820   -0.00913264   -0.05861003
     atom   30 type  2   force =     0.00000000    0.00000000    0.04752999
     atom   31 type  2   force =     0.00000000    0.00000000   -0.00786312
     The ionic contribution  to forces
     atom    1 type  1   force =    -0.00003601    0.00002199   10.89242388
     atom    2 type  1   force =    -0.00003323    0.00002024   -3.85653705
     atom    3 type  1   force =    -0.27194378   -0.15696676    3.54344646
     atom    4 type  1   force =    -0.30301362   -0.17490606   -2.32608905
     atom    5 type  1   force =    -0.00003229    0.31399623    3.54344632
     atom    6 type  1   force =    -0.00003133    0.34987309   -2.32608926
     atom    7 type  1   force =     0.27187639   -0.15696505    3.54344477
     atom    8 type  1   force =     0.30294756   -0.17490405   -2.32608939
     atom    9 type  1   force =     6.71686619   -3.87798822   -4.18624113
     atom   10 type  1   force =    -0.05438000    0.03139336    1.50030080
     atom   11 type  1   force =     0.00004635    7.75596733   -4.18626825
     atom   12 type  1   force =     0.00003328   -0.06285238    1.50029998
     atom   13 type  1   force =    -6.71683991   -3.87802660   -4.18626681
     atom   14 type  1   force =     0.05444741    0.03139390    1.50030024
     atom   15 type  1   force =     0.00002718   -0.00001641   -1.82444529
     atom   16 type  1   force =     0.00003333   -0.00002030    1.19613232
     atom   17 type  2   force =    -0.00003038    0.00001889   -0.03393014
     atom   18 type  2   force =     0.04824056    0.02788586   -0.45659882
     atom   19 type  2   force =    -0.03091812   -0.01781372   -0.00145347
     atom   20 type  2   force =    -0.00002787   -0.05571799   -0.45659858
     atom   21 type  2   force =    -0.00003003    0.03568523   -0.00145324
     atom   22 type  2   force =    -0.04829926    0.02788769   -0.45659893
     atom   23 type  2   force =     0.03085831   -0.01781379   -0.00145347
     atom   24 type  2   force =     0.11459662   -0.06616472    1.38437698
     atom   25 type  2   force =     0.37921914   -0.21894451   -1.47386144
     atom   26 type  2   force =     0.00003104    0.13226974    1.38438075
     atom   27 type  2   force =     0.00002965    0.43783372   -1.47386504
     atom   28 type  2   force =    -0.11453469   -0.06616474    1.38438037
     atom   29 type  2   force =    -0.37916142   -0.21894536   -1.47386510
     atom   30 type  2   force =     0.00002966   -0.00001844    0.87017120
     atom   31 type  2   force =     0.00002925   -0.00001818   -1.19539958
     The local contribution  to forces
     atom    1 type  1   force =    -0.00007671    0.00024172  -11.29752889
     atom    2 type  1   force =    -0.00007730    0.00024621    3.86756097
     atom    3 type  1   force =     0.29417994    0.17014130   -3.56451945
     atom    4 type  1   force =     0.33906416    0.19605668    2.34183429
     atom    5 type  1   force =    -0.00007272   -0.33953669   -3.56451980
     atom    6 type  1   force =    -0.00007185   -0.39136414    2.34183408
     atom    7 type  1   force =    -0.29433437    0.17014408   -3.56451942
     atom    8 type  1   force =    -0.33921885    0.19605673    2.34183426
     atom    9 type  1   force =    -6.97014658    4.02434862    4.35707973
     atom   10 type  1   force =     0.05505361   -0.03165390   -1.57844866
     atom   11 type  1   force =     0.00106980   -8.05023084    4.35710157
     atom   12 type  1   force =     0.00108912    0.06181522   -1.57844803
     atom   13 type  1   force =     6.97237269    4.02438329    4.35710889
     atom   14 type  1   force =    -0.05286459   -0.03165355   -1.57844792
     atom   15 type  1   force =     0.00110570   -0.00049776    1.86730448
     atom   16 type  1   force =     0.00109623   -0.00049517   -1.19941231
     atom   17 type  2   force =    -0.00001057    0.00002248    0.04117719
     atom   18 type  2   force =    -0.01956784   -0.01128263    0.39523194
     atom   19 type  2   force =     0.03830180    0.02214265    0.00369994
     atom   20 type  2   force =    -0.00001371    0.02261054    0.39523166
     atom   21 type  2   force =    -0.00001009   -0.04421702    0.00369983
     atom   22 type  2   force =     0.01955098   -0.01126513    0.39523237
     atom   23 type  2   force =    -0.03832274    0.02214254    0.00369989
     atom   24 type  2   force =    -0.17506975    0.10108688   -1.43623719
     atom   25 type  2   force =    -0.39415546    0.22757651    1.53137511
     atom   26 type  2   force =     0.00008172   -0.20228726   -1.43624277
     atom   27 type  2   force =     0.00008470   -0.45526940    1.53137999
     atom   28 type  2   force =     0.17523636    0.10108879   -1.43624258
     atom   29 type  2   force =     0.39432794    0.22757743    1.53138065
     atom   30 type  2   force =     0.00008536   -0.00003801   -0.91690801
     atom   31 type  2   force =     0.00008651   -0.00003841    1.20342796
     The core correction contribution to forces
     atom    1 type  1   force =    -0.00000626    0.00001813   -0.00170817
     atom    2 type  1   force =    -0.00000626    0.00001825    0.00107612
     atom    3 type  1   force =     0.00048996    0.00030505   -0.00078490
     atom    4 type  1   force =     0.00049656    0.00030901    0.00073159
     atom    5 type  1   force =    -0.00000588   -0.00055496   -0.00078490
     atom    6 type  1   force =    -0.00000586   -0.00056263    0.00073158
     atom    7 type  1   force =    -0.00050248    0.00030520   -0.00078489
     atom    8 type  1   force =    -0.00050911    0.00030901    0.00073159
     atom    9 type  1   force =    -0.00055811    0.00033147    0.00206260
     atom   10 type  1   force =     0.00005836   -0.00002427   -0.00141285
     atom   11 type  1   force =     0.00008004   -0.00077347    0.00206246
     atom   12 type  1   force =     0.00008020   -0.00006211   -0.00141285
     atom   13 type  1   force =     0.00071877    0.00033167    0.00206264
     atom   14 type  1   force =     0.00010284   -0.00002427   -0.00141285
     atom   15 type  1   force =     0.00008065   -0.00003666    0.00179049
     atom   16 type  1   force =     0.00008061   -0.00003666   -0.00044828
     atom   17 type  2   force =     0.00000025   -0.00000033    0.00013769
     atom   18 type  2   force =     0.00049899    0.00028754   -0.00103707
     atom   19 type  2   force =     0.00012271    0.00007036    0.00004106
     atom   20 type  2   force =     0.00000018   -0.00057622   -0.00103707
     atom   21 type  2   force =     0.00000023   -0.00014174    0.00004106
     atom   22 type  2   force =    -0.00049851    0.00028769   -0.00103707
     atom   23 type  2   force =    -0.00012222    0.00007036    0.00004106
     atom   24 type  2   force =    -0.00100515    0.00058029   -0.00083644
     atom   25 type  2   force =    -0.00024683    0.00014247    0.00093911
     atom   26 type  2   force =    -0.00000240   -0.00115674   -0.00083665
     atom   27 type  2   force =    -0.00000240   -0.00028098    0.00093924
     atom   28 type  2   force =     0.00100052    0.00058041   -0.00083663
     atom   29 type  2   force =     0.00024208    0.00014251    0.00093924
     atom   30 type  2   force =    -0.00000233    0.00000131   -0.00076722
     atom   31 type  2   force =    -0.00000234    0.00000131    0.00012871
     The Hubbard contrib.    to forces
     atom    1 type  1   force =     0.00000000    0.00000000    0.00000000
     atom    2 type  1   force =     0.00000000    0.00000000    0.00000000
     atom    3 type  1   force =     0.00000000    0.00000000    0.00000000
     atom    4 type  1   force =     0.00000000    0.00000000    0.00000000
     atom    5 type  1   force =     0.00000000    0.00000000    0.00000000
     atom    6 type  1   force =     0.00000000    0.00000000    0.00000000
     atom    7 type  1   force =     0.00000000    0.00000000    0.00000000
     atom    8 type  1   force =     0.00000000    0.00000000    0.00000000
     atom    9 type  1   force =     0.00000000    0.00000000    0.00000000
     atom   10 type  1   force =     0.00000000    0.00000000    0.00000000
     atom   11 type  1   force =     0.00000000    0.00000000    0.00000000
     atom   12 type  1   force =     0.00000000    0.00000000    0.00000000
     atom   13 type  1   force =     0.00000000    0.00000000    0.00000000
     atom   14 type  1   force =     0.00000000    0.00000000    0.00000000
     atom   15 type  1   force =     0.00000000    0.00000000    0.00000000
     atom   16 type  1   force =     0.00000000    0.00000000    0.00000000
     atom   17 type  2   force =     0.00000000    0.00000000    0.00000000
     atom   18 type  2   force =     0.00000000    0.00000000    0.00000000
     atom   19 type  2   force =     0.00000000    0.00000000    0.00000000
     atom   20 type  2   force =     0.00000000    0.00000000    0.00000000
     atom   21 type  2   force =     0.00000000    0.00000000    0.00000000
     atom   22 type  2   force =     0.00000000    0.00000000    0.00000000
     atom   23 type  2   force =     0.00000000    0.00000000    0.00000000
     atom   24 type  2   force =     0.00000000    0.00000000    0.00000000
     atom   25 type  2   force =     0.00000000    0.00000000    0.00000000
     atom   26 type  2   force =     0.00000000    0.00000000    0.00000000
     atom   27 type  2   force =     0.00000000    0.00000000    0.00000000
     atom   28 type  2   force =     0.00000000    0.00000000    0.00000000
     atom   29 type  2   force =     0.00000000    0.00000000    0.00000000
     atom   30 type  2   force =     0.00000000    0.00000000    0.00000000
     atom   31 type  2   force =     0.00000000    0.00000000    0.00000000
     The SCF correction term to forces
     atom    1 type  1   force =    -0.00000000    0.00000000   -0.00001810
     atom    2 type  1   force =     0.00000000   -0.00000000    0.00002386
     atom    3 type  1   force =     0.00001827    0.00001055   -0.00002879
     atom    4 type  1   force =     0.00000406    0.00000234    0.00001666
     atom    5 type  1   force =     0.00000000   -0.00002110   -0.00002879
     atom    6 type  1   force =    -0.00000000   -0.00000469    0.00001666
     atom    7 type  1   force =    -0.00001827    0.00001055   -0.00002879
     atom    8 type  1   force =    -0.00000406    0.00000234    0.00001666
     atom    9 type  1   force =     0.00000664   -0.00000384    0.00002513
     atom   10 type  1   force =     0.00001580   -0.00000912   -0.00001605
     atom   11 type  1   force =    -0.00000000    0.00000768    0.00002513
     atom   12 type  1   force =     0.00000000    0.00001824   -0.00001605
     atom   13 type  1   force =    -0.00000665   -0.00000384    0.00002513
     atom   14 type  1   force =    -0.00001580   -0.00000912   -0.00001605
     atom   15 type  1   force =    -0.00000000    0.00000000    0.00001887
     atom   16 type  1   force =     0.00000000   -0.00000000   -0.00000294
     atom   17 type  2   force =    -0.00000000    0.00000000   -0.00000393
     atom   18 type  2   force =     0.00000457    0.00000264    0.00000357
     atom   19 type  2   force =     0.00000274    0.00000158   -0.00000548
     atom   20 type  2   force =     0.00000000   -0.00000528    0.00000357
     atom   21 type  2   force =     0.00000000   -0.00000316   -0.00000548
     atom   22 type  2   force =    -0.00000457    0.00000264    0.00000357
     atom   23 type  2   force =    -0.00000274    0.00000158   -0.00000548
     atom   24 type  2   force =     0.00000602   -0.00000348   -0.00001160
     atom   25 type  2   force =     0.00000199   -0.00000115    0.00001283
     atom   26 type  2   force =    -0.00000000    0.00000696   -0.00001160
     atom   27 type  2   force =     0.00000000    0.00000229    0.00001283
     atom   28 type  2   force =    -0.00000602   -0.00000348   -0.00001160
     atom   29 type  2   force =    -0.00000198   -0.00000115    0.00001283
     atom   30 type  2   force =     0.00000000   -0.00000000   -0.00001030
     atom   31 type  2   force =     0.00000000   -0.00000000    0.00001263

     Total force =     0.002410     Total SCF correction =     0.000107


     Computing stress (Cartesian axis) and pressure



     -----------------------------------------------
     Non-local corr. energy    =       8.65319880 Ry
     -----------------------------------------------

          total   stress  (Ry/bohr**3)                   (kbar)     P=      -59.90
  -0.00040953   0.00000000   0.00000000          -60.24        0.00        0.00
   0.00000000  -0.00040953  -0.00000000            0.00      -60.24       -0.00
   0.00000000   0.00000000  -0.00040248            0.00        0.00      -59.21

     kinetic stress (kbar)  17766.03      0.00      0.00
                                0.00  17766.03      0.00
                                0.00      0.00  17752.29

     local   stress (kbar)   4584.30     -0.07      0.00
                               -0.07   4584.22     -0.00
                                0.00     -0.00   3904.52

     nonloc. stress (kbar)    262.47     -0.00      0.00
                               -0.00    262.47     -0.00
                                0.00     -0.00    276.09

     hartree stress (kbar)  19904.32     -0.00     -0.00
                               -0.00  19904.32      0.00
                               -0.00      0.00  20202.91

     exc-cor stress (kbar)   5302.00      0.00     -0.00
                                0.00   5302.00      0.00
                               -0.00      0.00   5301.57

     corecor stress (kbar) -14071.04     -0.00     -0.00
                               -0.00 -14071.04     -0.00
                               -0.00     -0.00 -14070.36

     ewald   stress (kbar) -33969.24      0.09     -0.00
                                0.09 -33969.12      0.00
                               -0.00      0.00 -33586.53

     hubbard stress (kbar)      0.00      0.00      0.00
                                0.00      0.00      0.00
                                0.00      0.00      0.00

     DFT-D   stress (kbar)      0.00      0.00      0.00
                                0.00      0.00      0.00
                                0.00      0.00      0.00

     XDM     stress (kbar)      0.00      0.00      0.00
                                0.00      0.00      0.00
                                0.00      0.00      0.00

     dft-nl  stress (kbar)    160.89     -0.00      0.00
                               -0.00    160.89     -0.00
                                0.00     -0.00    160.30

     TS-vdW  stress (kbar)      0.00      0.00      0.00
                                0.00      0.00      0.00
                                0.00      0.00      0.00

     MDB     stress (kbar)      0.00      0.00      0.00
                                0.00      0.00      0.00
                                0.00      0.00      0.00

     3D-RISM stress (kbar)      0.00      0.00      0.00
                                0.00      0.00      0.00
                                0.00      0.00      0.00



     -----------------------------------------------
     Non-local corr. energy    =       8.65319880 Ry
     -----------------------------------------------



     -----------------------------------------------
     Non-local corr. energy    =       8.65319880 Ry
     -----------------------------------------------



     -----------------------------------------------
     Non-local corr. energy    =       8.65319880 Ry
     -----------------------------------------------



     -----------------------------------------------
     Non-local corr. energy    =       8.65319880 Ry
     -----------------------------------------------



     -----------------------------------------------
     Non-local corr. energy    =       8.65319880 Ry
     -----------------------------------------------



     -----------------------------------------------
     Non-local corr. energy    =       8.65319880 Ry
     -----------------------------------------------



     -----------------------------------------------
     Non-local corr. energy    =       8.65319880 Ry
     -----------------------------------------------



     -----------------------------------------------
     Non-local corr. energy    =       8.65319880 Ry
     -----------------------------------------------



     -----------------------------------------------
     Non-local corr. energy    =       8.65319880 Ry
     -----------------------------------------------



     -----------------------------------------------
     Non-local corr. energy    =       8.65319880 Ry
     -----------------------------------------------



     -----------------------------------------------
     Non-local corr. energy    =       8.65319880 Ry
     -----------------------------------------------



     -----------------------------------------------
     Non-local corr. energy    =       8.65319880 Ry
     -----------------------------------------------



     -----------------------------------------------
     Non-local corr. energy    =       8.65319880 Ry
     -----------------------------------------------



     -----------------------------------------------
     Non-local corr. energy    =       8.65319880 Ry
     -----------------------------------------------



     -----------------------------------------------
     Non-local corr. energy    =       8.65319880 Ry
     -----------------------------------------------



     -----------------------------------------------
     Non-local corr. energy    =       8.65319880 Ry
     -----------------------------------------------



     -----------------------------------------------
     Non-local corr. energy    =       8.65319880 Ry
     -----------------------------------------------



     -----------------------------------------------
     Non-local corr. energy    =       8.65319880 Ry
     -----------------------------------------------



     -----------------------------------------------
     Non-local corr. energy    =       8.65319880 Ry
     -----------------------------------------------



     -----------------------------------------------
     Non-local corr. energy    =       8.65319880 Ry
     -----------------------------------------------



     -----------------------------------------------
     Non-local corr. energy    =       8.65319880 Ry
     -----------------------------------------------



     -----------------------------------------------
     Non-local corr. energy    =       8.65319880 Ry
     -----------------------------------------------



     -----------------------------------------------
     Non-local corr. energy    =       8.65319880 Ry
     -----------------------------------------------



     -----------------------------------------------
     Non-local corr. energy    =       8.65319880 Ry
     -----------------------------------------------



     -----------------------------------------------
     Non-local corr. energy    =       8.65319880 Ry
     -----------------------------------------------



     -----------------------------------------------
     Non-local corr. energy    =       8.65319880 Ry
     -----------------------------------------------



     -----------------------------------------------
     Non-local corr. energy    =       8.65319880 Ry
     -----------------------------------------------



     -----------------------------------------------
     Non-local corr. energy    =       8.65319880 Ry
     -----------------------------------------------



     -----------------------------------------------
     Non-local corr. energy    =       8.65319880 Ry
     -----------------------------------------------



     -----------------------------------------------
     Non-local corr. energy    =       8.65319880 Ry
     -----------------------------------------------



     -----------------------------------------------
     Non-local corr. energy    =       8.65319880 Ry
     -----------------------------------------------



     -----------------------------------------------
     Non-local corr. energy    =       8.65319880 Ry
     -----------------------------------------------



     -----------------------------------------------
     Non-local corr. energy    =       8.65319880 Ry
     -----------------------------------------------



     -----------------------------------------------
     Non-local corr. energy    =       8.65319880 Ry
     -----------------------------------------------

 BEEFens 2000 ensemble energies
             -0.694754035323453E+01
             -0.628747406571735E+02
             -0.271419463754100E+02
              0.221088100948118E+02
             -0.453163921884340E+02
             -0.582268461866454E+02
              0.298886187938239E+02
             -0.314248447007284E+01
              0.498366743152600E+02
             -0.217773539659422E+01
              0.245962476900040E+02
              0.100113957982158E+01
              0.945904165328102E+00
             -0.215207654836217E+01
              0.326210363812847E+02
             -0.237511293898529E+02
             -0.488364104817931E+02
             -0.160168978395494E+02
              0.119345291261304E+02
             -0.110387624336056E+01
              0.715527786637144E+02
              0.607863706315366E+02
             -0.348812058650787E+02
              0.125450281227150E+02
             -0.763421307902360E+02
              0.612063800129609E+02
              0.199835368572582E+02
              0.594197865627286E+02
              0.390227336493069E+02
             -0.189294895068489E+02
              0.144078239964050E+02
             -0.279958926582019E+02
              0.796337147111116E+01
              0.383272931563277E+02
              0.405869870923086E+02
             -0.146999536332864E+02
              0.900725254578645E+02
             -0.342677121756446E+02
             -0.246186005356719E+02
              0.361390167312052E+02
              0.161580754787846E+02
              0.270426225045220E+02
             -0.515415292422547E+02
             -0.141995488708255E+01
              0.505416746045910E+02
              0.657351400419956E+02
             -0.654820210486400E+02
              0.462667995478147E+01
              0.246267295232924E+02
              0.121169310244747E+02
              0.273429704227844E+02
              0.578920921436285E+02
             -0.349906324331935E+02
             -0.383959421232264E+02
             -0.499069866577344E+02
             -0.763509726943806E+01
             -0.455368800927403E+02
              0.448592915151380E+01
             -0.835177424517286E+01
             -0.354087394662608E+02
              0.575103002643942E+02
              0.563336042023417E+02
             -0.148436378749271E+02
             -0.403277851272679E+02
             -0.263346457881820E+02
              0.128570605459358E+01
              0.427433046476406E+02
             -0.710723627833497E+01
             -0.420433346568001E+02
              0.357215047268638E+02
             -0.717015739050940E+02
              0.603103760069689E+02
             -0.700452767078590E+02
             -0.317835978919058E+02
             -0.934974379406316E+01
             -0.654879706566203E+01
              0.145886978714361E+01
              0.512782437174725E+02
              0.282995424339880E+02
             -0.534352854345358E+02
             -0.666863100621094E+02
             -0.340619183299414E+02
             -0.255661862414035E+02
              0.465930173374051E+01
             -0.873789025995893E+01
             -0.233775568294380E+02
              0.350411206538004E+02
             -0.231080997661671E+02
              0.101023065296956E+03
             -0.455017847391862E+02
              0.926920866070389E+01
              0.140152005461464E+02
              0.161160992352098E+02
              0.381614079467979E+02
              0.258307876566591E+02
              0.246461254780269E+02
             -0.396424410390125E+02
              0.242297019203664E+02
              0.546110879487952E+01
              0.175474156846832E+00
              0.464210534062767E+02
             -0.569518740037449E+02
              0.922267136439778E+02
             -0.240500523704699E+02
             -0.102237389346655E+03
              0.449047137502953E+01
              0.842304672803618E+01
             -0.272101249410131E+02
             -0.519310109534850E+02
             -0.271884366868848E+02
             -0.213060486006851E+02
              0.159115099137557E+01
             -0.409748243385704E+02
              0.154139793955585E+01
              0.433496239457759E+01
              0.769193140812274E+01
              0.900331569265060E+02
              0.101621372116382E+02
             -0.510404969014101E+02
             -0.374020882527686E+02
             -0.103235382755513E+02
             -0.355408940112342E+02
              0.567038552089908E+02
             -0.420438442350612E+02
             -0.272926374454026E+01
             -0.815826734408739E+01
              0.787930917325650E+01
              0.336241273408024E+02
             -0.386328706252976E+02
             -0.776494532377150E+02
             -0.162791511251628E+02
             -0.152931186833753E+02
             -0.626868885901524E+01
              0.375605309275731E+02
             -0.670856039593695E+02
             -0.745237580593497E+02
             -0.101698893598558E+02
             -0.158788995523813E+02
             -0.155254698301522E+01
              0.204165603804201E+02
              0.454641413662937E+02
              0.210438096872144E+02
             -0.211995348053907E+02
             -0.248791282337846E+02
             -0.683047477551819E+02
             -0.575871208081043E+01
             -0.327592935713888E+02
             -0.214895760050473E+02
              0.572893491802342E+02
             -0.446147579561786E+02
             -0.167470926279246E+02
              0.555505108459973E+02
             -0.810386232560131E+01
             -0.157551602503243E+02
              0.918630382633808E+01
              0.219174135368306E+02
             -0.336186114633641E+02
              0.187890896276091E+02
              0.971927851307933E+01
              0.340527933406116E+02
             -0.333487202578674E+02
             -0.227505242084841E+02
              0.377762001681282E+02
             -0.104154552244137E+01
             -0.164961050852008E+02
             -0.114565085694219E+02
             -0.199393385372013E+02
             -0.252744718332063E+02
             -0.605642574574624E+02
             -0.714782802803453E+02
             -0.238152345131242E+02
             -0.266436948323022E+02
             -0.287440229128166E+02
             -0.466621584336461E+02
             -0.213967937178570E+02
[...]
              0.271971476594889E+02
              0.786187456188632E+00
              0.847128725912391E+02
              0.117517730084386E+02
             -0.123112968146453E+02
              0.467099997591498E+01
             -0.113413973549116E+02
              0.665398884339792E+02
             -0.518787185516032E+00
              0.128078420497844E+02
              0.461907152894697E+02
              0.123354721359719E+02
             -0.351502527557220E+02
             -0.569455631381962E+02
              0.323940272417383E+01
             -0.647427541916778E+02
              0.217300197797513E+02
             -0.112748252272685E+02
             -0.250117520430488E+02
              0.253498545400488E+02
              0.873024855189396E+01
              0.243498295039163E+02
              0.110320545577804E+01
              0.361200543600069E+02
             -0.612404032002681E+02
             -0.438692055447513E+01
             -0.537760882456224E+02
              0.119029492562936E+02
              0.295101092023917E+02
             -0.300507698857075E+01
             -0.197098351980890E+02
              0.441130436124224E+02
             -0.203657805693308E+02
              0.150967306492917E+02
             -0.129811745777685E+02
              0.349223213229506E+02
              0.368882303871475E+02
             -0.159223862537516E+02
              0.314330989217705E+02
              0.118079259504167E+02
             -0.317565781618942E+02
             -0.208274086176855E+02
              0.511144054289751E+02
              0.250716654790557E+02
             -0.225367416412088E+01
             -0.542639249246963E+01
              0.786316870060626E+02
              0.464239025416701E+02
              0.164942178893816E+02
             -0.495137109129176E+02
              0.794459040465320E+02
             -0.370122206958809E+02
             -0.457428245625505E+02
             -0.690663998343496E+02
              0.307518882327229E+02
             -0.620689114261114E+02
              0.280179910090076E+02
              0.452554261150217E+02
              0.322611021767495E+02
              0.810483059906474E+01
              0.213934605134872E+02
             -0.510644473655729E+02
             -0.183004577848466E+02
             -0.139173019323361E+02
              0.261513810661755E+02
              0.520899848045623E+02
              0.536900519857323E+02
              0.413919477071298E+02
             -0.951954864505035E+01
              0.132373490596898E+02
              0.837251097490338E+00
             -0.170656388735644E+02
              0.219948883795385E+02
              0.239429835092106E+02
             -0.302514346289735E+02
             -0.359145074709361E+02
             -0.142183324217924E+02
              0.371768086752702E+02
              0.177957510849369E+02
             -0.255058538671214E+02
             -0.392502928551949E+02
             -0.571845454107050E+02
              0.121356964202313E+01
              0.154193907694208E+02
             -0.215645566209133E+02
              0.799586765358974E+02
              0.385945719963451E+01
             -0.904991228615203E+02
              0.200016640366375E+02
              0.395961224218992E+02
             -0.181392580490083E+02
              0.210441933172702E+01
             -0.251102741289407E+02
              0.370558423293282E+02
              0.171432761135750E+02
             -0.473653737061711E+02
              0.564079365146194E+02
              0.171786521741477E+01
             -0.241140337209413E+02
             -0.286867141672835E+02
              0.112349242126398E+03
              0.500454927187204E+02
             -0.139650877184625E+02
              0.274973262007503E+02
             -0.491335303375677E+02
             -0.888914447938214E+01
             -0.498185699915124E+02
              0.199225161900575E+02
              0.340250908585423E+02
              0.402954359918185E+02
             -0.160240549222383E+02
              0.474886009158820E+01
              0.460327660747899E+02
              0.169623932123990E+02
              0.288634042808571E+02
              0.122944613932614E+02
             -0.821528814430067E+01
              0.129360827241956E+01
             -0.759826063323081E+01
              0.117160977493647E+02
              0.260669182196756E+01
             -0.419660126785629E+02
              0.637985138032404E+02
              0.255330897762882E+02
             -0.458784170216079E+02
             -0.341515560636162E+02
             -0.493148486587818E+02
             -0.232426887552232E+02
             -0.171585347997121E+02
             -0.380822574741057E+02
             -0.372990261635370E+02
              0.469082971663361E+02
              0.370715318285806E+02
             -0.458307319995862E+01
              0.540888415101477E+02
              0.101909664849105E+02
             -0.872760603328765E+02
              0.493141468885575E+02
              0.113540682857382E+02
              0.378990185384934E+02
              0.839872256941115E+01
              0.631684735749451E+01
              0.750257086862968E+01
              0.197255867986598E+02
             -0.362426650141518E+02
             -0.180583155872857E+02
             -0.333231392946212E+02
             -0.277042122077542E+02
              0.125490933662990E+02
             -0.315993746275686E+02
              0.148297673057432E+02
              0.195791871369472E+02
             -0.208536477671092E+02
             -0.110099211345938E+02
             -0.919856428129947E+00
              0.539933842817230E+02
              0.865813230504938E+01
              0.534962006088065E+02
              0.191434746561513E+02
             -0.691479548943018E+02
             -0.234881277823107E+02
              0.236790142051123E+02
              0.533722740877975E+02
              0.101579485357983E+02
              0.208457239531876E+02
              0.501987692377481E+02
             -0.291461118078708E+02
             -0.474039552979783E+02
              0.615802974342275E+02
              0.111460695026170E+01
             -0.652817100120781E+02
              0.218865861827355E+02
              0.431297761314718E+02
             -0.100263062795589E+02
             -0.409618822335432E+02
              0.735806043856735E+01
              0.261356450412984E+01
             -0.224009494044370E+02
              0.806257993174620E+01
             -0.690298864070079E+01
              0.963167662057786E+02
              0.265956193553968E+02
             -0.441119013549572E+02
              0.133470507061452E+02
              0.618140278440273E+02
             -0.396710059414156E+02
             -0.104973098846894E+02
             -0.350675369191469E+02
              0.280953442345290E+02
              0.118486902527736E+02
              0.186889126779540E+02
              0.146312555063332E+01
              0.694614217493059E+02
             -0.387831964768181E+02
             -0.294276123678670E+02
             -0.325100138238302E+02
              0.279170192311168E+02
              0.668257031198312E+02
             -0.854035468840908E+01
              0.275598962325699E+02
             -0.374060265079383E+02
              0.381821670698451E+01
             -0.110768883947401E+02
             -0.358116994834410E+01
             -0.158720849145382E+02
             -0.145652656735149E+02
             -0.107903277305565E+02
              0.114470912997828E+02
              0.195216934530941E+02
             -0.448054115817217E+02
              0.325704085436803E+02
             -0.526392410454707E+02
              0.392998907786292E+02
             -0.455098645620313E+02
              0.689366229483782E+02
              0.367809854378563E+02
              0.411228358190857E+02
              0.945005202177754E+01
              0.106355757494885E+02
             -0.926116757984443E+02
              0.157941122202585E+02
              0.419745869116537E+01
              0.733536405559767E+01
             -0.138232998344733E+02
              0.721619060887517E+02
             -0.217940589814144E+02
             -0.285082358576008E+02
             -0.713676471613138E+02
             -0.237217277416638E+02
             -0.324749164170572E+02
             -0.287813167110183E+02
             -0.788070521138445E+01
             -0.150829389736758E+02
             -0.199863663443919E+02
             -0.299800056298367E+02
              0.223079003349854E+02
              0.739620934827896E+02
              0.630762244467904E+02
             -0.124145353715890E+02
             -0.773445762945963E+02
             -0.325500280204116E+02
              0.148424803204290E+02
              0.165748095461837E+02
              0.239930204443202E+02
              0.185824682874802E+02
              0.601334781774108E+01
              0.716847137666180E+02
             -0.177606056914258E+02
              0.363235784295338E+02
              0.167697710499605E+02
             -0.234361370562939E+02
             -0.147273559407999E+02
              0.330936691822633E+02
             -0.192387404162255E+02
             -0.135753096401944E+02
             -0.884628565502348E+01
              0.413289061474615E+02
             -0.554748594568883E+02
             -0.599249700898525E+01
             -0.454013656874148E+02
             -0.981271097369918E+02
              0.304909873539486E+00
             -0.121989258774812E+02
              0.336928879185206E+02
              0.400835437759829E+02
              0.549575851948821E+02
             -0.361438249862043E+02
              0.588153505864935E+02
              0.154227858860135E+02
             -0.176902245105853E+02
              0.105896248046177E+02
             -0.185624825559255E+02
             -0.130774564439942E+02
              0.300031218451130E+02
             -0.291464232347814E+02
              0.710091250258647E+02
             -0.182098505585221E+02
             -0.380106395990481E+02
              0.722966454944046E+02
             -0.406427007258758E+02
             -0.599227177099004E+01
              0.735451429227521E+01
              0.224096023412798E+02
             -0.331221985170918E+02
             -0.248061928289237E+02
              0.377222845042232E+02
             -0.611284445262666E+02
              0.449348820124550E+02
              0.584107841303087E+01
              0.350968668626126E+02
              0.486613304426920E+02
              0.123791106381466E+02
             -0.641920778360080E+02
             -0.282634904473528E+02
             -0.473493529498903E+02
             -0.296634081897482E+02
             -0.961298832033634E+01
              0.117148950010272E+02
             -0.222753946337767E+02
              0.150822405294980E+01
             -0.717978060467233E+02
              0.179062483928004E+01
             -0.454755363530222E+02
              0.446542655698753E+02
             -0.240749813509498E+02
             -0.470159716489073E+01
              0.321502260124130E+02
              0.345364366413794E+01
              0.319375890767286E+02
             -0.574258875572108E+02
              0.125894988484087E+02
              0.388948720037982E+01
              0.231713932325234E+02
              0.414233774448190E+02
             -0.730476548061844E+01
             -0.453499409361501E+02
             -0.260303302742656E+02
             -0.178774638371751E+02
             -0.865401342192843E+01
              0.428141094424997E+02
              0.263778012562790E+02
             -0.276109297998971E+02
             -0.250748705545627E+02
              0.206991381057185E+02
              0.203241679228167E+02
             -0.563906458538222E+02
              0.157335774766226E+02
              0.412909423522555E+02
             -0.205720634193282E+01
              0.484768478855100E+02
              0.244970052764242E+02
              0.387161108842932E+02
              0.589043290628706E+02
              0.971535468768505E+01
             -0.821022131426091E+02
              0.846354692433728E+01
              0.911412718903088E+02
              0.656306485847925E+02
             -0.439870310401977E+02
              0.440832270523877E+01
              0.572004649960118E+02
              0.518962666365111E+02
              0.247523576347666E+02
             -0.130722798390778E+02
              0.236922319589777E+02
              0.495933081352700E+02
             -0.222027718649529E+02
             -0.159159570492691E+02
              0.310070208087353E+02
             -0.217563081913480E+01
              0.292036904395418E+02
             -0.729932879338616E+01
              0.599883911165106E+02
             -0.228902223294600E+02
              0.137964647727524E+02
             -0.278747298384151E+02
              0.283003111341952E+02
             -0.375425078151241E+01
              0.447935734166800E+02
              0.316038654283236E+01
              0.178002362189379E+02
             -0.297089020725827E+02
             -0.182457735100281E+02
             -0.861279284336678E+01
             -0.747214147808769E+01
              0.469873404682543E+02
              0.195745937845814E+02
              0.602564776786765E+02
              0.503826110556917E+02
              0.112888205057442E+02
              0.415587147903949E+00
              0.589490913857624E+02
              0.310448871064391E+02
              0.870863792884990E+00
              0.523847105979258E+02
             -0.469822817834541E+02
              0.153696526063980E+02
             -0.296203293717377E+02
             -0.116796747404709E+02
              0.755074684111486E+02
             -0.115262477727972E+02
             -0.592517220360207E+00
             -0.990257151134270E+01
              0.627772914238618E+02
             -0.145952889615132E+02
             -0.173029849691645E+01
              0.126589451845678E+03
             -0.408665758903302E+02
             -0.438244029003371E+02
             -0.458285352534299E+02
             -0.268962641062840E+02
              0.267540640770776E+02
             -0.114169337271979E+02
              0.735721506328764E+01
             -0.235761201274408E+01
              0.160901538813378E+02
              0.261127328756929E+02
              0.301928744928057E+02
              0.441836240031509E+02
              0.245125045133301E+02
              0.309742114499298E+02
             -0.502108469735567E+02
             -0.482234682531976E+02
             -0.121254011998128E+02
             -0.471733425749919E+02
              0.754122565654608E+02
              0.646221000040888E+02
              0.309122886277624E+02
              0.837336342297012E+02
             -0.435625351978380E+02
             -0.176971965141008E+02
             -0.247365593300050E+02
              0.693374307234209E+02
 
 BEEF-vdW xc energy contributions
            1 :    -634.2488505939662     
            2 :     571.2028759262935     
            3 :    -465.7417665764917     
            4 :     348.9536399965412     
            5 :    -248.0378681887532     
            6 :     175.9016763400492     
            7 :    -129.8175327755189     
            8 :     98.36043873310712     
            9 :    -71.04850289619662     
           10 :     44.40467940341557     
           11 :    -21.54819536106675     
           12 :     7.167961777409232     
           13 :    -2.466613351616616     
           14 :     3.805008309993127     
           15 :    -5.434620124839739     
           16 :     3.607950988683456     
           17 :     1.286288536785150     
           18 :    -5.960534364739715     
           19 :     7.472514980581764     
           20 :    -5.725160007664954     
           21 :     3.361065161962415     
           22 :    -3.422646133191051     
           23 :     6.859560464535889     
           24 :    -11.87967845576100     
           25 :     15.50082475781630     
           26 :    -15.89567003603497     
           27 :     13.62585990929358     
           28 :    -10.90845830311900     
           29 :     9.685854345366124     
           30 :    -10.14280955472145     
           31 :    -54.11072397993541     
           32 :    -37.04427240980078     

     Writing all to output data dir ./GaN.save/
 
     init_run     :      2.83s CPU      5.69s WALL (       1 calls)
     electrons    :     21.34s CPU     21.89s WALL (       1 calls)
     forces       :      1.25s CPU      1.26s WALL (       1 calls)
     stress       :      5.29s CPU      5.36s WALL (       1 calls)

     Called by init_run:
     wfcinit      :      0.96s CPU      3.71s WALL (       1 calls)
     potinit      :      1.47s CPU      1.52s WALL (       1 calls)
     hinit0       :      0.25s CPU      0.28s WALL (       1 calls)

     Called by electrons:
     c_bands      :     19.24s CPU     19.69s WALL (       2 calls)
     sum_band     :      1.38s CPU      1.43s WALL (       2 calls)
     v_of_rho     :      1.22s CPU      1.26s WALL (       2 calls)
     v_h          :      0.00s CPU      0.00s WALL (       2 calls)
     v_xc         :      7.49s CPU      7.59s WALL (      38 calls)
     newd         :      0.10s CPU      0.11s WALL (       2 calls)
     PAW_pot      :      0.83s CPU      0.84s WALL (       2 calls)
     mix_rho      :      0.00s CPU      0.00s WALL (       2 calls)
     vdW_kernel   :      0.85s CPU      0.86s WALL (       1 calls)

     Called by c_bands:
     init_us_2    :      0.17s CPU      0.18s WALL (      48 calls)
     init_us_2:cp :      0.17s CPU      0.17s WALL (      48 calls)
     cegterg      :     18.96s CPU     19.15s WALL (      16 calls)

     Called by sum_band:
     sum_band:wei :      0.00s CPU      0.00s WALL (       2 calls)
     sum_band:loo :      1.22s CPU      1.25s WALL (       2 calls)
     sum_band:buf :      0.04s CPU      0.05s WALL (      16 calls)
     sum_band:ini :      0.05s CPU      0.05s WALL (      16 calls)
     sum_band:cal :      0.26s CPU      0.27s WALL (      16 calls)
     sum_band:bec :      0.01s CPU      0.01s WALL (      16 calls)
     addusdens    :      0.14s CPU      0.15s WALL (       2 calls)
     addusd:skk   :      0.00s CPU      0.01s WALL (       4 calls)
     addusd:dgemm :      0.09s CPU      0.10s WALL (       4 calls)
     addusd:qvan2 :      0.04s CPU      0.04s WALL (       4 calls)

     Called by *egterg:
     cdiaghg      :      9.60s CPU      9.65s WALL (      79 calls)
     cegterg:over :      1.21s CPU      1.22s WALL (      79 calls)
     cegterg:upda :      0.87s CPU      0.88s WALL (      79 calls)
     cegterg:last :      0.28s CPU      0.28s WALL (      16 calls)
     h_psi        :      5.84s CPU      5.93s WALL (      95 calls)
     s_psi        :      0.69s CPU      0.70s WALL (      95 calls)
     g_psi        :      0.01s CPU      0.01s WALL (      79 calls)

     Called by h_psi:
     h_psi:calbec :      0.86s CPU      0.87s WALL (      95 calls)
     vloc_psi     :      4.24s CPU      4.30s WALL (      95 calls)
     add_vuspsi   :      0.69s CPU      0.70s WALL (      95 calls)

     General routines
     calbec       :      1.89s CPU      1.91s WALL (     151 calls)
     fft          :      2.90s CPU      2.95s WALL (    2232 calls)
     ffts         :      0.01s CPU      0.01s WALL (       4 calls)
     fftw         :      4.79s CPU      4.86s WALL (   17490 calls)
     interpolate  :      0.01s CPU      0.01s WALL (       2 calls)
 
     Parallel routines

     PAW routines
     PAW_pot      :      0.83s CPU      0.84s WALL (       2 calls)
     PAW_symme    :      0.00s CPU      0.00s WALL (       3 calls)
 
     PWSCF        :     37.72s CPU     42.74s WALL

 
   This run was terminated on:   6:25: 8  28Mar2024            

=------------------------------------------------------------------------------=
   JOB DONE.
=------------------------------------------------------------------------------=
