
     Program PWSCF v.7.1 starts on 24Mar2024 at 22:16:19 

     This program is part of the open-source Quantum ESPRESSO suite
     for quantum simulation of materials; please cite
         "P. Giannozzi et al., J. Phys.:Condens. Matter 21 395502 (2009);
         "P. Giannozzi et al., J. Phys.:Condens. Matter 29 465901 (2017);
         "P. Giannozzi et al., J. Chem. Phys. 152 154105 (2020);
          URL http://www.quantum-espresso.org", 
     in publications or presentations arising from this work. More details at
     http://www.quantum-espresso.org/quote

     Parallel version (MPI & OpenMP), running on     128 processor cores
     Number of MPI processes:               128
     Threads/MPI process:                     1

     MPI processes distributed on     1 nodes
     1986213 MiB available memory on the printing compute node when the environment starts
 
     Reading input from espresso.pwi
Warning: card &CELL ignored
Warning: card    CELL_DYNAMICS    = 'BFGS' ignored
Warning: card / ignored

     Current dimensions of program PWSCF are:
     Max number of different atomic species (ntypx) = 10
     Max number of k-points (npk) =  40000
     Max angular momentum in pseudopotentials (lmaxx) =  4
     file Pb.pbe-dn-kjpaw_psl.1.0.0.UPF: wavefunction(s)  6S 6P 5D renormalized
     file I.pbe-dn-kjpaw_psl.1.0.0.UPF: wavefunction(s)  5S 5P renormalized

     **************************************************************************
     Initializing libbeef V0.1.2 with the BEEF-vdW functional.
     Citation: Wellendorff et al., PRB 85, 235149 (2012).
     **************************************************************************


     IMPORTANT: XC functional enforced from input :
     Exchange-correlation= BEEF-VDW
                           (   1   4  43  14   2   0   0)
     Any further DFT definition will be discarded
     Please, verify this is what you really want

 
     band groups division:  nbgrp     =       2
     R & G space division:  proc/nbgrp/npool/nimage =      64
     Subspace diagonalization in iterative solution of the eigenvalue problem:
     a serial algorithm will be used

 
     Parallelization info
     --------------------
     sticks:   dense  smooth     PW     G-vecs:    dense   smooth      PW
     Min         477     381     95                52893    37845    4727
     Max         478     382     96                52896    37852    4732
     Sum       30577   24439   6121              3385235  2422379  302703
 
     Using Slab Decomposition
 


     bravais-lattice index     =            4
     lattice parameter (alat)  =      35.6073  a.u.
     unit-cell volume          =   30614.2220 (a.u.)^3
     number of atoms/cell      =           96
     number of atomic types    =            2
     number of electrons       =      1531.00
     number of Kohn-Sham states=          919
     kinetic-energy cutoff     =      70.0000  Ry
     charge density cutoff     =     350.0000  Ry
     scf convergence threshold =      1.0E-07
     mixing beta               =       0.7000
     number of iterations used =            8  plain     mixing
     energy convergence thresh.=      1.0E-04
     force convergence thresh. =      1.0E-03
     Exchange-correlation= BEEF-VDW
                           (   1   4  43  14   2   0   0)
     nstep                     =           50


     celldm(1)=  35.607290  celldm(2)=   0.000000  celldm(3)=   0.783025
     celldm(4)=   0.000000  celldm(5)=   0.000000  celldm(6)=   0.000000

     crystal axes: (cart. coord. in units of alat)
               a(1) = (   1.000000   0.000000   0.000000 )  
               a(2) = (  -0.500000   0.866025   0.000000 )  
               a(3) = (   0.000000   0.000000   0.783025 )  

     reciprocal axes: (cart. coord. in units 2 pi/alat)
               b(1) = (  1.000000  0.577350 -0.000000 )  
               b(2) = (  0.000000  1.154701  0.000000 )  
               b(3) = (  0.000000 -0.000000  1.277098 )  


     PseudoPot. # 1 for Pb read from file:
     //group///packages/espresso/pseudo/psl_1.0.0/pslibrary.1.0.0/pbe/PSEUDOPOTENTIALS/Pb.pbe-dn-kjpaw_psl.1.0.0.UPF
     MD5 check sum: 39ab5b8a6bbd56b7735ad9f188aac93a
     Pseudo is Projector augmented-wave + core cor, Zval = 14.0
     Generated using 'atomic' code by A. Dal Corso  v.7.1
     Shape of augmentation charge: PSQ
     Using radial grid of 1281 points,  6 beta functions with: 
                l(1) =   0
                l(2) =   0
                l(3) =   1
                l(4) =   1
                l(5) =   2
                l(6) =   2
     Q(r) pseudized with 0 coefficients 


     PseudoPot. # 2 for I  read from file:
     //group///packages/espresso/pseudo/psl_1.0.0/pslibrary.1.0.0/pbe/PSEUDOPOTENTIALS/I.pbe-dn-kjpaw_psl.1.0.0.UPF
     MD5 check sum: bfa8781bc1224d19af3f3980e3fab11e
     Pseudo is Projector augmented-wave + core cor, Zval = 17.0
     Generated using 'atomic' code by A. Dal Corso  v.7.1
     Shape of augmentation charge: PSQ
     Using radial grid of 1247 points,  6 beta functions with: 
                l(1) =   0
                l(2) =   0
                l(3) =   1
                l(4) =   1
                l(5) =   2
                l(6) =   2
     Q(r) pseudized with 0 coefficients 


     atomic species   valence    mass     pseudopotential
        Pb            14.00   207.20000     Pb( 1.00)
        I             17.00   126.90447     I ( 1.00)

     No symmetry found


                                    s                        frac. trans.

      isym =  1     identity                                     

 cryst.   s( 1) = (     1          0          0      )
                  (     0          1          0      )
                  (     0          0          1      )

 cart.    s( 1) = (  1.0000000  0.0000000  0.0000000 )
                  (  0.0000000  1.0000000  0.0000000 )
                  (  0.0000000  0.0000000  1.0000000 )


     point group C_1 (1)    
     there are  1 classes
     the character table:

       E    
A      1.00

     the symmetry operations in each class and the name of the first element:

     E        1
          identity                                               

   Cartesian axes

     site n.     atom                  positions (alat units)
         1           Pb  tau(   1) = (   0.1250086   0.2164870   0.7830203  )
         2           Pb  tau(   2) = (   0.1250034   0.2164916   0.3915076  )
         3           Pb  tau(   3) = (   0.0000077   0.4329922   0.7830161  )
         4           Pb  tau(   4) = (   0.0000025   0.4329968   0.3915034  )
         5           Pb  tau(   5) = (  -0.1249932   0.6494975   0.7830119  )
         6           Pb  tau(   6) = (  -0.1249984   0.6495021   0.3914992  )
         7           Pb  tau(   7) = (  -0.2499941   0.8660028   0.7830077  )
         8           Pb  tau(   8) = (  -0.2499993   0.8660074   0.3914950  )
         9           Pb  tau(   9) = (   0.3750086   0.2164859   0.7830237  )
        10           Pb  tau(  10) = (   0.3750034   0.2164905   0.3915110  )
        11           Pb  tau(  11) = (   0.2500077   0.4329912   0.7830194  )
        12           Pb  tau(  12) = (   0.2500025   0.4329958   0.3915068  )
        13           Pb  tau(  13) = (   0.1250068   0.6494965   0.7830152  )
        14           Pb  tau(  14) = (   0.1250016   0.6495011   0.3915026  )
        15           Pb  tau(  15) = (   0.0000059   0.8660017   0.7830110  )
        16           Pb  tau(  16) = (   0.0000007   0.8660063   0.3914983  )
        17           Pb  tau(  17) = (   0.6250086   0.2164849   0.7830270  )
        18           Pb  tau(  18) = (   0.6250034   0.2164895   0.3915143  )
        19           Pb  tau(  19) = (   0.5000077   0.4329901   0.7830228  )
        20           Pb  tau(  20) = (   0.5000025   0.4329947   0.3915101  )
        21           Pb  tau(  21) = (   0.3750068   0.6494954   0.7830186  )
        22           Pb  tau(  22) = (   0.3750016   0.6495000   0.3915059  )
        23           Pb  tau(  23) = (   0.2500059   0.8660007   0.7830144  )
        24           Pb  tau(  24) = (   0.2500007   0.8660053   0.3915017  )
        25           Pb  tau(  25) = (   0.8750086   0.2164838   0.7830303  )
        26           Pb  tau(  26) = (   0.8750034   0.2164884   0.3915177  )
        27           Pb  tau(  27) = (   0.7500077   0.4329891   0.7830261  )
        28           Pb  tau(  28) = (   0.7500025   0.4329937   0.3915135  )
        29           Pb  tau(  29) = (   0.6250068   0.6494944   0.7830219  )
        30           Pb  tau(  30) = (   0.6250016   0.6494990   0.3915092  )
        31           Pb  tau(  31) = (   0.5000059   0.8659996   0.7830177  )
        32           Pb  tau(  32) = (   0.5000007   0.8660042   0.3915050  )
        33           I   tau(  33) = (   0.1250108   0.0721500   0.6824290  )
        34           I   tau(  34) = (   0.0000047   0.2886599   0.2909121  )
        35           I   tau(  35) = (   0.0000099   0.2886553   0.6824248  )
        36           I   tau(  36) = (  -0.1249962   0.5051652   0.2909079  )
        37           I   tau(  37) = (  -0.1249910   0.5051606   0.6824206  )
        38           I   tau(  38) = (  -0.2499972   0.7216704   0.2909037  )
        39           I   tau(  39) = (  -0.2499919   0.7216658   0.6824164  )
        40           I   tau(  40) = (   0.3750056   0.0721536   0.2909197  )
        41           I   tau(  41) = (   0.3750108   0.0721490   0.6824324  )
        42           I   tau(  42) = (   0.2500047   0.2886589   0.2909155  )
        43           I   tau(  43) = (   0.2500099   0.2886543   0.6824282  )
        44           I   tau(  44) = (   0.1250038   0.5051641   0.2909113  )
        45           I   tau(  45) = (   0.1250090   0.5051595   0.6824240  )
        46           I   tau(  46) = (   0.0000028   0.7216694   0.2909071  )
        47           I   tau(  47) = (   0.0000081   0.7216648   0.6824197  )
        48           I   tau(  48) = (   0.6250056   0.0721525   0.2909230  )
        49           I   tau(  49) = (   0.6250108   0.0721479   0.6824357  )
        50           I   tau(  50) = (   0.5000047   0.2886578   0.2909188  )
        51           I   tau(  51) = (   0.5000099   0.2886532   0.6824315  )
        52           I   tau(  52) = (   0.3750038   0.5051631   0.2909146  )
        53           I   tau(  53) = (   0.3750090   0.5051585   0.6824273  )
        54           I   tau(  54) = (   0.2500028   0.7216683   0.2909104  )
        55           I   tau(  55) = (   0.2500081   0.7216637   0.6824231  )
        56           I   tau(  56) = (   0.8750056   0.0721515   0.2909264  )
        57           I   tau(  57) = (   0.8750108   0.0721469   0.6824391  )
        58           I   tau(  58) = (   0.7500047   0.2886567   0.2909222  )
        59           I   tau(  59) = (   0.7500099   0.2886521   0.6824348  )
        60           I   tau(  60) = (   0.6250038   0.5051620   0.2909180  )
        61           I   tau(  61) = (   0.6250090   0.5051574   0.6824306  )
        62           I   tau(  62) = (   0.5000028   0.7216673   0.2909137  )
        63           I   tau(  63) = (   0.5000081   0.7216627   0.6824264  )
        64           I   tau(  64) = (  -0.0000018   0.1443297   0.1005933  )
        65           I   tau(  65) = (   0.0000034   0.1443251   0.4921060  )
        66           I   tau(  66) = (  -0.1250027   0.3608350   0.1005891  )
        67           I   tau(  67) = (  -0.1249975   0.3608304   0.4921018  )
        68           I   tau(  68) = (  -0.2500036   0.5773403   0.1005849  )
        69           I   tau(  69) = (  -0.2499984   0.5773357   0.4920975  )
        70           I   tau(  70) = (  -0.3750045   0.7938455   0.1005807  )
        71           I   tau(  71) = (  -0.3749993   0.7938409   0.4920933  )
        72           I   tau(  72) = (   0.2499982   0.1443287   0.1005966  )
        73           I   tau(  73) = (   0.2500034   0.1443241   0.4921093  )
        74           I   tau(  74) = (   0.1249973   0.3608340   0.1005924  )
        75           I   tau(  75) = (   0.1250025   0.3608294   0.4921051  )
        76           I   tau(  76) = (  -0.0000036   0.5773392   0.1005882  )
        77           I   tau(  77) = (   0.0000016   0.5773346   0.4921009  )
        78           I   tau(  78) = (  -0.1250045   0.7938445   0.1005840  )
        79           I   tau(  79) = (  -0.1249993   0.7938399   0.4920967  )
        80           I   tau(  80) = (   0.4999982   0.1443276   0.1006000  )
        81           I   tau(  81) = (   0.5000034   0.1443230   0.4921126  )
        82           I   tau(  82) = (   0.3749973   0.3608329   0.1005958  )
        83           I   tau(  83) = (   0.3750025   0.3608283   0.4921084  )
        84           I   tau(  84) = (   0.2499964   0.5773382   0.1005915  )
        85           I   tau(  85) = (   0.2500016   0.5773336   0.4921042  )
        86           I   tau(  86) = (   0.1249955   0.7938434   0.1005873  )
        87           I   tau(  87) = (   0.1250007   0.7938388   0.4921000  )
        88           I   tau(  88) = (   0.7499982   0.1443266   0.1006033  )
        89           I   tau(  89) = (   0.7500034   0.1443220   0.4921160  )
        90           I   tau(  90) = (   0.6249973   0.3608319   0.1005991  )
        91           I   tau(  91) = (   0.6250025   0.3608273   0.4921118  )
        92           I   tau(  92) = (   0.4999964   0.5773371   0.1005949  )
        93           I   tau(  93) = (   0.5000016   0.5773325   0.4921076  )
        94           I   tau(  94) = (   0.3749955   0.7938424   0.1005907  )
        95           I   tau(  95) = (   0.3750007   0.7938378   0.4921034  )
        96           Pb  tau(  96) = (   0.1250056   0.0721546   0.2909163  )

   Crystallographic axes

     site n.     atom                  positions (cryst. coord.)
         1           Pb  tau(   1) = (  0.2499975  0.2499776  0.9999935  )
         2           Pb  tau(   2) = (  0.2499949  0.2499829  0.4999935  )
         3           Pb  tau(   3) = (  0.2499959  0.4999764  0.9999882  )
         4           Pb  tau(   4) = (  0.2499933  0.4999817  0.4999882  )
         5           Pb  tau(   5) = (  0.2499944  0.7499751  0.9999828  )
         6           Pb  tau(   6) = (  0.2499918  0.7499804  0.4999828  )
         7           Pb  tau(   7) = (  0.2499928  0.9999739  0.9999774  )
         8           Pb  tau(   8) = (  0.2499903  0.9999792  0.4999774  )
         9           Pb  tau(   9) = (  0.4999968  0.2499764  0.9999978  )
        10           Pb  tau(  10) = (  0.4999943  0.2499817  0.4999978  )
        11           Pb  tau(  11) = (  0.4999953  0.4999752  0.9999924  )
        12           Pb  tau(  12) = (  0.4999927  0.4999805  0.4999924  )
        13           Pb  tau(  13) = (  0.4999938  0.7499739  0.9999871  )
        14           Pb  tau(  14) = (  0.4999912  0.7499792  0.4999871  )
        15           Pb  tau(  15) = (  0.4999922  0.9999727  0.9999817  )
        16           Pb  tau(  16) = (  0.4999896  0.9999780  0.4999817  )
        17           Pb  tau(  17) = (  0.7499962  0.2499752  1.0000021  )
        18           Pb  tau(  18) = (  0.7499936  0.2499805  0.5000021  )
        19           Pb  tau(  19) = (  0.7499947  0.4999739  0.9999967  )
        20           Pb  tau(  20) = (  0.7499921  0.4999793  0.4999967  )
        21           Pb  tau(  21) = (  0.7499932  0.7499727  0.9999913  )
        22           Pb  tau(  22) = (  0.7499906  0.7499780  0.4999913  )
        23           Pb  tau(  23) = (  0.7499916  0.9999714  0.9999860  )
        24           Pb  tau(  24) = (  0.7499890  0.9999767  0.4999860  )
        25           Pb  tau(  25) = (  0.9999956  0.2499740  1.0000064  )
        26           Pb  tau(  26) = (  0.9999930  0.2499793  0.5000064  )
        27           Pb  tau(  27) = (  0.9999941  0.4999727  1.0000010  )
        28           Pb  tau(  28) = (  0.9999915  0.4999780  0.5000010  )
        29           Pb  tau(  29) = (  0.9999926  0.7499715  0.9999956  )
        30           Pb  tau(  30) = (  0.9999900  0.7499768  0.4999956  )
        31           Pb  tau(  31) = (  0.9999910  0.9999702  0.9999902  )
        32           Pb  tau(  32) = (  0.9999884  0.9999755  0.4999902  )
        33           I   tau(  33) = (  0.1666667  0.0833117  0.8715286  )
        34           I   tau(  34) = (  0.1666625  0.3333157  0.3715233  )
        35           I   tau(  35) = (  0.1666651  0.3333104  0.8715233  )
        36           I   tau(  36) = (  0.1666610  0.5833145  0.3715179  )
        37           I   tau(  37) = (  0.1666636  0.5833092  0.8715179  )
        38           I   tau(  38) = (  0.1666595  0.8333132  0.3715125  )
        39           I   tau(  39) = (  0.1666621  0.8333079  0.8715125  )
        40           I   tau(  40) = (  0.4166635  0.0833158  0.3715329  )
        41           I   tau(  41) = (  0.4166661  0.0833105  0.8715329  )
        42           I   tau(  42) = (  0.4166619  0.3333145  0.3715275  )
        43           I   tau(  43) = (  0.4166645  0.3333092  0.8715275  )
        44           I   tau(  44) = (  0.4166604  0.5833133  0.3715222  )
        45           I   tau(  45) = (  0.4166630  0.5833080  0.8715221  )
        46           I   tau(  46) = (  0.4166589  0.8333120  0.3715168  )
        47           I   tau(  47) = (  0.4166614  0.8333067  0.8715168  )
        48           I   tau(  48) = (  0.6666629  0.0833146  0.3715372  )
        49           I   tau(  49) = (  0.6666655  0.0833093  0.8715372  )
        50           I   tau(  50) = (  0.6666613  0.3333133  0.3715318  )
        51           I   tau(  51) = (  0.6666639  0.3333080  0.8715318  )
        52           I   tau(  52) = (  0.6666598  0.5833121  0.3715264  )
        53           I   tau(  53) = (  0.6666624  0.5833068  0.8715264  )
        54           I   tau(  54) = (  0.6666582  0.8333108  0.3715210  )
        55           I   tau(  55) = (  0.6666608  0.8333055  0.8715210  )
        56           I   tau(  56) = (  0.9166623  0.0833134  0.3715414  )
        57           I   tau(  57) = (  0.9166648  0.0833080  0.8715414  )
        58           I   tau(  58) = (  0.9166607  0.3333121  0.3715361  )
        59           I   tau(  59) = (  0.9166633  0.3333068  0.8715361  )
        60           I   tau(  60) = (  0.9166592  0.5833108  0.3715307  )
        61           I   tau(  61) = (  0.9166618  0.5833055  0.8715307  )
        62           I   tau(  62) = (  0.9166576  0.8333096  0.3715253  )
        63           I   tau(  63) = (  0.9166602  0.8333043  0.8715253  )
        64           I   tau(  64) = (  0.0833270  0.1666576  0.1284675  )
        65           I   tau(  65) = (  0.0833296  0.1666523  0.6284675  )
        66           I   tau(  66) = (  0.0833255  0.4166564  0.1284621  )
        67           I   tau(  67) = (  0.0833281  0.4166511  0.6284621  )
        68           I   tau(  68) = (  0.0833239  0.6666551  0.1284567  )
        69           I   tau(  69) = (  0.0833265  0.6666498  0.6284567  )
        70           I   tau(  70) = (  0.0833224  0.9166539  0.1284513  )
        71           I   tau(  71) = (  0.0833250  0.9166486  0.6284513  )
        72           I   tau(  72) = (  0.3333264  0.1666564  0.1284717  )
        73           I   tau(  73) = (  0.3333290  0.1666511  0.6284717  )
        74           I   tau(  74) = (  0.3333249  0.4166552  0.1284664  )
        75           I   tau(  75) = (  0.3333275  0.4166499  0.6284663  )
        76           I   tau(  76) = (  0.3333233  0.6666539  0.1284610  )
        77           I   tau(  77) = (  0.3333259  0.6666486  0.6284610  )
        78           I   tau(  78) = (  0.3333218  0.9166527  0.1284556  )
        79           I   tau(  79) = (  0.3333244  0.9166473  0.6284556  )
        80           I   tau(  80) = (  0.5833258  0.1666552  0.1284760  )
        81           I   tau(  81) = (  0.5833284  0.1666499  0.6284760  )
        82           I   tau(  82) = (  0.5833243  0.4166539  0.1284706  )
        83           I   tau(  83) = (  0.5833269  0.4166486  0.6284706  )
        84           I   tau(  84) = (  0.5833227  0.6666527  0.1284652  )
        85           I   tau(  85) = (  0.5833253  0.6666474  0.6284652  )
        86           I   tau(  86) = (  0.5833212  0.9166514  0.1284599  )
        87           I   tau(  87) = (  0.5833238  0.9166461  0.6284599  )
        88           I   tau(  88) = (  0.8333252  0.1666540  0.1284803  )
        89           I   tau(  89) = (  0.8333278  0.1666487  0.6284803  )
        90           I   tau(  90) = (  0.8333237  0.4166527  0.1284749  )
        91           I   tau(  91) = (  0.8333262  0.4166474  0.6284749  )
        92           I   tau(  92) = (  0.8333221  0.6666515  0.1284695  )
        93           I   tau(  93) = (  0.8333247  0.6666462  0.6284695  )
        94           I   tau(  94) = (  0.8333206  0.9166502  0.1284641  )
        95           I   tau(  95) = (  0.8333232  0.9166449  0.6284641  )
        96           Pb  tau(  96) = (  0.1666641  0.0833170  0.3715286  )

     number of k points=     1  Gaussian smearing, width (Ry)=  0.0100
                       cart. coord. in units 2pi/alat
        k(    1) = (   0.0000000   0.0000000   0.0000000), wk =   2.0000000

                       cryst. coord.
        k(    1) = (   0.0000000   0.0000000   0.0000000), wk =   2.0000000

     Dense  grid:  3385235 G-vectors     FFT dimensions: ( 216, 216, 180)

     Smooth grid:  2422379 G-vectors     FFT dimensions: ( 192, 192, 150)

     Dynamical RAM for                 wfc:      66.33 MB

     Dynamical RAM for     wfc (w. buffer):      66.33 MB

     Dynamical RAM for           str. fact:       1.61 MB

     Dynamical RAM for           local pot:       0.00 MB

     Dynamical RAM for          nlocal pot:     124.72 MB

     Dynamical RAM for                qrad:       3.00 MB

     Dynamical RAM for          rho,v,vnew:       5.63 MB

     Dynamical RAM for               rhoin:       1.88 MB

     Dynamical RAM for            rho*nmix:      12.91 MB

     Dynamical RAM for           G-vectors:       3.32 MB

     Dynamical RAM for          h,s,v(r/c):     618.57 MB

     Dynamical RAM for          <psi|beta>:      24.23 MB

     Dynamical RAM for                 psi:     265.31 MB

     Dynamical RAM for                hpsi:     265.31 MB

     Dynamical RAM for                spsi:     265.31 MB

     Dynamical RAM for      wfcinit/wfcrot:     151.99 MB

     Dynamical RAM for           addusdens:     200.98 MB

     Dynamical RAM for          addusforce:     301.71 MB

     Dynamical RAM for         addusstress:     162.23 MB

     Estimated static dynamical RAM per process >     214.24 MB

     Estimated max dynamical RAM per process >       1.63 GB

     Estimated total dynamical RAM >     208.24 GB

     Atomic positions and unit cell read from directory:
     ./PbI2.save/
     Atomic positions from file used, from input discarded
 

     Check: negative core charge=   -0.000001

     The initial density is read from file :
     ./PbI2.save/charge-density



     %%%%%%%%%%%%%%%%%%%%%%%%%%%%%%%%%%%%%%%%%%%%%%%%%%%%%%%%%%%%%%%%%%%%%%%%
     %                                                                      %
     % You are using vdW-DF, which was implemented by the Thonhauser group. %
     % Please cite the following two papers that made this development      %
     % possible and the two reviews that describe the various versions:     %
     %                                                                      %
     %   T. Thonhauser et al., PRL 115, 136402 (2015).                      %
     %   T. Thonhauser et al., PRB 76, 125112 (2007).                       %
     %   K. Berland et al., Rep. Prog. Phys. 78, 066501 (2015).             %
     %   D.C. Langreth et al., J. Phys.: Condens. Matter 21, 084203 (2009). %
     %                                                                      %
     % If you are calculating stress with vdW-DF, please also cite:         %
     %                                                                      %
     %   R. Sabatini et al., J. Phys.: Condens. Matter 24, 424209 (2012).   %
     %                                                                      %
     %%%%%%%%%%%%%%%%%%%%%%%%%%%%%%%%%%%%%%%%%%%%%%%%%%%%%%%%%%%%%%%%%%%%%%%%

     %%%%%%%%%%%%%%%%%%%%%%%%%%%%%%%%%%%%%%%%%%%%%%%%%%%%%%%%%%%%%%%%%%%%%%%%
     %                                                                      %
     %  vdW-DF NEWS:                                                        %
     %                                                                      %
     %  * vdW-DF3 is now available. DOI: 10.1021/acs.jctc.0c00471           %
     %    use with input_dft = 'vdW-DF3-opt1' or 'vdW-DF3-opt2'             %
     %                                                                      %
     %  * Unscreened and range-separated vdW-DF hybrid functionals          %
     %    DOI: 10.1063/1.4986522 and 10.1088/1361-648X/ac2ad2               %
     %    use with input_dft = 'vdW-DF-cx0' (etc) and 'vdW-DF-ahcx'         %
     %                                                                      %
     %%%%%%%%%%%%%%%%%%%%%%%%%%%%%%%%%%%%%%%%%%%%%%%%%%%%%%%%%%%%%%%%%%%%%%%%


     Carrying out vdW-DF run using the following parameters:
     Nqs    =  20  Npoints =  1024  r_max =  100.000
     q_mesh =  0.00001000  0.04494208  0.09755937  0.15916263
               0.23128650  0.31572767  0.41458969  0.53033537
               0.66584808  0.82450364  1.01025438  1.22772762
               1.48234092  1.78043706  2.12944203  2.53805004
               3.01644009  3.57652955  4.23227104  5.00000000


     -----------------------------------------------
     Non-local corr. energy    =      45.71849183 Ry
     -----------------------------------------------

     Wavefunctions not found or not readable, recomputing them from scratch
     Starting wfcs are  864 randomized atomic wfcs +   55 random wfcs
     Checking if some PAW data can be deallocated... 
       PAW data deallocated on   63 nodes for type:  1
       PAW data deallocated on   65 nodes for type:  2

     total cpu time spent up to now is       20.9 secs

     Self-consistent Calculation

     iteration #  1     ecut=    70.00 Ry     beta= 0.70
     Davidson diagonalization with overlap

---- Real-time Memory Report at c_bands before calling an iterative solver
           608 MiB given to the printing process from OS
             0 MiB allocation reported by mallinfo(arena+hblkhd)
       1945488 MiB available memory on the node where the printing process lives
------------------
     ethr =  1.00E-05,  avg # of iterations = 36.0

     Threshold (ethr) on eigenvalues was too large:
     Diagonalizing with lowered threshold

     Davidson diagonalization with overlap

---- Real-time Memory Report at c_bands before calling an iterative solver
          1774 MiB given to the printing process from OS
             0 MiB allocation reported by mallinfo(arena+hblkhd)
       1917010 MiB available memory on the node where the printing process lives
------------------
     c_bands:  5 eigenvalues not converged
     ethr =  1.13E-08,  avg # of iterations = 20.0


     -----------------------------------------------
     Non-local corr. energy    =      45.71857450 Ry
     -----------------------------------------------


     total cpu time spent up to now is      700.2 secs

     total energy              =  -65089.50745926 Ry
     estimated scf accuracy    <       0.00000012 Ry

     iteration #  2     ecut=    70.00 Ry     beta= 0.70
     Davidson diagonalization with overlap

---- Real-time Memory Report at c_bands before calling an iterative solver
          1820 MiB given to the printing process from OS
             0 MiB allocation reported by mallinfo(arena+hblkhd)
       1896528 MiB available memory on the node where the printing process lives
------------------
     c_bands:  5 eigenvalues not converged
     ethr =  7.73E-12,  avg # of iterations = 40.0


     -----------------------------------------------
     Non-local corr. energy    =      45.71854971 Ry
     -----------------------------------------------


     total cpu time spent up to now is     1165.8 secs

     total energy              =  -65089.50745962 Ry
     estimated scf accuracy    <       0.00000065 Ry

     iteration #  3     ecut=    70.00 Ry     beta= 0.70
     Davidson diagonalization with overlap

---- Real-time Memory Report at c_bands before calling an iterative solver
          1847 MiB given to the printing process from OS
             0 MiB allocation reported by mallinfo(arena+hblkhd)
       1915409 MiB available memory on the node where the printing process lives
------------------
     c_bands:  2 eigenvalues not converged
     ethr =  7.73E-12,  avg # of iterations = 20.0


     -----------------------------------------------
     Non-local corr. energy    =      45.71846523 Ry
     -----------------------------------------------


     total cpu time spent up to now is     1501.3 secs

     End of self-consistent calculation

          k = 0.0000 0.0000 0.0000 (302703 PWs)   bands (ev):

   -41.2601 -41.2601 -41.2600 -41.2342 -41.2342 -41.2341 -41.2339 -41.2339
   -41.2338 -41.1605 -41.1604 -41.1604 -41.1601 -41.1601 -41.1600 -40.9596
   -40.9596 -40.9595 -40.9470 -40.9470 -40.9469 -40.9461 -40.9461 -40.9461
   -40.9103 -40.9103 -40.9103 -40.9098 -40.9098 -40.9098 -40.9000 -40.8999
   -40.8999 -40.8999 -40.8999 -40.8999 -40.8920 -40.8919 -40.8919 -40.8919
   -40.8919 -40.8919 -40.8892 -40.8892 -40.8892 -40.8891 -40.8891 -40.8891
   -40.8655 -40.8654 -40.8654 -40.8654 -40.8654 -40.8654 -40.8649 -40.8649
   -40.8649 -40.8649 -40.8648 -40.8648 -40.8360 -40.8360 -40.8360 -40.8249
   -40.8249 -40.8249 -40.8249 -40.8249 -40.8248 -40.8245 -40.8245 -40.8245
   -40.8245 -40.8244 -40.8244 -40.8239 -40.8239 -40.8238 -40.8218 -40.8218
   -40.8217 -40.8159 -40.8159 -40.8159 -40.8159 -40.8159 -40.8159 -40.8118
   -40.8117 -40.8117 -40.8117 -40.8117 -40.8117 -40.8105 -40.8105 -40.8105
   -40.8105 -40.8105 -40.8105 -40.7941 -40.7941 -40.7941 -40.7936 -40.7936
   -40.7936 -40.7894 -40.7894 -40.7894 -40.7881 -40.7881 -40.7881 -40.7877
   -40.7876 -40.7876 -40.7847 -40.7847 -40.7846 -40.7842 -40.7842 -40.7841
   -40.7779 -40.7779 -40.7731 -40.7731 -40.7731 -40.7729 -40.7729 -40.7729
   -40.7707 -40.7707 -40.7707 -40.7695 -40.7695 -40.7694 -40.7692 -40.7691
   -40.7691 -40.7648 -40.7648 -40.7615 -40.7615 -40.7615 -40.7602 -40.7600
   -40.7600 -40.7600 -40.7587 -40.7587 -40.7587 -40.7546 -40.7546 -40.7546
   -40.7540 -40.7540 -40.7540 -40.7470 -40.7470 -40.7469 -40.7468 -40.7468
   -40.7468 -40.7457 -40.7456 -40.7456 -40.7445 -40.7444 -40.7444 -40.7440
   -40.7440 -40.7440 -40.7336 -40.7336 -40.7288 -40.7288 -40.7269 -40.7150
   -40.7150 -40.7150 -40.7141 -40.7141 -40.7141 -40.7057 -40.7057 -40.7057
   -40.7034 -40.7034 -40.7034 -40.7018 -40.7018 -40.7018 -40.6787 -40.6787
   -40.6787 -40.6782 -40.6782 -40.6782 -40.6726 -40.6726 -40.6726 -40.6719
   -40.6719 -40.6719 -40.6708 -40.6708 -40.6708 -40.6573 -40.6572 -40.6572
   -40.6572 -40.6572 -40.6572 -40.6562 -40.6562 -40.6562 -40.6562 -40.6562
   -40.6562 -40.6549 -40.6549 -40.6549 -40.6548 -40.6548 -40.6548 -40.6542
   -40.6542 -40.6542 -40.6541 -40.6541 -40.6541 -40.6507 -40.6507 -40.6507
   -40.6499 -40.6499 -40.6499 -40.6499 -40.6499 -40.6498 -40.6493 -40.6493
   -40.6493 -40.6493 -40.6493 -40.6493 -40.6475 -40.6475 -40.6475 -40.6472
   -40.6472 -40.6472 -40.6453 -40.6453 -40.6453 -40.6430 -40.6430 -40.6383
   -40.6383 -40.6383 -40.6381 -40.6380 -40.6380 -40.6374 -40.6374 -40.6373
   -40.6370 -40.6370 -40.6370 -40.6366 -40.6366 -40.6365 -40.6325 -40.6325
   -40.6325 -40.6312 -40.6311 -40.6311 -40.6309 -40.6309 -40.6309 -40.6309
   -40.6309 -40.6309 -40.6306 -40.6306 -40.6305 -40.6303 -40.6303 -40.6303
   -40.6303 -40.6303 -40.6303 -40.6296 -40.6295 -40.6295 -40.6295 -40.6295
   -40.6295 -40.6292 -40.6292 -40.6292 -40.6292 -40.6292 -40.6292 -40.6290
   -40.6289 -40.6289 -40.6286 -40.6286 -40.6286 -40.6285 -40.6285 -40.6285
   -40.6282 -40.6282 -40.6282 -13.4992 -13.4992 -13.4179 -13.4179 -13.3750
   -13.0601 -13.0600 -13.0583 -13.0452 -13.0451 -13.0447 -13.0375 -13.0375
   -13.0355 -13.0342 -13.0342 -13.0338 -13.0329 -13.0329 -13.0325 -13.0303
   -13.0265 -13.0263 -13.0263 -13.0208 -13.0208 -13.0207 -13.0206 -13.0205
   -13.0152 -13.0131 -13.0131 -13.0109 -13.0109 -13.0093 -12.9461 -12.9461
   -12.9418 -12.9402 -12.9315 -12.9315 -12.9299 -12.9288 -12.9288 -12.9242
   -12.9231 -12.9231 -12.9211 -12.9211 -12.9192 -12.9192 -12.9186 -12.9176
   -12.9139 -12.9115 -12.9115 -12.9075 -12.9075 -12.9056 -12.9050 -12.9050
   -12.9015 -12.9015 -12.9002 -12.8995 -12.8988 -12.8988 -12.8977 -12.8976
   -12.8973 -12.8962 -12.8960 -12.8960 -12.8954 -12.8942 -12.8942 -12.8924
   -12.8924 -12.8921 -12.8906 -12.8905 -12.8905 -12.8895 -12.8895 -12.8891
   -12.8815 -12.8779 -12.8779 -12.8728 -12.8728 -12.8642 -12.8632 -12.8607
   -12.8607 -12.8575 -12.8575 -12.8553 -12.8541 -12.8526 -12.8526 -12.8250
   -12.8215 -12.8215 -12.8174 -12.8174 -12.8159 -12.8127 -12.8127 -12.8102
   -12.8086 -12.8086 -12.8077 -12.8049 -12.8042 -12.8042 -12.8028 -12.8024
   -12.8023 -12.7993 -12.7993 -12.7991 -12.7986 -12.7986 -12.7976 -12.7971
   -12.7956 -12.7956 -12.7953 -12.7953 -12.7935 -12.7870 -12.7870 -12.7865
   -12.7812 -12.7808 -12.7807 -12.7801 -12.7751 -12.7751 -12.7732 -12.7732
   -12.7724 -12.7723 -12.7689 -12.7684 -12.7683 -12.7682 -12.7675 -12.7675
   -12.7672 -12.7660 -12.7652 -12.7652 -12.7648 -12.7635 -12.7633 -12.7633
   -12.7612 -12.7612 -12.7606 -12.7606 -12.7590 -12.7583 -12.7573 -12.7573
    -8.2796  -8.0782  -8.0419  -8.0418  -7.9448  -7.9172  -7.9172  -7.9127
    -7.8900  -7.8900  -7.8341  -7.7929  -7.7928  -7.7393  -7.7379  -7.7379
    -7.7202  -7.7031  -7.7031  -7.6902  -7.6855  -7.6612  -7.6611  -7.6418
    -7.6418  -7.6007  -7.5999  -7.5999  -7.5970  -7.5711  -7.5711  -7.5663
    -7.5515  -7.5511  -7.5511  -7.5325  -7.5186  -7.5186  -7.5148  -7.5069
    -7.5057  -7.5057  -7.4968  -7.4968  -7.4953  -7.4853  -7.4737  -7.4737
    -7.4694  -7.4391  -7.4391  -7.4275  -7.4137  -7.4136  -7.4005  -7.3922
    -7.3922  -7.3688  -7.3688  -7.3673  -7.3550  -7.3550  -7.3539  -4.0309
    -3.7140  -3.7093  -3.7093  -3.6806  -3.6806  -3.6274  -3.6274  -3.6146
    -3.6108  -3.5518  -3.5354  -3.5354  -3.4994  -3.4923  -3.4894  -3.4894
    -3.4776  -3.4776  -3.4439  -3.4227  -3.4227  -3.3708  -3.3566  -3.3566
    -3.3210  -3.2382  -3.2382  -3.2240  -3.2240  -3.2158  -3.1785  -3.0178
     0.8050   0.8050   0.8606   1.0978   1.0978   1.1831   1.1833   1.1833
     1.2027   1.2160   1.2213   1.2213   1.2359   1.2359   1.3333   1.3749
     1.3888   1.3888   1.4290   1.4291   1.4390   1.4482   1.4753   1.4754
     1.4791   1.4791   1.4840   1.5499   1.5499   1.5580   1.5658   1.5658
     1.5735   1.5886   1.5886   1.5919   1.6669   1.6669   1.6808   1.7095
     1.7096   1.7251   1.7251   1.7256   1.7529   1.7529   1.8019   1.8019
     1.8087   1.8386   1.8424   1.8897   1.8897   1.8969   1.9751   2.0300
     2.0300   2.0652   2.0652   2.0819   2.0839   2.0839   2.0973   2.1024
     2.1024   2.1024   2.1151   2.1258   2.1258   2.1830   2.1830   2.1939
     2.1941   2.1942   2.2100   2.2341   2.2342   2.2407   2.2549   2.2550
     2.2552   2.2556   2.3012   2.3355   2.3442   2.3442   2.3561   2.3562
     2.3625   2.3625   2.3802   2.3840   2.3840   2.3996   2.4017   2.4017
     2.4159   2.4681   2.4764   2.4764   2.5294   2.5294   2.5332   2.5486
     2.5486   2.6038   2.6044   2.6044   2.6224   2.6224   2.6477   2.6593
     2.6797   2.6798   2.6949   2.7420   2.7469   2.7469   2.7634   2.7807
     2.7807   2.7998   2.7998   2.8372   2.8466   2.8466   2.8584   2.8584
     2.8741   2.8759   2.8759   2.8912   2.8956   2.8956   2.9025   2.9193
     2.9193   2.9580   2.9580   2.9711   2.9711   2.9824   2.9827   3.0111
     3.0238   3.0238   3.0334   3.0365   3.0365   3.0474   3.0529   3.0529
     3.0578   3.0710   3.0710   3.0737   3.0737   3.0819   3.0853   3.0853
     3.0981   3.1367   3.1367   3.1788   3.1788   3.2069   3.2265   3.2267
     3.2349   3.2367   3.2367   3.2569   3.2569   3.2721   3.2721   3.2724
     3.3499   3.3499   3.3863   3.4076   3.4076   3.4214   3.4510   3.4510
     3.4679   3.4703   3.4707   3.4707   3.5009   5.1733   5.8112   5.8113
     5.9452   6.2565   6.3198   6.4909   6.4909   6.5279   6.5280   6.5370
     6.5989   6.5989   6.6048   6.7429   6.7430   6.7430   6.7657   6.7657
     6.7941   6.7946   6.7947   6.8656   6.8727   6.8727   6.9508   6.9508
     6.9657   6.9925   6.9925   7.0014   7.0024   7.0024   7.0798   7.0798
     7.1477   7.1477   7.1531   7.1649   7.1724   7.2072   7.2072   7.2429
     7.2474   7.2726   7.2726   7.2791   7.2793   7.2793   7.3125   7.3126
     7.3166   7.3323   7.3323   7.3457   7.3514   7.3579   7.3579   7.3726
     7.3736   7.3736   7.4134   7.4134   7.4585   7.4592   7.4592   7.4728
     7.4919   7.4920   7.5081   7.5090   7.5090   7.5217   7.5217   7.5243
     7.5307   7.5485   7.5485   7.5579   7.5580   7.5685   7.5972   7.5972
     7.6276   7.6276   7.6370   7.6465   7.6509   7.6509   7.6688   7.7528
     7.7528   7.7861   7.8100   7.8143   7.8143   8.0866   8.0887   8.0887
     9.2273   9.2273   9.2485   9.7821   9.7983   9.7983   9.8554   9.8734
     9.8734   9.8906   9.9153   9.9153   9.9173  10.0497  10.0887  10.0887
    10.0960  10.0960  10.0975  10.1187  10.1222  10.1265  10.1265  10.1835
    10.1835  10.3370  10.3892  10.3946  10.3946  10.4264  10.4264  10.5038
    10.5079  10.5079  10.5452  10.5523  10.5524  10.5634  10.8340  10.8363
    10.8364  10.8496  10.8556  10.8557  10.9052  10.9544  10.9545  11.0228
    11.0228  11.0319  11.1331  11.1331  11.1494  11.2055  11.2055

     occupation numbers 
     1.0000   1.0000   1.0000   1.0000   1.0000   1.0000   1.0000   1.0000
     1.0000   1.0000   1.0000   1.0000   1.0000   1.0000   1.0000   1.0000
     1.0000   1.0000   1.0000   1.0000   1.0000   1.0000   1.0000   1.0000
     1.0000   1.0000   1.0000   1.0000   1.0000   1.0000   1.0000   1.0000
     1.0000   1.0000   1.0000   1.0000   1.0000   1.0000   1.0000   1.0000
     1.0000   1.0000   1.0000   1.0000   1.0000   1.0000   1.0000   1.0000
     1.0000   1.0000   1.0000   1.0000   1.0000   1.0000   1.0000   1.0000
     1.0000   1.0000   1.0000   1.0000   1.0000   1.0000   1.0000   1.0000
     1.0000   1.0000   1.0000   1.0000   1.0000   1.0000   1.0000   1.0000
     1.0000   1.0000   1.0000   1.0000   1.0000   1.0000   1.0000   1.0000
     1.0000   1.0000   1.0000   1.0000   1.0000   1.0000   1.0000   1.0000
     1.0000   1.0000   1.0000   1.0000   1.0000   1.0000   1.0000   1.0000
     1.0000   1.0000   1.0000   1.0000   1.0000   1.0000   1.0000   1.0000
     1.0000   1.0000   1.0000   1.0000   1.0000   1.0000   1.0000   1.0000
     1.0000   1.0000   1.0000   1.0000   1.0000   1.0000   1.0000   1.0000
     1.0000   1.0000   1.0000   1.0000   1.0000   1.0000   1.0000   1.0000
     1.0000   1.0000   1.0000   1.0000   1.0000   1.0000   1.0000   1.0000
     1.0000   1.0000   1.0000   1.0000   1.0000   1.0000   1.0000   1.0000
     1.0000   1.0000   1.0000   1.0000   1.0000   1.0000   1.0000   1.0000
     1.0000   1.0000   1.0000   1.0000   1.0000   1.0000   1.0000   1.0000
     1.0000   1.0000   1.0000   1.0000   1.0000   1.0000   1.0000   1.0000
     1.0000   1.0000   1.0000   1.0000   1.0000   1.0000   1.0000   1.0000
     1.0000   1.0000   1.0000   1.0000   1.0000   1.0000   1.0000   1.0000
     1.0000   1.0000   1.0000   1.0000   1.0000   1.0000   1.0000   1.0000
     1.0000   1.0000   1.0000   1.0000   1.0000   1.0000   1.0000   1.0000
     1.0000   1.0000   1.0000   1.0000   1.0000   1.0000   1.0000   1.0000
     1.0000   1.0000   1.0000   1.0000   1.0000   1.0000   1.0000   1.0000
     1.0000   1.0000   1.0000   1.0000   1.0000   1.0000   1.0000   1.0000
     1.0000   1.0000   1.0000   1.0000   1.0000   1.0000   1.0000   1.0000
     1.0000   1.0000   1.0000   1.0000   1.0000   1.0000   1.0000   1.0000
     1.0000   1.0000   1.0000   1.0000   1.0000   1.0000   1.0000   1.0000
     1.0000   1.0000   1.0000   1.0000   1.0000   1.0000   1.0000   1.0000
     1.0000   1.0000   1.0000   1.0000   1.0000   1.0000   1.0000   1.0000
     1.0000   1.0000   1.0000   1.0000   1.0000   1.0000   1.0000   1.0000
     1.0000   1.0000   1.0000   1.0000   1.0000   1.0000   1.0000   1.0000
     1.0000   1.0000   1.0000   1.0000   1.0000   1.0000   1.0000   1.0000
     1.0000   1.0000   1.0000   1.0000   1.0000   1.0000   1.0000   1.0000
     1.0000   1.0000   1.0000   1.0000   1.0000   1.0000   1.0000   1.0000
     1.0000   1.0000   1.0000   1.0000   1.0000   1.0000   1.0000   1.0000
     1.0000   1.0000   1.0000   1.0000   1.0000   1.0000   1.0000   1.0000
     1.0000   1.0000   1.0000   1.0000   1.0000   1.0000   1.0000   1.0000
     1.0000   1.0000   1.0000   1.0000   1.0000   1.0000   1.0000   1.0000
     1.0000   1.0000   1.0000   1.0000   1.0000   1.0000   1.0000   1.0000
     1.0000   1.0000   1.0000   1.0000   1.0000   1.0000   1.0000   1.0000
     1.0000   1.0000   1.0000   1.0000   1.0000   1.0000   1.0000   1.0000
     1.0000   1.0000   1.0000   1.0000   1.0000   1.0000   1.0000   1.0000
     1.0000   1.0000   1.0000   1.0000   1.0000   1.0000   1.0000   1.0000
     1.0000   1.0000   1.0000   1.0000   1.0000   1.0000   1.0000   1.0000
     1.0000   1.0000   1.0000   1.0000   1.0000   1.0000   1.0000   1.0000
     1.0000   1.0000   1.0000   1.0000   1.0000   1.0000   1.0000   1.0000
     1.0000   1.0000   1.0000   1.0000   1.0000   1.0000   1.0000   1.0000
     1.0000   1.0000   1.0000   1.0000   1.0000   1.0000   1.0000   1.0000
     1.0000   1.0000   1.0000   1.0000   1.0000   1.0000   1.0000   1.0000
     1.0000   1.0000   1.0000   1.0000   1.0000   1.0000   1.0000   1.0000
     1.0000   1.0000   1.0000   1.0000   1.0000   1.0000   1.0000   1.0000
     1.0000   1.0000   1.0000   1.0000   1.0000   1.0000   1.0000   1.0000
     1.0000   1.0000   1.0000   1.0000   1.0000   1.0000   1.0000   1.0000
     1.0000   1.0000   1.0000   1.0000   1.0000   1.0000   1.0000   1.0000
     1.0000   1.0000   1.0000   1.0000   1.0000   1.0000   1.0000   1.0000
     1.0000   1.0000   1.0000   1.0000   1.0000   1.0000   1.0000   1.0000
     1.0000   1.0000   1.0000   1.0000   1.0000   1.0000   1.0000   1.0000
     1.0000   1.0000   1.0000   1.0000   1.0000   1.0000   1.0000   1.0000
     1.0000   1.0000   1.0000   1.0000   1.0000   1.0000   1.0000   1.0000
     1.0000   1.0000   1.0000   1.0000   1.0000   1.0000   1.0000   1.0000
     1.0000   1.0000   1.0000   1.0000   1.0000   1.0000   1.0000   1.0000
     1.0000   1.0000   1.0000   1.0000   1.0000   1.0000   1.0000   1.0000
     1.0000   1.0000   1.0000   1.0000   1.0000   1.0000   1.0000   1.0000
     1.0000   1.0000   1.0000   1.0000   1.0000   1.0000   1.0000   1.0000
     1.0000   1.0000   1.0000   1.0000   1.0000   1.0000   1.0000   1.0000
     1.0000   1.0000   1.0000   1.0000   1.0000   1.0000   1.0000   1.0000
     1.0000   1.0000   1.0000   1.0000   1.0000   1.0000   1.0000   1.0000
     1.0000   1.0000   1.0000   1.0000   1.0000   1.0000   1.0000   1.0000
     1.0000   1.0000   1.0000   1.0000   1.0000   1.0000   1.0000   1.0000
     1.0000   1.0000   1.0000   1.0000   1.0000   1.0000   1.0000   1.0000
     1.0000   1.0000   1.0000   1.0000   1.0000   1.0000   1.0000   1.0000
     1.0000   1.0000   1.0000   1.0000   1.0000   1.0000   1.0000   1.0000
     1.0000   1.0000   1.0000   1.0000   1.0000   1.0000   1.0000   1.0000
     1.0000   1.0000   1.0000   1.0000   1.0000   1.0000   1.0000   1.0000
     1.0000   1.0000   1.0000   1.0000   1.0000   1.0000   1.0000   1.0000
     1.0000   1.0000   1.0000   1.0000   1.0000   1.0000   1.0000   1.0000
     1.0000   1.0000   1.0000   1.0000   1.0000   1.0000   1.0000   1.0000
     1.0000   1.0000   1.0000   1.0000   1.0000   1.0000   1.0000   1.0000
     1.0000   1.0000   1.0000   1.0000   1.0000   1.0000   1.0000   1.0000
     1.0000   1.0000   1.0000   1.0000   1.0000   1.0000   1.0000   1.0000
     1.0000   1.0000   1.0000   1.0000   1.0000   1.0000   1.0000   1.0000
     1.0000   1.0000   1.0000   1.0000   1.0000   1.0000   1.0000   1.0000
     1.0000   1.0000   1.0000   1.0000   1.0000   1.0000   1.0000   1.0000
     1.0000   1.0000   1.0000   1.0000   1.0000   1.0000   1.0000   1.0000
     1.0000   1.0000   1.0000   1.0000   1.0000   1.0000   1.0000   1.0000
     1.0000   1.0000   1.0000   1.0000   1.0000   1.0000   1.0000   1.0000
     1.0000   1.0000   1.0000   1.0000   1.0000   1.0000   1.0000   1.0000
     1.0000   1.0000   1.0000   1.0000   1.0000   1.0000   1.0000   1.0000
     1.0000   1.0000   1.0000   1.0000   1.0000   1.0000   1.0000   1.0000
     1.0000   1.0000   1.0000   1.0000   1.0000   1.0000   1.0000   1.0000
     1.0000   1.0000   1.0000   1.0000   1.0000   1.0000   1.0000   1.0000
     1.0000   1.0000   1.0000   1.0000   1.0000   0.5000   0.0000   0.0000
     0.0000   0.0000   0.0000   0.0000   0.0000   0.0000   0.0000   0.0000
     0.0000   0.0000   0.0000   0.0000   0.0000   0.0000   0.0000   0.0000
     0.0000   0.0000   0.0000   0.0000   0.0000   0.0000   0.0000   0.0000
     0.0000   0.0000   0.0000   0.0000   0.0000   0.0000   0.0000   0.0000
     0.0000   0.0000   0.0000   0.0000   0.0000   0.0000   0.0000   0.0000
     0.0000   0.0000   0.0000   0.0000   0.0000   0.0000   0.0000   0.0000
     0.0000   0.0000   0.0000   0.0000   0.0000   0.0000   0.0000   0.0000
     0.0000   0.0000   0.0000   0.0000   0.0000   0.0000   0.0000   0.0000
     0.0000   0.0000   0.0000   0.0000   0.0000   0.0000   0.0000   0.0000
     0.0000   0.0000   0.0000   0.0000   0.0000   0.0000   0.0000   0.0000
     0.0000   0.0000   0.0000   0.0000   0.0000   0.0000   0.0000   0.0000
     0.0000   0.0000   0.0000   0.0000   0.0000   0.0000   0.0000   0.0000
     0.0000   0.0000   0.0000   0.0000   0.0000   0.0000   0.0000   0.0000
     0.0000   0.0000   0.0000   0.0000   0.0000   0.0000   0.0000   0.0000
     0.0000   0.0000   0.0000   0.0000   0.0000   0.0000   0.0000   0.0000
     0.0000   0.0000   0.0000   0.0000   0.0000   0.0000   0.0000   0.0000
     0.0000   0.0000   0.0000   0.0000   0.0000   0.0000   0.0000   0.0000
     0.0000   0.0000   0.0000   0.0000   0.0000   0.0000   0.0000   0.0000
     0.0000   0.0000   0.0000   0.0000   0.0000   0.0000   0.0000

     the Fermi energy is     5.1733 ev

!    total energy              =  -65089.50745964 Ry
     total all-electron energy =  -2276515.549112 Ry
     estimated scf accuracy    <       0.00000003 Ry
     smearing contrib. (-TS)   =      -0.00564190 Ry
     internal energy E=F+TS    =  -65089.50181774 Ry

     The total energy is F=E-TS. E is the sum of the following terms:
     one-electron contribution =  -11839.66247526 Ry
     hartree contribution      =    6623.81618414 Ry
     xc contribution           =   -4514.99041190 Ry
     ewald contribution        =   -9844.35773465 Ry
     one-center paw contrib.   =  -45514.30738007 Ry
      -> PAW hartree energy AE =      95.91639016 Ry
      -> PAW hartree energy PS =     -96.15348344 Ry
      -> PAW xc energy AE      =    -798.42865351 Ry
      -> PAW xc energy PS      =      33.30940434 Ry
      -> total E_H with PAW    =    6623.57909086 Ry
      -> total E_XC with PAW   =   -5280.10966107 Ry

     convergence has been achieved in   3 iterations


     -----------------------------------------------
     Non-local corr. energy    =      45.71846523 Ry
     -----------------------------------------------


     Forces acting on atoms (cartesian axes, Ry/au):

     atom    1 type  1   force =     0.00000121   -0.00020877   -0.00019848
     atom    2 type  1   force =     0.00000080    0.00023922   -0.00028425
     atom    3 type  1   force =    -0.00013403    0.00017297    0.00008440
     atom    4 type  1   force =    -0.00069312    0.00034790   -0.00001650
     atom    5 type  1   force =     0.00008088   -0.00020213    0.00008348
     atom    6 type  1   force =    -0.00004720   -0.00077548   -0.00002039
     atom    7 type  1   force =    -0.00018100    0.00010421   -0.00019803
     atom    8 type  1   force =     0.00020686   -0.00011800   -0.00028407
     atom    9 type  1   force =     0.00058904    0.00033952   -0.00023588
     atom   10 type  1   force =     0.00054598    0.00031525   -0.00018376
     atom   11 type  1   force =     0.00013423    0.00017199    0.00008428
     atom   12 type  1   force =     0.00069379    0.00034728   -0.00001702
     atom   13 type  1   force =     0.00000000   -0.00000083   -0.00012366
     atom   14 type  1   force =    -0.00000038   -0.00000002    0.00037087
     atom   15 type  1   force =     0.00021592    0.00002946    0.00008234
     atom   16 type  1   force =     0.00064889    0.00042756   -0.00002047
     atom   17 type  1   force =     0.00000032    0.00022702   -0.00007271
     atom   18 type  1   force =    -0.00000060    0.00001629   -0.00015863
     atom   19 type  1   force =     0.00019538   -0.00011369   -0.00006914
     atom   20 type  1   force =     0.00001418   -0.00000619   -0.00015880
     atom   21 type  1   force =    -0.00008069   -0.00020238    0.00008270
     atom   22 type  1   force =     0.00004694   -0.00077497   -0.00001994
     atom   23 type  1   force =    -0.00021704    0.00002888    0.00008216
     atom   24 type  1   force =    -0.00064870    0.00042656   -0.00001923
     atom   25 type  1   force =    -0.00059014    0.00034005   -0.00023630
     atom   26 type  1   force =    -0.00054611    0.00031596   -0.00018417
     atom   27 type  1   force =    -0.00019618   -0.00011412   -0.00006977
     atom   28 type  1   force =    -0.00001438   -0.00000563   -0.00015841
     atom   29 type  1   force =    -0.00000043   -0.00068118   -0.00023728
     atom   30 type  1   force =     0.00000002   -0.00062876   -0.00018284
     atom   31 type  1   force =     0.00018134    0.00010312   -0.00019875
     atom   32 type  1   force =    -0.00020640   -0.00011918   -0.00028425
     atom   33 type  2   force =    -0.00000158    0.00000574   -0.00031234
     atom   34 type  2   force =     0.00017846   -0.00010281   -0.00001209
     atom   35 type  2   force =     0.00000076   -0.00004498   -0.00047419
     atom   36 type  2   force =     0.00010637    0.00006693    0.00048466
     atom   37 type  2   force =     0.00001760    0.00001113    0.00015046
     atom   38 type  2   force =     0.00000639    0.00020226   -0.00000685
     atom   39 type  2   force =    -0.00004179    0.00001699   -0.00047637
     atom   40 type  2   force =    -0.00016727   -0.00011014   -0.00001387
     atom   41 type  2   force =    -0.00003888    0.00002777   -0.00048645
     atom   42 type  2   force =    -0.00018197   -0.00009846   -0.00001184
     atom   43 type  2   force =     0.00000419   -0.00004137   -0.00048029
     atom   44 type  2   force =    -0.00000069    0.00006686   -0.00023437
     atom   45 type  2   force =     0.00000150   -0.00009630   -0.00006709
     atom   46 type  2   force =     0.00005764   -0.00003391   -0.00023192
     atom   47 type  2   force =    -0.00008210    0.00004596   -0.00006786
     atom   48 type  2   force =    -0.00000446   -0.00012522    0.00047947
     atom   49 type  2   force =    -0.00000565   -0.00002324    0.00014717
     atom   50 type  2   force =    -0.00020185   -0.00012024    0.00002518
     atom   51 type  2   force =    -0.00020603   -0.00011252    0.00024537
     atom   52 type  2   force =    -0.00010167    0.00006393    0.00048013
     atom   53 type  2   force =    -0.00001908    0.00000697    0.00015255
     atom   54 type  2   force =    -0.00005807   -0.00003229   -0.00023310
     atom   55 type  2   force =     0.00008517    0.00004906   -0.00006799
     atom   56 type  2   force =     0.00017233   -0.00010519   -0.00001432
     atom   57 type  2   force =     0.00004403    0.00002827   -0.00047937
     atom   58 type  2   force =     0.00019592   -0.00011714    0.00003055
     atom   59 type  2   force =     0.00020560   -0.00011010    0.00024732
     atom   60 type  2   force =    -0.00000011    0.00023163    0.00002280
     atom   61 type  2   force =     0.00000107    0.00023210    0.00024657
     atom   62 type  2   force =    -0.00000732    0.00019634   -0.00001124
     atom   63 type  2   force =     0.00004163    0.00001792   -0.00048060
     atom   64 type  2   force =    -0.00014029    0.00008488    0.00006005
     atom   65 type  2   force =     0.00020828   -0.00012084   -0.00010114
     atom   66 type  2   force =     0.00018896   -0.00015450    0.00024786
     atom   67 type  2   force =     0.00030390   -0.00011906    0.00043871
     atom   68 type  2   force =    -0.00004195    0.00024634    0.00024670
     atom   69 type  2   force =     0.00004809    0.00032244    0.00044438
     atom   70 type  2   force =    -0.00000070   -0.00016327    0.00005326
     atom   71 type  2   force =    -0.00000103    0.00024364   -0.00010081
     atom   72 type  2   force =     0.00013518    0.00008181    0.00005913
     atom   73 type  2   force =    -0.00020708   -0.00011809   -0.00009113
     atom   74 type  2   force =    -0.00000338   -0.00006491    0.00005704
     atom   75 type  2   force =    -0.00000312   -0.00008735   -0.00020784
     atom   76 type  2   force =     0.00005034    0.00003012    0.00010866
     atom   77 type  2   force =     0.00010318    0.00006160    0.00004590
     atom   78 type  2   force =    -0.00005333    0.00003140    0.00005315
     atom   79 type  2   force =    -0.00007403    0.00003999   -0.00020509
     atom   80 type  2   force =    -0.00023025   -0.00008164    0.00024221
     atom   81 type  2   force =    -0.00025990   -0.00020386    0.00044119
     atom   82 type  2   force =    -0.00019004   -0.00016006    0.00024903
     atom   83 type  2   force =    -0.00030046   -0.00012316    0.00043711
     atom   84 type  2   force =    -0.00005183    0.00002861    0.00010407
     atom   85 type  2   force =    -0.00010928    0.00005450    0.00003941
     atom   86 type  2   force =     0.00000116   -0.00005697    0.00010314
     atom   87 type  2   force =     0.00000324   -0.00011829    0.00004007
     atom   88 type  2   force =     0.00023865   -0.00008263    0.00024097
     atom   89 type  2   force =     0.00026046   -0.00019918    0.00043572
     atom   90 type  2   force =     0.00000314   -0.00000294    0.00024917
     atom   91 type  2   force =     0.00000180   -0.00000393   -0.00029867
     atom   92 type  2   force =     0.00003945    0.00024630    0.00024311
     atom   93 type  2   force =    -0.00004814    0.00032398    0.00043600
     atom   94 type  2   force =     0.00005294    0.00003192    0.00006019
     atom   95 type  2   force =     0.00007623    0.00003835   -0.00020992
     atom   96 type  1   force =     0.00000025   -0.00000311    0.00029075
     The non-local contrib.  to forces
     atom    1 type  1   force =    -0.00000440    0.05881251   -0.07004534
     atom    2 type  1   force =     0.00000642    0.10058988    0.07809593
     atom    3 type  1   force =     0.00488415    0.01938348    0.00085197
     atom    4 type  1   force =    -0.01105417    0.01303694   -0.00574304
     atom    5 type  1   force =     0.01923678   -0.00549152    0.00083450
     atom    6 type  1   force =     0.00581055   -0.01610994   -0.00569395
     atom    7 type  1   force =     0.05094703   -0.02940337   -0.06996567
     atom    8 type  1   force =     0.08709138   -0.05031021    0.07804203
     atom    9 type  1   force =     0.08445575    0.04873137   -0.04287070
     atom   10 type  1   force =     0.01085294    0.00624174   -0.00158422
     atom   11 type  1   force =    -0.00487285    0.01938653    0.00085112
     atom   12 type  1   force =     0.01105475    0.01303977   -0.00573897
     atom   13 type  1   force =     0.00000179   -0.00001105   -0.00111290
     atom   14 type  1   force =     0.00000387   -0.00001533   -0.00428983
     atom   15 type  1   force =     0.01435707   -0.01394546    0.00083303
     atom   16 type  1   force =     0.01683296    0.00301721   -0.00569711
     atom   17 type  1   force =    -0.00000173   -0.01860637    0.02730006
     atom   18 type  1   force =     0.00000138    0.00237344    0.00223747
     atom   19 type  1   force =    -0.01606874    0.00928235    0.02730781
     atom   20 type  1   force =     0.00208796   -0.00122891    0.00225429
     atom   21 type  1   force =    -0.01922946   -0.00549441    0.00083655
     atom   22 type  1   force =    -0.00580476   -0.01611744   -0.00570861
     atom   23 type  1   force =    -0.01434823   -0.01394529    0.00083602
     atom   24 type  1   force =    -0.01683284    0.00302516   -0.00571682
     atom   25 type  1   force =    -0.08446482    0.04874451   -0.04288981
     atom   26 type  1   force =    -0.01084466    0.00624230   -0.00159179
     atom   27 type  1   force =     0.01607946    0.00929063    0.02730559
     atom   28 type  1   force =    -0.00207894   -0.00122472    0.00225258
     atom   29 type  1   force =     0.00000667   -0.09747276   -0.04281997
     atom   30 type  1   force =     0.00000526   -0.01257663   -0.00158003
     atom   31 type  1   force =    -0.05094690   -0.02939791   -0.06998173
     atom   32 type  1   force =    -0.08709697   -0.05032190    0.07806265
     atom   33 type  2   force =     0.00000394    0.00000459    0.23619146
     atom   34 type  2   force =     0.00199248   -0.00649232    0.23234586
     atom   35 type  2   force =     0.03124277   -0.01148924    0.25500885
     atom   36 type  2   force =     0.00978484    0.00565146    0.25033902
     atom   37 type  2   force =     0.00550813    0.00317700    0.25648780
     atom   38 type  2   force =    -0.00465368    0.00499284    0.23233855
     atom   39 type  2   force =     0.00563806    0.03280884    0.25499747
     atom   40 type  2   force =    -0.00663228    0.00154594    0.23234345
     atom   41 type  2   force =    -0.02559850   -0.02129257    0.25499302
     atom   42 type  2   force =    -0.00198810   -0.00649862    0.23234121
     atom   43 type  2   force =    -0.03123539   -0.01149298    0.25500101
     atom   44 type  2   force =    -0.00000103    0.00226005    0.24496763
     atom   45 type  2   force =    -0.00000168   -0.00137985    0.25619880
     atom   46 type  2   force =     0.00194887   -0.00113370    0.24497136
     atom   47 type  2   force =    -0.00118622    0.00068137    0.25620493
     atom   48 type  2   force =    -0.00000193   -0.01128484    0.25033139
     atom   49 type  2   force =    -0.00000930   -0.00634976    0.25648734
     atom   50 type  2   force =    -0.00379993   -0.00217094    0.24810923
     atom   51 type  2   force =    -0.04070287   -0.02346772    0.26535022
     atom   52 type  2   force =    -0.00978566    0.00565299    0.25033495
     atom   53 type  2   force =    -0.00551063    0.00316840    0.25648774
     atom   54 type  2   force =    -0.00195624   -0.00113606    0.24496906
     atom   55 type  2   force =     0.00118176    0.00068278    0.25620046
     atom   56 type  2   force =     0.00662597    0.00154341    0.23234788
     atom   57 type  2   force =     0.02559577   -0.02129384    0.25500235
     atom   58 type  2   force =     0.00378125   -0.00215949    0.24811442
     atom   59 type  2   force =     0.04069645   -0.02346675    0.26535448
     atom   60 type  2   force =     0.00000103    0.00439623    0.24810918
     atom   61 type  2   force =    -0.00000244    0.04698448    0.26534515
     atom   62 type  2   force =     0.00465518    0.00498315    0.23233515
     atom   63 type  2   force =    -0.00563409    0.03280547    0.25499630
     atom   64 type  2   force =     0.15224115   -0.08787175   -0.07142639
     atom   65 type  2   force =     0.00995280   -0.00574675   -0.24280807
     atom   66 type  2   force =    -0.01728093   -0.00282614   -0.25994504
     atom   67 type  2   force =    -0.00323378   -0.00564233   -0.24284930
     atom   68 type  2   force =    -0.01106740   -0.01355495   -0.25995161
     atom   69 type  2   force =    -0.00650183    0.00002968   -0.24284250
     atom   70 type  2   force =    -0.00001075    0.17576128   -0.07144291
     atom   71 type  2   force =    -0.00000503    0.01153386   -0.24279973
     atom   72 type  2   force =    -0.15224705   -0.08786436   -0.07142426
     atom   73 type  2   force =    -0.00996420   -0.00574735   -0.24279618
     atom   74 type  2   force =    -0.00000311   -0.00463856   -0.25484949
     atom   75 type  2   force =    -0.00000176   -0.03488846   -0.24491496
     atom   76 type  2   force =    -0.00909734   -0.00523356   -0.26251487
     atom   77 type  2   force =    -0.00273612   -0.00155728   -0.24349955
     atom   78 type  2   force =    -0.00399715    0.00231901   -0.25485643
     atom   79 type  2   force =    -0.03020242    0.01745465   -0.24491972
     atom   80 type  2   force =     0.00621092    0.01638050   -0.25995459
     atom   81 type  2   force =    -0.00326329    0.00561998   -0.24285001
     atom   82 type  2   force =     0.01727678   -0.00282128   -0.25994175
     atom   83 type  2   force =     0.00323701   -0.00563311   -0.24284701
     atom   84 type  2   force =     0.00910031   -0.00523533   -0.26251681
     atom   85 type  2   force =     0.00273170   -0.00156152   -0.24350280
     atom   86 type  2   force =     0.00000178    0.01051895   -0.26251591
     atom   87 type  2   force =     0.00000178    0.00316779   -0.24350344
     atom   88 type  2   force =    -0.00619898    0.01637511   -0.25995612
     atom   89 type  2   force =     0.00327040    0.00562462   -0.24285701
     atom   90 type  2   force =     0.00000124   -0.00001031   -0.24897411
     atom   91 type  2   force =    -0.00000362   -0.00001244   -0.23873447
     atom   92 type  2   force =     0.01105757   -0.01354829   -0.25995198
     atom   93 type  2   force =     0.00649524    0.00002967   -0.24284883
     atom   94 type  2   force =     0.00399825    0.00232060   -0.25485286
     atom   95 type  2   force =     0.03021291    0.01745916   -0.24492364
     atom   96 type  1   force =    -0.00000295    0.00002873   -0.12750006
     The ionic contribution  to forces
     atom    1 type  1   force =     0.00039735   -0.66310136   -0.67781640
     atom    2 type  1   force =    -0.00004153   -6.65366164   -3.14572661
     atom    3 type  1   force =    -0.17010432   -0.48503005   -0.36766023
     atom    4 type  1   force =     0.44932568   -0.41708737    0.30749052
     atom    5 type  1   force =    -0.50403576    0.09407657   -0.36592690
     atom    6 type  1   force =    -0.13774781    0.59626002    0.30582181
     atom    7 type  1   force =    -0.57633903    0.33285085   -0.68463191
     atom    8 type  1   force =    -5.76220271    3.32799862   -3.14163328
     atom    9 type  1   force =    -1.98899381   -1.14525319    0.46797700
     atom   10 type  1   force =    -0.96489278   -0.55548524    0.15500423
     atom   11 type  1   force =     0.17038120   -0.48507564   -0.36746386
     atom   12 type  1   force =    -0.44875059   -0.41710607    0.30749977
     atom   13 type  1   force =     0.00027035   -0.00046167   -0.83844920
     atom   14 type  1   force =     0.00031313   -0.00067900    0.54690324
     atom   15 type  1   force =    -0.33355326    0.39034018   -0.36558814
     atom   16 type  1   force =    -0.58532019   -0.17883099    0.30649533
     atom   17 type  1   force =    -0.00002589    0.61706922   -0.67986477
     atom   18 type  1   force =    -0.00026100   -0.07153814    0.26241081
     atom   19 type  1   force =     0.53155228   -0.30817685   -0.68167911
     atom   20 type  1   force =    -0.06397364    0.03674573    0.26093562
     atom   21 type  1   force =     0.50410976    0.09409799   -0.36552092
     atom   22 type  1   force =     0.13753153    0.59634221    0.30659359
     atom   23 type  1   force =     0.33371733    0.39011517   -0.36541209
     atom   24 type  1   force =     0.58553151   -0.17953486    0.30730707
     atom   25 type  1   force =     1.98917411   -1.14621135    0.46972810
     atom   26 type  1   force =     0.96484300   -0.55593135    0.15599313
     atom   27 type  1   force =    -0.53240459   -0.30863222   -0.68141114
     atom   28 type  1   force =     0.06320852    0.03658380    0.26055966
     atom   29 type  1   force =    -0.00074478    2.29355658    0.46414159
     atom   30 type  1   force =    -0.00044982    1.11426336    0.15472601
     atom   31 type  1   force =     0.57598919    0.33216486   -0.68263030
     atom   32 type  1   force =     5.76221991    3.32805680   -3.14288824
     atom   33 type  2   force =     0.00022289    0.00026945  -14.69791241
     atom   34 type  2   force =     0.73315948   -1.21190961  -12.68697627
     atom   35 type  2   force =    -0.84508747    0.17546057  -14.64228040
     atom   36 type  2   force =    -0.24121248   -0.13962543  -13.76471058
     atom   37 type  2   force =    -0.11095250   -0.06589205  -15.25476444
     atom   38 type  2   force =    -0.68224872    1.23750738  -12.68409538
     atom   39 type  2   force =    -0.27228300   -0.81930565  -14.64388285
     atom   40 type  2   force =    -1.41394075   -0.02750379  -12.68451958
     atom   41 type  2   force =     0.57307375    0.64554213  -14.64375477
     atom   42 type  2   force =    -0.73273893   -1.21114758  -12.68670042
     atom   43 type  2   force =     0.84564967    0.17547816  -14.64254345
     atom   44 type  2   force =     0.00042795   -0.40413916  -13.35391187
     atom   45 type  2   force =     0.00043298   -0.04990221  -15.62317406
     atom   46 type  2   force =    -0.34858032    0.20108704  -13.35445095
     atom   47 type  2   force =    -0.04152227    0.02375317  -15.62321279
     atom   48 type  2   force =    -0.00022115    0.27829187  -13.76555225
     atom   49 type  2   force =     0.00014503    0.12835241  -15.25469547
     atom   50 type  2   force =    -0.15511575   -0.08918102  -13.96640825
     atom   51 type  2   force =     1.38557675    0.80129095  -15.29279057
     atom   52 type  2   force =     0.24121745   -0.13986765  -13.76499339
     atom   53 type  2   force =     0.11116550   -0.06584584  -15.25480106
     atom   54 type  2   force =     0.34916341    0.20089679  -13.35427326
     atom   55 type  2   force =     0.04215099    0.02362661  -15.62347391
     atom   56 type  2   force =     1.41525388   -0.02798669  -12.68534510
     atom   57 type  2   force =    -0.57334754    0.64478590  -14.64300043
     atom   58 type  2   force =     0.15493759   -0.08945618  -13.96645893
     atom   59 type  2   force =    -1.38634865    0.80130658  -15.29249050
     atom   60 type  2   force =    -0.00034527    0.17779424  -13.96625391
     atom   61 type  2   force =    -0.00036745   -1.60034234  -15.29260914
     atom   62 type  2   force =     0.68203059    1.23810988  -12.68464822
     atom   63 type  2   force =     0.27176112   -0.81965134  -14.64340094
     atom   64 type  2   force =    -5.81797118    3.36343111    9.25503652
     atom   65 type  2   force =     1.29777143   -0.74885736   11.59840999
     atom   66 type  2   force =     0.79879817   -0.27032884   14.58076770
     atom   67 type  2   force =     0.38724368    0.05392060   14.35849273
     atom   68 type  2   force =     0.16578053    0.82444704   14.58129644
     atom   69 type  2   force =     0.23974202    0.30736042   14.35836152
     atom   70 type  2   force =    -0.00121429   -6.71857565    9.25304258
     atom   71 type  2   force =     0.00013007    1.49775021   11.59937544
     atom   72 type  2   force =     5.81730469    3.36444240    9.25408496
     atom   73 type  2   force =    -1.29732633   -0.74877325   11.59932440
     atom   74 type  2   force =     0.00035741    0.19297102   14.50502038
     atom   75 type  2   force =     0.00039115    1.11010558   14.16024655
     atom   76 type  2   force =     0.05798898    0.03204252   14.45548855
     atom   77 type  2   force =     0.36100532    0.20595607   14.73850594
     atom   78 type  2   force =     0.17024221   -0.09865446   14.50461088
     atom   79 type  2   force =     0.95900518   -0.55399097   14.16064463
     atom   80 type  2   force =    -0.63211112   -0.55538231   14.58122863
     atom   81 type  2   force =    -0.14721449   -0.36058142   14.35791309
     atom   82 type  2   force =    -0.79882586   -0.26994620   14.58090956
     atom   83 type  2   force =    -0.38725266    0.05387257   14.35880425
     atom   84 type  2   force =    -0.05742471    0.03196319   14.45554297
     atom   85 type  2   force =    -0.36029004    0.20610730   14.73855570
     atom   86 type  2   force =     0.00022491   -0.06689384   14.45516773
     atom   87 type  2   force =     0.00049514   -0.41663605   14.73856491
     atom   88 type  2   force =     0.63239651   -0.55555926   14.58103607
     atom   89 type  2   force =     0.14678873   -0.36103412   14.35742031
     atom   90 type  2   force =    -0.00013007   -0.00027611   13.99736277
     atom   91 type  2   force =    -0.00013708   -0.00055750   14.60395034
     atom   92 type  2   force =    -0.16613751    0.82463243   14.58125463
     atom   93 type  2   force =    -0.24025302    0.30724618   14.35816510
     atom   94 type  2   force =    -0.16935407   -0.09855333   14.50444388
     atom   95 type  2   force =    -0.95996031   -0.55500971   14.16030649
     atom   96 type  1   force =    -0.00084350    0.00284016   13.57946553
     The local contribution  to forces
     atom    1 type  1   force =    -0.00039016    0.60510368    0.74638969
     atom    2 type  1   force =     0.00003651    6.55636136    3.06957390
     atom    3 type  1   force =     0.16519446    0.46619492    0.36691784
     atom    4 type  1   force =    -0.43920094    0.40468730   -0.30177726
     atom    5 type  1   force =     0.48525634   -0.08887887    0.36520189
     atom    6 type  1   force =     0.13201898   -0.58126832   -0.30016116
     atom    7 type  1   force =     0.52609420   -0.30385149    0.75312546
     atom    8 type  1   force =     5.67795887   -3.27932629    3.06553205
     atom    9 type  1   force =     1.90681400    1.09783748   -0.42624310
     atom   10 type  1   force =     0.95479150    0.54967856   -0.15358051
     atom   11 type  1   force =    -0.16548368    0.46623564    0.36672421
     atom   12 type  1   force =     0.43862566    0.40469982   -0.30179113
     atom   13 type  1   force =    -0.00027303    0.00047253    0.83940781
     atom   14 type  1   force =    -0.00031767    0.00069414   -0.54216601
     atom   15 type  1   force =     0.31967983   -0.37664426    0.36486182
     atom   16 type  1   force =     0.56950006    0.17630269   -0.30083057
     atom   17 type  1   force =     0.00002740   -0.59858040    0.65304573
     atom   18 type  1   force =     0.00025821    0.06916898   -0.26473049
     atom   19 type  1   force =    -0.51558941    0.29895642    0.65486051
     atom   20 type  1   force =     0.06189051   -0.03551601   -0.26327236
     atom   21 type  1   force =    -0.48533650   -0.08889728    0.36479186
     atom   22 type  1   force =    -0.13181145   -0.58134361   -0.30091672
     atom   23 type  1   force =    -0.31985491   -0.37641891    0.36468177
     atom   24 type  1   force =    -0.56971270    0.17699811   -0.30162099
     atom   25 type  1   force =    -1.90699008    1.09878486   -0.42797795
     atom   26 type  1   force =    -0.95475093    0.55012752   -0.15456003
     atom   27 type  1   force =     0.51642773    0.29940391    0.65459293
     atom   28 type  1   force =    -0.06113291   -0.03535644   -0.26289629
     atom   29 type  1   force =     0.00073503   -2.19871237   -0.42246054
     atom   30 type  1   force =     0.00044387   -1.10255529   -0.15330309
     atom   31 type  1   force =    -0.52574561   -0.30317470    0.75114061
     atom   32 type  1   force =    -5.67797060   -3.27937813    3.06676744
     atom   33 type  2   force =    -0.00022622   -0.00027872   14.46676235
     atom   34 type  2   force =    -0.73498951    1.21838253   12.45976422
     atom   35 type  2   force =     0.81459384   -0.16436213   14.39233255
     atom   36 type  2   force =     0.23178947    0.13417813   13.52061256
     atom   37 type  2   force =     0.10566371    0.06283808   15.00394036
     atom   38 type  2   force =     0.68696806   -1.24235691   12.45688456
     atom   39 type  2   force =     0.26667979    0.78734605   14.39394594
     atom   40 type  2   force =     1.42047373    0.02582949   12.45731061
     atom   41 type  2   force =    -0.54819099   -0.62470688   14.39383290
     atom   42 type  2   force =     0.73456797    1.21762238   12.45949388
     atom   43 type  2   force =    -0.81516736   -0.16437783   14.39260984
     atom   44 type  2   force =    -0.00042624    0.40191815   13.11444909
     atom   45 type  2   force =    -0.00043227    0.05111908   15.37271495
     atom   46 type  2   force =     0.34666632   -0.19997121   13.11498074
     atom   47 type  2   force =     0.04256832   -0.02435307   15.37274467
     atom   48 type  2   force =     0.00022540   -0.26742457   13.52145825
     atom   49 type  2   force =    -0.00012975   -0.12225365   15.00387593
     atom   50 type  2   force =     0.15855507    0.09114546   13.72373839
     atom   51 type  2   force =    -1.34611128   -0.77853484   15.03345562
     atom   52 type  2   force =    -0.23179775    0.13442072   13.52090211
     atom   53 type  2   force =    -0.10587198    0.06280527   15.00397547
     atom   54 type  2   force =    -0.34724167   -0.19978023   13.11480636
     atom   55 type  2   force =    -0.04319345   -0.02423016   15.37300927
     atom   56 type  2   force =    -1.42178192    0.02630959   12.45813156
     atom   57 type  2   force =     0.54846280   -0.62395036   14.39306357
     atom   58 type  2   force =    -0.15835406    0.09140846   13.72378047
     atom   59 type  2   force =     1.34688878   -0.77855362   15.03315206
     atom   60 type  2   force =     0.00034546   -0.18177375   13.72358495
     atom   61 type  2   force =     0.00036751    1.55479054   15.03327686
     atom   62 type  2   force =    -0.68674851   -1.24294170   12.45744555
     atom   63 type  2   force =    -0.26616256    0.78769328   14.39347003
     atom   64 type  2   force =     5.66900641   -3.27744529   -9.18520401
     atom   65 type  2   force =    -1.30727188    0.75434602  -11.36086419
     atom   66 type  2   force =    -0.78174962    0.27298580  -14.32641722
     atom   67 type  2   force =    -0.38363264   -0.04842836  -14.12060050
     atom   68 type  2   force =    -0.15497230   -0.81101856  -14.32694134
     atom   69 type  2   force =    -0.23318199   -0.30698604  -14.12047568
     atom   70 type  2   force =     0.00122249    6.54659267   -9.18320119
     atom   71 type  2   force =    -0.00012555   -1.50876312  -11.36182995
     atom   72 type  2   force =    -5.66833155   -3.27845870   -9.18425832
     atom   73 type  2   force =     1.30683632    0.75426047  -11.36179065
     atom   74 type  2   force =    -0.00035157   -0.18842187  -14.25588812
     atom   75 type  2   force =    -0.00038633   -1.07609657  -13.92078979
     atom   76 type  2   force =    -0.04892952   -0.02683266  -14.19877480
     atom   77 type  2   force =    -0.35821845   -0.20437192  -14.50018147
     atom   78 type  2   force =    -0.16632167    0.09637948  -14.25546816
     atom   79 type  2   force =    -0.92957106    0.53697524  -13.92117757
     atom   80 type  2   force =     0.62587716    0.53928268  -14.32686639
     atom   81 type  2   force =     0.15016305    0.35471312  -14.12002201
     atom   82 type  2   force =     0.78178201    0.27260370  -14.32656498
     atom   83 type  2   force =     0.38363523   -0.04838449  -14.12091128
     atom   84 type  2   force =     0.04836418   -0.02674999  -14.19882359
     atom   85 type  2   force =     0.35751317   -0.20451295  -14.50022213
     atom   86 type  2   force =    -0.00022715    0.05641628  -14.19845198
     atom   87 type  2   force =    -0.00049934    0.41340977  -14.50023332
     atom   88 type  2   force =    -0.62617892    0.53946604  -14.32667085
     atom   89 type  2   force =    -0.14974433    0.35515725  -14.11952175
     atom   90 type  2   force =     0.00012727    0.00028767  -13.75371391
     atom   91 type  2   force =     0.00013952    0.00057135  -14.37083241
     atom   92 type  2   force =     0.15534108   -0.81120903  -14.32689803
     atom   93 type  2   force =     0.23369870   -0.30687285  -14.12026813
     atom   94 type  2   force =     0.16543375    0.09627671  -14.25531396
     atom   95 type  2   force =     0.93051253    0.53798893  -13.92083332
     atom   96 type  1   force =     0.00084484   -0.00287064  -13.45333915
     The core correction contribution to forces
     atom    1 type  1   force =     0.00000009   -0.00097685    0.00127325
     atom    2 type  1   force =    -0.00000020   -0.00301704   -0.00211087
     atom    3 type  1   force =    -0.00006821   -0.00032144   -0.00002406
     atom    4 type  1   force =     0.00026652   -0.00022838    0.00010928
     atom    5 type  1   force =    -0.00031218    0.00010183   -0.00002345
     atom    6 type  1   force =    -0.00006508    0.00034538    0.00010868
     atom    7 type  1   force =    -0.00084611    0.00048808    0.00127123
     atom    8 type  1   force =    -0.00261197    0.00150833   -0.00210995
     atom    9 type  1   force =    -0.00168524   -0.00097253    0.00091546
     atom   10 type  1   force =    -0.00022378   -0.00012900    0.00005600
     atom   11 type  1   force =     0.00006799   -0.00032135   -0.00002394
     atom   12 type  1   force =    -0.00026657   -0.00022849    0.00010926
     atom   13 type  1   force =    -0.00000007    0.00000006    0.00000475
     atom   14 type  1   force =    -0.00000002    0.00000003    0.00004124
     atom   15 type  1   force =    -0.00024413    0.00021985   -0.00002339
     atom   16 type  1   force =    -0.00033147   -0.00011634    0.00010875
     atom   17 type  1   force =     0.00000000    0.00030238   -0.00052089
     atom   18 type  1   force =     0.00000012   -0.00003142   -0.00001925
     atom   19 type  1   force =     0.00026124   -0.00015107   -0.00052146
     atom   20 type  1   force =    -0.00002764    0.00001597   -0.00001950
     atom   21 type  1   force =     0.00031221    0.00010190   -0.00002343
     atom   22 type  1   force =     0.00006502    0.00034543    0.00010896
     atom   23 type  1   force =     0.00024415    0.00022002   -0.00002341
     atom   24 type  1   force =     0.00033142   -0.00011636    0.00010909
     atom   25 type  1   force =     0.00168547   -0.00097280    0.00091590
     atom   26 type  1   force =     0.00022375   -0.00012901    0.00005624
     atom   27 type  1   force =    -0.00026142   -0.00015113   -0.00052140
     atom   28 type  1   force =     0.00002768    0.00001585   -0.00001960
     atom   29 type  1   force =    -0.00000017    0.00194485    0.00091411
     atom   30 type  1   force =    -0.00000013    0.00025881    0.00005601
     atom   31 type  1   force =     0.00084615    0.00048797    0.00127179
     atom   32 type  1   force =     0.00261206    0.00150852   -0.00211007
     atom   33 type  2   force =    -0.00000051    0.00000265   -0.00521187
     atom   34 type  2   force =     0.00003512   -0.00004611   -0.00492142
     atom   35 type  2   force =    -0.00071255    0.00038040   -0.00540907
     atom   36 type  2   force =    -0.00019307   -0.00010870   -0.00554872
     atom   37 type  2   force =    -0.00012055   -0.00006651   -0.00536928
     atom   38 type  2   force =    -0.00002217    0.00005228   -0.00492128
     atom   39 type  2   force =    -0.00002694   -0.00080287   -0.00540648
[...]
     atom   15 type  1   force =    -0.00002390    0.00006087    0.00005259
     atom   16 type  1   force =    -0.00003278    0.00005672   -0.00004330
     atom   17 type  1   force =     0.00000022    0.00004391    0.00002072
     atom   18 type  1   force =     0.00000038    0.00004516   -0.00000361
     atom   19 type  1   force =     0.00003969   -0.00002281    0.00001668
     atom   20 type  1   force =     0.00003668   -0.00002125   -0.00000326
     atom   21 type  1   force =     0.00006299   -0.00000886    0.00005221
     atom   22 type  1   force =     0.00006630    0.00000018   -0.00004358
     atom   23 type  1   force =     0.00002431    0.00005961    0.00005344
     atom   24 type  1   force =     0.00003360    0.00005623   -0.00004401
     atom   25 type  1   force =     0.00000487   -0.00000345    0.00004104
     atom   26 type  1   force =    -0.00001757    0.00000822   -0.00002815
     atom   27 type  1   force =    -0.00003767   -0.00002358    0.00001781
     atom   28 type  1   force =    -0.00003904   -0.00002240   -0.00000118
     atom   29 type  1   force =     0.00000251    0.00000425    0.00004110
     atom   30 type  1   force =     0.00000052   -0.00001728   -0.00002816
     atom   31 type  1   force =     0.00003820    0.00002462    0.00005446
     atom   32 type  1   force =     0.00002889    0.00001726   -0.00006245
     atom   33 type  2   force =    -0.00000200    0.00000949   -0.00008830
     atom   34 type  2   force =    -0.00001942   -0.00003557   -0.00017091
     atom   35 type  2   force =    -0.00003614   -0.00003286   -0.00007256
     atom   36 type  2   force =    -0.00006271   -0.00002680   -0.00015404
     atom   37 type  2   force =    -0.00008150   -0.00004366   -0.00009040
     atom   38 type  2   force =    -0.00003742    0.00000840   -0.00015974
     atom   39 type  2   force =    -0.00005000   -0.00002765   -0.00007687
     atom   40 type  2   force =    -0.00001129    0.00002484   -0.00017303
     atom   41 type  2   force =    -0.00000759    0.00005831   -0.00009637
     atom   42 type  2   force =     0.00001192   -0.00002690   -0.00017193
     atom   43 type  2   force =     0.00004577   -0.00002727   -0.00008581
     atom   44 type  2   force =    -0.00000135   -0.00003942   -0.00021143
     atom   45 type  2   force =     0.00000258   -0.00004645   -0.00009177
     atom   46 type  2   force =    -0.00003599    0.00001747   -0.00020476
     atom   47 type  2   force =    -0.00003984    0.00002101   -0.00009091
     atom   48 type  2   force =    -0.00000655    0.00007018   -0.00015909
     atom   49 type  2   force =    -0.00001144    0.00008842   -0.00009731
     atom   50 type  2   force =     0.00000064   -0.00000628   -0.00013262
     atom   51 type  2   force =     0.00002462    0.00002006   -0.00009960
     atom   52 type  2   force =     0.00007185   -0.00003144   -0.00016237
     atom   53 type  2   force =     0.00007812   -0.00005255   -0.00008666
     atom   54 type  2   force =     0.00003518    0.00002073   -0.00020709
     atom   55 type  2   force =     0.00004401    0.00002647   -0.00009085
     atom   56 type  2   force =     0.00001698    0.00003550   -0.00017281
     atom   57 type  2   force =     0.00001791    0.00005937   -0.00008215
     atom   58 type  2   force =    -0.00001048   -0.00000245   -0.00012337
     atom   59 type  2   force =    -0.00002638    0.00002570   -0.00009805
     atom   60 type  2   force =    -0.00000119   -0.00000240   -0.00013662
     atom   61 type  2   force =     0.00000321   -0.00003221   -0.00009677
     atom   62 type  2   force =     0.00003324   -0.00000614   -0.00016893
     atom   63 type  2   force =     0.00005056   -0.00002489   -0.00008542
     atom   64 type  2   force =    -0.00008078    0.00005139    0.00005812
     atom   65 type  2   force =    -0.00001607    0.00000498    0.00011126
     atom   66 type  2   force =    -0.00001360   -0.00002337    0.00013508
     atom   67 type  2   force =    -0.00005801   -0.00002830    0.00011393
     atom   68 type  2   force =    -0.00003262    0.00001303    0.00013527
     atom   69 type  2   force =    -0.00005395   -0.00003904    0.00012190
     atom   70 type  2   force =    -0.00000000   -0.00008663    0.00005832
     atom   71 type  2   force =    -0.00000036   -0.00001496    0.00010413
     atom   72 type  2   force =     0.00007093    0.00004380    0.00006090
     atom   73 type  2   force =     0.00001943    0.00000980    0.00012237
     atom   74 type  2   force =    -0.00000606   -0.00004030    0.00016925
     atom   75 type  2   force =    -0.00000681   -0.00002408    0.00009837
     atom   76 type  2   force =    -0.00001638   -0.00000719    0.00016552
     atom   77 type  2   force =    -0.00004778   -0.00002352    0.00011482
     atom   78 type  2   force =    -0.00003169    0.00001826    0.00016139
     atom   79 type  2   force =    -0.00001702    0.00001507    0.00009572
     atom   80 type  2   force =    -0.00002130    0.00003276    0.00012769
     atom   81 type  2   force =    -0.00000453    0.00006152    0.00011853
     atom   82 type  2   force =     0.00001251   -0.00003453    0.00013873
     atom   83 type  2   force =     0.00006460   -0.00003760    0.00010989
     atom   84 type  2   force =     0.00001287   -0.00001018    0.00015669
     atom   85 type  2   force =     0.00003606   -0.00003694    0.00010248
     atom   86 type  2   force =     0.00000178    0.00002375    0.00015770
     atom   87 type  2   force =     0.00000581    0.00005504    0.00010654
     atom   88 type  2   force =     0.00003511    0.00003064    0.00012532
     atom   89 type  2   force =     0.00000505    0.00007027    0.00011067
     atom   90 type  2   force =     0.00000505   -0.00000477    0.00011603
     atom   91 type  2   force =     0.00000334   -0.00000619    0.00013472
     atom   92 type  2   force =     0.00002863    0.00001144    0.00013057
     atom   93 type  2   force =     0.00005460   -0.00003625    0.00010730
     atom   94 type  2   force =     0.00003058    0.00001898    0.00017689
     atom   95 type  2   force =     0.00002105    0.00001366    0.00008890
     atom   96 type  1   force =     0.00000168    0.00000048   -0.00000116

     Total force =     0.003801     Total SCF correction =     0.001159
     SCF correction compared to forces is large: reduce conv_thr to get better values


     Computing stress (Cartesian axis) and pressure



     -----------------------------------------------
     Non-local corr. energy    =      45.71846523 Ry
     -----------------------------------------------

          total   stress  (Ry/bohr**3)                   (kbar)     P=       -5.73
  -0.00003928   0.00000000  -0.00000000           -5.78        0.00       -0.00
   0.00000000  -0.00003928   0.00000000            0.00       -5.78        0.00
  -0.00000000   0.00000000  -0.00003829           -0.00        0.00       -5.63

     kinetic stress (kbar)  15066.41     -0.00     -0.00
                               -0.00  15066.41      0.00
                               -0.00      0.00  15078.51

     local   stress (kbar)  -7336.85     -0.02     -0.01
                               -0.02  -7336.87     -0.01
                               -0.01     -0.01   1273.79

     nonloc. stress (kbar)  -1184.58      0.00     -0.00
                                0.00  -1184.58      0.00
                               -0.00      0.00  -1189.15

     hartree stress (kbar)  11900.97      0.01      0.00
                                0.01  11900.98      0.00
                                0.00      0.00   8026.29

     exc-cor stress (kbar)   6914.29      0.00     -0.00
                                0.00   6914.29      0.00
                               -0.00      0.00   6913.21

     corecor stress (kbar) -11262.20     -0.00      0.00
                               -0.00 -11262.20     -0.00
                                0.00     -0.00 -11262.14

     ewald   stress (kbar) -14186.59      0.01      0.00
                                0.01 -14186.57      0.01
                                0.00      0.01 -18930.19

     hubbard stress (kbar)      0.00      0.00      0.00
                                0.00      0.00      0.00
                                0.00      0.00      0.00

     DFT-D   stress (kbar)      0.00      0.00      0.00
                                0.00      0.00      0.00
                                0.00      0.00      0.00

     XDM     stress (kbar)      0.00      0.00      0.00
                                0.00      0.00      0.00
                                0.00      0.00      0.00

     dft-nl  stress (kbar)     82.76     -0.00      0.00
                               -0.00     82.76     -0.00
                                0.00     -0.00     84.04

     TS-vdW  stress (kbar)      0.00      0.00      0.00
                                0.00      0.00      0.00
                                0.00      0.00      0.00

     MDB     stress (kbar)      0.00      0.00      0.00
                                0.00      0.00      0.00
                                0.00      0.00      0.00

     3D-RISM stress (kbar)      0.00      0.00      0.00
                                0.00      0.00      0.00
                                0.00      0.00      0.00


     BFGS Geometry Optimization
     Energy error            =      0.0E+00 Ry
     Gradient error          =      7.8E-04 Ry/Bohr

     bfgs converged in   1 scf cycles and   0 bfgs steps
     (criteria: energy <  1.0E-04 Ry, force <  1.0E-03 Ry/Bohr)

     End of BFGS Geometry Optimization

     Final energy             =  -65089.5074596356 Ry
Begin final coordinates

ATOMIC_POSITIONS (angstrom)
Pb            2.3554203625        4.1802491600       14.6728750210
Pb            2.3553459401        4.0452156886        7.4697644879
Pb            0.0112391810        8.2003897659       14.7719260915
Pb           -0.0078366750        8.1619540972        7.3499146669
Pb           -2.3135672040       12.2270731515       14.7720285680
Pb           -2.3563532299       12.2298531407        7.3498922179
Pb           -4.6229410204       16.2670990847       14.6726257734
Pb           -4.7399435552       16.3347382028        7.4698406750
Pb            7.1858157895        4.1483321295       14.7496726349
Pb            7.0778587924        4.0860416863        7.4089766483
Pb            4.6995344059        8.2004137910       14.7719424966
Pb            4.7185583438        8.1619516969        7.3499283069
Pb            2.3553807714       12.2383111026       14.7293199953
Pb            2.3553823175       12.2383055958        7.3298066296
Pb            0.0305994911       16.2873454277       14.7721485689
Pb            0.0067765049       16.3230070725        7.3500337277
Pb           11.7766910222        4.0465204799       14.8254318265
Pb           11.7766817178        4.0853553739        7.4036860326
Pb            9.3930482530        8.1750306000       14.8251955463
Pb            9.4266449858        8.1556497467        7.4035303165
Pb            7.0243490588       12.2270888502       14.7721062797
Pb            7.0671361143       12.2298606592        7.3499663454
Pb            4.6802168844       16.2873583041       14.7722062737
Pb            4.7039849908       16.3230517073        7.3500939798
Pb           16.3676062656        4.1482973677       14.7497902296
Pb           16.4754538320        4.0860376279        7.4091376099
Pb           14.1603193823        8.1750212512       14.8252192273
Pb           14.1266959664        8.1556390950        7.4034795406
Pb           11.7766797959       12.0997944597       14.7494168717
Pb           11.7766536147       12.2245840714        7.4088895717
Pb            9.3337787294       16.2670927315       14.6727501848
Pb            9.4507070256       16.3347771023        7.4699004062
I             2.3553718791        1.3595368077       12.9336212260
I             0.0325326981        5.3847464425        5.5201711798
I             0.0016463722        5.4225399868       12.9052821318
I            -2.3591180819        9.5163725002        5.4846029948
I            -2.3563940089        9.5180022296       12.8920849641
I            -4.7413685446       13.6536199971        5.5201120434
I            -4.7239489168       13.6075153660       12.9050963007
I             7.0026691953        1.3585324764        5.5201892428
I             7.0511468039        1.3664255940       12.9052259183
I             4.6781195764        5.3847608050        5.5201242542
I             4.7091330613        5.4225797828       12.9052449469
I             2.3553637315        9.5048760825        5.4699505426
I             2.3553738474        9.5073408996       12.8588964955
I            -0.0118353236       13.6050801811        5.4699230090
I            -0.0097557154       13.6039123446       12.8590439655
I            11.7766896766        1.3641023900        5.4848648775
I            11.7766833088        1.3608880962       12.8922621388
I             9.4152390809        5.4355397768        5.5198987195
I             9.3914427945        5.4216334213       12.8915247763
I             7.0698630273        9.5164082276        5.4846748488
I             7.0671343871        9.5180346775       12.8921041194
I             4.7226153315       13.6051115815        5.4699912488
I             4.7205316388       13.6039272352       12.8591034692
I            16.5506136495        1.3585896000        5.5202659736
I            16.5022643883        1.3664076170       12.9053180005
I            14.1381245293        5.4354965995        5.5199171083
I            14.1620483991        5.4215762119       12.8915798387
I            11.7766436946        9.5257186812        5.5198345466
I            11.7766961488        9.5528604671       12.8913746719
I             9.4520887166       13.6536405000        5.5201420089
I             9.4347056180       13.6075550100       12.9051501509
I             0.0473597866        2.6917241488        2.0703363670
I             0.0011170206        2.7188179124        9.3273146705
I            -2.3602990396        6.8021117628        1.9147576112
I            -2.3434842753        6.8082613595        9.2710545501
I            -4.7104510318       10.8724700254        1.9146856384
I            -4.6966738856       10.8840681818        9.2708494994
I            -7.0657730702       15.0121543102        2.0700831645
I            -7.0658980391       14.9591837053        9.3272035326
I             4.6636215357        2.6917064788        2.0702503526
I             4.7096436336        2.7188154910        9.3271713286
I             2.3553741535        6.8029407790        1.8978623488
I             2.3553589391        6.6974159097        9.2329378802
I             0.0132914185       10.8860460265        1.8972814128
I            -0.0041884807       10.8760760707        9.2278898598
I            -2.3518452701       14.9559964977        1.8978947306
I            -2.4429828740       15.0086115585        9.2329662409
I             9.4265653341        2.7222872414        1.9148749172
I             9.4234164580        2.7045346136        9.2710589352
I             7.0710764779        6.8021001069        1.9147234861
I             7.0542175453        6.8081948267        9.2709967999
I             4.6974458279       10.8860513589        1.8973206219
I             4.7149095678       10.8760652889        9.2279075662
I             2.3553753085       14.9427299186        1.8974531235
I             2.3553517238       14.9628763614        9.2279835877
I            14.1267587584        2.7222846389        1.9149239490
I            14.1298492175        2.7045443669        9.2712052295
I            11.7766575103        6.7990271514        1.9047455173
I            11.7766675429        6.7990353451        9.3026058589
I             9.4212262378       10.8724587080        1.9147026188
I             9.4074513369       10.8840658424        9.2709373546
I             7.0626156522       14.9560079938        1.8980079241
I             7.1538039213       15.0086705900        9.2330280457
Pb            2.3555207913        1.3591188268        3.7262881861
End final coordinates



     Writing all to output data dir ./PbI2.save/
 
     init_run     :     14.52s CPU     19.16s WALL (       1 calls)
     electrons    :   1431.44s CPU   1484.42s WALL (       1 calls)
     forces       :     13.09s CPU     13.77s WALL (       1 calls)
     stress       :    229.94s CPU    232.34s WALL (       1 calls)

     Called by init_run:
     wfcinit      :      9.32s CPU     13.31s WALL (       1 calls)
     wfcinit:atom :      0.07s CPU      0.13s WALL (       1 calls)
     wfcinit:wfcr :      8.96s CPU      9.31s WALL (       1 calls)
     potinit      :      1.57s CPU      1.86s WALL (       1 calls)
     hinit0       :      0.87s CPU      0.91s WALL (       1 calls)

     Called by electrons:
     c_bands      :   1411.26s CPU   1462.26s WALL (       4 calls)
     sum_band     :     10.85s CPU     11.49s WALL (       4 calls)
     v_of_rho     :      3.93s CPU      4.24s WALL (       4 calls)
     v_h          :      0.05s CPU      0.05s WALL (       4 calls)
     v_xc         :      5.65s CPU      6.09s WALL (       6 calls)
     newd         :      2.51s CPU      3.52s WALL (       4 calls)
     PAW_pot      :      1.13s CPU      1.15s WALL (       4 calls)
     mix_rho      :      0.08s CPU      0.08s WALL (       4 calls)
     vdW_kernel   :      0.25s CPU      0.26s WALL (       1 calls)

     Called by c_bands:
     init_us_2    :      0.80s CPU      0.93s WALL (       9 calls)
     init_us_2:cp :      0.80s CPU      0.93s WALL (       9 calls)
     cegterg      :   1408.97s CPU   1457.73s WALL (       6 calls)

     Called by sum_band:
     sum_band:wei :      0.00s CPU      0.00s WALL (       4 calls)
     sum_band:loo :      9.32s CPU      9.42s WALL (       4 calls)
     sum_band:buf :      0.00s CPU      0.00s WALL (       4 calls)
     sum_band:ini :      0.55s CPU      0.56s WALL (       4 calls)
     sum_band:cal :      4.52s CPU      4.56s WALL (       4 calls)
     sum_band:bec :      0.04s CPU      0.04s WALL (       4 calls)
     addusdens    :      1.33s CPU      1.84s WALL (       4 calls)
     addusd:skk   :      0.08s CPU      0.09s WALL (       8 calls)
     addusd:dgemm :      0.68s CPU      1.17s WALL (       8 calls)
     addusd:qvan2 :      0.49s CPU      0.49s WALL (       8 calls)

     Called by *egterg:
     cdiaghg      :    980.89s CPU    990.23s WALL (     120 calls)
     cegterg:over :     64.75s CPU     66.41s WALL (     116 calls)
     cegterg:upda :     37.41s CPU     38.78s WALL (     116 calls)
     cegterg:last :     28.65s CPU     29.46s WALL (       9 calls)
     h_psi        :    119.64s CPU    121.31s WALL (     123 calls)
     s_psi        :     31.55s CPU     31.80s WALL (     123 calls)
     g_psi        :      0.26s CPU      0.26s WALL (     116 calls)

     Called by h_psi:
     h_psi:calbec :     34.47s CPU     34.80s WALL (     123 calls)
     vloc_psi     :     52.79s CPU     53.39s WALL (     123 calls)
     add_vuspsi   :     31.65s CPU     31.98s WALL (     123 calls)

     General routines
     calbec       :     50.25s CPU     50.70s WALL (     132 calls)
     fft          :      3.42s CPU      3.49s WALL (     420 calls)
     ffts         :      0.05s CPU      0.05s WALL (       8 calls)
     fftw         :     52.39s CPU     52.98s WALL (   24406 calls)
     interpolate  :      0.07s CPU      0.07s WALL (       4 calls)
 
     Parallel routines

     PAW routines
     PAW_pot      :      1.13s CPU      1.15s WALL (       4 calls)
 
     PWSCF        :  28m12.22s CPU  29m19.04s WALL

 
   This run was terminated on:  22:45:38  24Mar2024            

=------------------------------------------------------------------------------=
   JOB DONE.
=------------------------------------------------------------------------------=
