
     Program PWSCF v.7.1 starts on 24Mar2024 at 18:38:18 

     This program is part of the open-source Quantum ESPRESSO suite
     for quantum simulation of materials; please cite
         "P. Giannozzi et al., J. Phys.:Condens. Matter 21 395502 (2009);
         "P. Giannozzi et al., J. Phys.:Condens. Matter 29 465901 (2017);
         "P. Giannozzi et al., J. Chem. Phys. 152 154105 (2020);
          URL http://www.quantum-espresso.org", 
     in publications or presentations arising from this work. More details at
     http://www.quantum-espresso.org/quote

     Parallel version (MPI & OpenMP), running on      75 processor cores
     Number of MPI processes:                75
     Threads/MPI process:                     1

     MPI processes distributed on     1 nodes
     1994666 MiB available memory on the printing compute node when the environment starts
 
     Reading input from espresso.pwi
Warning: card &CELL ignored
Warning: card    CELL_DYNAMICS    = 'BFGS' ignored
Warning: card / ignored

     Current dimensions of program PWSCF are:
     Max number of different atomic species (ntypx) = 10
     Max number of k-points (npk) =  40000
     Max angular momentum in pseudopotentials (lmaxx) =  4
     file Pb.pbe-dn-kjpaw_psl.1.0.0.UPF: wavefunction(s)  6S 6P 5D renormalized
     file I.pbe-dn-kjpaw_psl.1.0.0.UPF: wavefunction(s)  5S 5P renormalized

     **************************************************************************
     Initializing libbeef V0.1.2 with the BEEF-vdW functional.
     Citation: Wellendorff et al., PRB 85, 235149 (2012).
     **************************************************************************


     IMPORTANT: XC functional enforced from input :
     Exchange-correlation= BEEF-VDW
                           (   1   4  43  14   2   0   0)
     Any further DFT definition will be discarded
     Please, verify this is what you really want

 
     R & G space division:  proc/nbgrp/npool/nimage =      75
     Subspace diagonalization in iterative solution of the eigenvalue problem:
     a serial algorithm will be used

 
     Parallelization info
     --------------------
     sticks:   dense  smooth     PW     G-vecs:    dense   smooth      PW
     Min         407     325     81                45135    32293    4033
     Max         408     326     82                45138    32300    4040
     Sum       30577   24439   6121              3385235  2422379  302703
 
     Using Slab Decomposition
 


     bravais-lattice index     =            4
     lattice parameter (alat)  =      35.6073  a.u.
     unit-cell volume          =   30614.2220 (a.u.)^3
     number of atoms/cell      =           96
     number of atomic types    =            2
     number of electrons       =      1531.00
     number of Kohn-Sham states=          919
     kinetic-energy cutoff     =      70.0000  Ry
     charge density cutoff     =     350.0000  Ry
     scf convergence threshold =      1.0E-07
     mixing beta               =       0.7000
     number of iterations used =            8  plain     mixing
     energy convergence thresh.=      1.0E-04
     force convergence thresh. =      1.0E-03
     Exchange-correlation= BEEF-VDW
                           (   1   4  43  14   2   0   0)
     nstep                     =           50


     celldm(1)=  35.607290  celldm(2)=   0.000000  celldm(3)=   0.783025
     celldm(4)=   0.000000  celldm(5)=   0.000000  celldm(6)=   0.000000

     crystal axes: (cart. coord. in units of alat)
               a(1) = (   1.000000   0.000000   0.000000 )  
               a(2) = (  -0.500000   0.866025   0.000000 )  
               a(3) = (   0.000000   0.000000   0.783025 )  

     reciprocal axes: (cart. coord. in units 2 pi/alat)
               b(1) = (  1.000000  0.577350 -0.000000 )  
               b(2) = (  0.000000  1.154701  0.000000 )  
               b(3) = (  0.000000 -0.000000  1.277098 )  


     PseudoPot. # 1 for Pb read from file:
     /trace/group/acmegroup/atimmins/packages/espresso/pseudo/psl_1.0.0/pslibrary.1.0.0/pbe/PSEUDOPOTENTIALS/Pb.pbe-dn-kjpaw_psl.1.0.0.UPF
     MD5 check sum: 39ab5b8a6bbd56b7735ad9f188aac93a
     Pseudo is Projector augmented-wave + core cor, Zval = 14.0
     Generated using 'atomic' code by A. Dal Corso  v.7.1
     Shape of augmentation charge: PSQ
     Using radial grid of 1281 points,  6 beta functions with: 
                l(1) =   0
                l(2) =   0
                l(3) =   1
                l(4) =   1
                l(5) =   2
                l(6) =   2
     Q(r) pseudized with 0 coefficients 


     PseudoPot. # 2 for I  read from file:
     /trace/group/acmegroup/atimmins/packages/espresso/pseudo/psl_1.0.0/pslibrary.1.0.0/pbe/PSEUDOPOTENTIALS/I.pbe-dn-kjpaw_psl.1.0.0.UPF
     MD5 check sum: bfa8781bc1224d19af3f3980e3fab11e
     Pseudo is Projector augmented-wave + core cor, Zval = 17.0
     Generated using 'atomic' code by A. Dal Corso  v.7.1
     Shape of augmentation charge: PSQ
     Using radial grid of 1247 points,  6 beta functions with: 
                l(1) =   0
                l(2) =   0
                l(3) =   1
                l(4) =   1
                l(5) =   2
                l(6) =   2
     Q(r) pseudized with 0 coefficients 


     atomic species   valence    mass     pseudopotential
        Pb            14.00   207.20000     Pb( 1.00)
        I             17.00   126.90447     I ( 1.00)

     No symmetry found


                                    s                        frac. trans.

      isym =  1     identity                                     

 cryst.   s( 1) = (     1          0          0      )
                  (     0          1          0      )
                  (     0          0          1      )

 cart.    s( 1) = (  1.0000000  0.0000000  0.0000000 )
                  (  0.0000000  1.0000000  0.0000000 )
                  (  0.0000000  0.0000000  1.0000000 )


     point group C_1 (1)    
     there are  1 classes
     the character table:

       E    
A      1.00

     the symmetry operations in each class and the name of the first element:

     E        1
          identity                                               

   Cartesian axes

     site n.     atom                  positions (alat units)
         1           Pb  tau(   1) = (   0.1250086   0.2164870   0.7830203  )
         2           Pb  tau(   2) = (   0.1250034   0.2164916   0.3915076  )
         3           Pb  tau(   3) = (   0.0000077   0.4329922   0.7830161  )
         4           Pb  tau(   4) = (   0.0000025   0.4329968   0.3915034  )
         5           Pb  tau(   5) = (  -0.1249932   0.6494975   0.7830119  )
         6           Pb  tau(   6) = (  -0.1249984   0.6495021   0.3914992  )
         7           Pb  tau(   7) = (  -0.2499941   0.8660028   0.7830077  )
         8           Pb  tau(   8) = (  -0.2499993   0.8660074   0.3914950  )
         9           Pb  tau(   9) = (   0.3750086   0.2164859   0.7830237  )
        10           Pb  tau(  10) = (   0.3750034   0.2164905   0.3915110  )
        11           Pb  tau(  11) = (   0.2500077   0.4329912   0.7830194  )
        12           Pb  tau(  12) = (   0.2500025   0.4329958   0.3915068  )
        13           Pb  tau(  13) = (   0.1250068   0.6494965   0.7830152  )
        14           Pb  tau(  14) = (   0.1250016   0.6495011   0.3915026  )
        15           Pb  tau(  15) = (   0.0000059   0.8660017   0.7830110  )
        16           Pb  tau(  16) = (   0.0000007   0.8660063   0.3914983  )
        17           Pb  tau(  17) = (   0.6250086   0.2164849   0.7830270  )
        18           Pb  tau(  18) = (   0.6250034   0.2164895   0.3915143  )
        19           Pb  tau(  19) = (   0.5000077   0.4329901   0.7830228  )
        20           Pb  tau(  20) = (   0.5000025   0.4329947   0.3915101  )
        21           Pb  tau(  21) = (   0.3750068   0.6494954   0.7830186  )
        22           Pb  tau(  22) = (   0.3750016   0.6495000   0.3915059  )
        23           Pb  tau(  23) = (   0.2500059   0.8660007   0.7830144  )
        24           Pb  tau(  24) = (   0.2500007   0.8660053   0.3915017  )
        25           Pb  tau(  25) = (   0.8750086   0.2164838   0.7830303  )
        26           Pb  tau(  26) = (   0.8750034   0.2164884   0.3915177  )
        27           Pb  tau(  27) = (   0.7500077   0.4329891   0.7830261  )
        28           Pb  tau(  28) = (   0.7500025   0.4329937   0.3915135  )
        29           Pb  tau(  29) = (   0.6250068   0.6494944   0.7830219  )
        30           Pb  tau(  30) = (   0.6250016   0.6494990   0.3915092  )
        31           Pb  tau(  31) = (   0.5000059   0.8659996   0.7830177  )
        32           Pb  tau(  32) = (   0.5000007   0.8660042   0.3915050  )
        33           I   tau(  33) = (   0.1250108   0.0721500   0.6824290  )
        34           I   tau(  34) = (   0.0000047   0.2886599   0.2909121  )
        35           I   tau(  35) = (   0.0000099   0.2886553   0.6824248  )
        36           I   tau(  36) = (  -0.1249962   0.5051652   0.2909079  )
        37           I   tau(  37) = (  -0.1249910   0.5051606   0.6824206  )
        38           I   tau(  38) = (  -0.2499972   0.7216704   0.2909037  )
        39           I   tau(  39) = (  -0.2499919   0.7216658   0.6824164  )
        40           I   tau(  40) = (   0.3750056   0.0721536   0.2909197  )
        41           I   tau(  41) = (   0.3750108   0.0721490   0.6824324  )
        42           I   tau(  42) = (   0.2500047   0.2886589   0.2909155  )
        43           I   tau(  43) = (   0.2500099   0.2886543   0.6824282  )
        44           I   tau(  44) = (   0.1250038   0.5051641   0.2909113  )
        45           I   tau(  45) = (   0.1250090   0.5051595   0.6824240  )
        46           I   tau(  46) = (   0.0000028   0.7216694   0.2909071  )
        47           I   tau(  47) = (   0.0000081   0.7216648   0.6824197  )
        48           I   tau(  48) = (   0.6250056   0.0721525   0.2909230  )
        49           I   tau(  49) = (   0.6250108   0.0721479   0.6824357  )
        50           I   tau(  50) = (   0.5000047   0.2886578   0.2909188  )
        51           I   tau(  51) = (   0.5000099   0.2886532   0.6824315  )
        52           I   tau(  52) = (   0.3750038   0.5051631   0.2909146  )
        53           I   tau(  53) = (   0.3750090   0.5051585   0.6824273  )
        54           I   tau(  54) = (   0.2500028   0.7216683   0.2909104  )
        55           I   tau(  55) = (   0.2500081   0.7216637   0.6824231  )
        56           I   tau(  56) = (   0.8750056   0.0721515   0.2909264  )
        57           I   tau(  57) = (   0.8750108   0.0721469   0.6824391  )
        58           I   tau(  58) = (   0.7500047   0.2886567   0.2909222  )
        59           I   tau(  59) = (   0.7500099   0.2886521   0.6824348  )
        60           I   tau(  60) = (   0.6250038   0.5051620   0.2909180  )
        61           I   tau(  61) = (   0.6250090   0.5051574   0.6824306  )
        62           I   tau(  62) = (   0.5000028   0.7216673   0.2909137  )
        63           I   tau(  63) = (   0.5000081   0.7216627   0.6824264  )
        64           I   tau(  64) = (  -0.0000018   0.1443297   0.1005933  )
        65           I   tau(  65) = (   0.0000034   0.1443251   0.4921060  )
        66           I   tau(  66) = (  -0.1250027   0.3608350   0.1005891  )
        67           I   tau(  67) = (  -0.1249975   0.3608304   0.4921018  )
        68           I   tau(  68) = (  -0.2500036   0.5773403   0.1005849  )
        69           I   tau(  69) = (  -0.2499984   0.5773357   0.4920975  )
        70           I   tau(  70) = (  -0.3750045   0.7938455   0.1005807  )
        71           I   tau(  71) = (  -0.3749993   0.7938409   0.4920933  )
        72           I   tau(  72) = (   0.2499982   0.1443287   0.1005966  )
        73           I   tau(  73) = (   0.2500034   0.1443241   0.4921093  )
        74           I   tau(  74) = (   0.1249973   0.3608340   0.1005924  )
        75           I   tau(  75) = (   0.1250025   0.3608294   0.4921051  )
        76           I   tau(  76) = (  -0.0000036   0.5773392   0.1005882  )
        77           I   tau(  77) = (   0.0000016   0.5773346   0.4921009  )
        78           I   tau(  78) = (  -0.1250045   0.7938445   0.1005840  )
        79           I   tau(  79) = (  -0.1249993   0.7938399   0.4920967  )
        80           I   tau(  80) = (   0.4999982   0.1443276   0.1006000  )
        81           I   tau(  81) = (   0.5000034   0.1443230   0.4921126  )
        82           I   tau(  82) = (   0.3749973   0.3608329   0.1005958  )
        83           I   tau(  83) = (   0.3750025   0.3608283   0.4921084  )
        84           I   tau(  84) = (   0.2499964   0.5773382   0.1005915  )
        85           I   tau(  85) = (   0.2500016   0.5773336   0.4921042  )
        86           I   tau(  86) = (   0.1249955   0.7938434   0.1005873  )
        87           I   tau(  87) = (   0.1250007   0.7938388   0.4921000  )
        88           I   tau(  88) = (   0.7499982   0.1443266   0.1006033  )
        89           I   tau(  89) = (   0.7500034   0.1443220   0.4921160  )
        90           I   tau(  90) = (   0.6249973   0.3608319   0.1005991  )
        91           I   tau(  91) = (   0.6250025   0.3608273   0.4921118  )
        92           I   tau(  92) = (   0.4999964   0.5773371   0.1005949  )
        93           I   tau(  93) = (   0.5000016   0.5773325   0.4921076  )
        94           I   tau(  94) = (   0.3749955   0.7938424   0.1005907  )
        95           I   tau(  95) = (   0.3750007   0.7938378   0.4921034  )
        96           Pb  tau(  96) = (   0.1250056   0.0721546   0.2909163  )

   Crystallographic axes

     site n.     atom                  positions (cryst. coord.)
         1           Pb  tau(   1) = (  0.2499975  0.2499776  0.9999935  )
         2           Pb  tau(   2) = (  0.2499949  0.2499829  0.4999935  )
         3           Pb  tau(   3) = (  0.2499959  0.4999764  0.9999882  )
         4           Pb  tau(   4) = (  0.2499933  0.4999817  0.4999882  )
         5           Pb  tau(   5) = (  0.2499944  0.7499751  0.9999828  )
         6           Pb  tau(   6) = (  0.2499918  0.7499804  0.4999828  )
         7           Pb  tau(   7) = (  0.2499928  0.9999739  0.9999774  )
         8           Pb  tau(   8) = (  0.2499903  0.9999792  0.4999774  )
         9           Pb  tau(   9) = (  0.4999968  0.2499764  0.9999978  )
        10           Pb  tau(  10) = (  0.4999943  0.2499817  0.4999978  )
        11           Pb  tau(  11) = (  0.4999953  0.4999752  0.9999924  )
        12           Pb  tau(  12) = (  0.4999927  0.4999805  0.4999924  )
        13           Pb  tau(  13) = (  0.4999938  0.7499739  0.9999871  )
        14           Pb  tau(  14) = (  0.4999912  0.7499792  0.4999871  )
        15           Pb  tau(  15) = (  0.4999922  0.9999727  0.9999817  )
        16           Pb  tau(  16) = (  0.4999896  0.9999780  0.4999817  )
        17           Pb  tau(  17) = (  0.7499962  0.2499752  1.0000021  )
        18           Pb  tau(  18) = (  0.7499936  0.2499805  0.5000021  )
        19           Pb  tau(  19) = (  0.7499947  0.4999739  0.9999967  )
        20           Pb  tau(  20) = (  0.7499921  0.4999793  0.4999967  )
        21           Pb  tau(  21) = (  0.7499932  0.7499727  0.9999913  )
        22           Pb  tau(  22) = (  0.7499906  0.7499780  0.4999913  )
        23           Pb  tau(  23) = (  0.7499916  0.9999714  0.9999860  )
        24           Pb  tau(  24) = (  0.7499890  0.9999767  0.4999860  )
        25           Pb  tau(  25) = (  0.9999956  0.2499740  1.0000064  )
        26           Pb  tau(  26) = (  0.9999930  0.2499793  0.5000064  )
        27           Pb  tau(  27) = (  0.9999941  0.4999727  1.0000010  )
        28           Pb  tau(  28) = (  0.9999915  0.4999780  0.5000010  )
        29           Pb  tau(  29) = (  0.9999926  0.7499715  0.9999956  )
        30           Pb  tau(  30) = (  0.9999900  0.7499768  0.4999956  )
        31           Pb  tau(  31) = (  0.9999910  0.9999702  0.9999902  )
        32           Pb  tau(  32) = (  0.9999884  0.9999755  0.4999902  )
        33           I   tau(  33) = (  0.1666667  0.0833117  0.8715286  )
        34           I   tau(  34) = (  0.1666625  0.3333157  0.3715233  )
        35           I   tau(  35) = (  0.1666651  0.3333104  0.8715233  )
        36           I   tau(  36) = (  0.1666610  0.5833145  0.3715179  )
        37           I   tau(  37) = (  0.1666636  0.5833092  0.8715179  )
        38           I   tau(  38) = (  0.1666595  0.8333132  0.3715125  )
        39           I   tau(  39) = (  0.1666621  0.8333079  0.8715125  )
        40           I   tau(  40) = (  0.4166635  0.0833158  0.3715329  )
        41           I   tau(  41) = (  0.4166661  0.0833105  0.8715329  )
        42           I   tau(  42) = (  0.4166619  0.3333145  0.3715275  )
        43           I   tau(  43) = (  0.4166645  0.3333092  0.8715275  )
        44           I   tau(  44) = (  0.4166604  0.5833133  0.3715222  )
        45           I   tau(  45) = (  0.4166630  0.5833080  0.8715221  )
        46           I   tau(  46) = (  0.4166589  0.8333120  0.3715168  )
        47           I   tau(  47) = (  0.4166614  0.8333067  0.8715168  )
        48           I   tau(  48) = (  0.6666629  0.0833146  0.3715372  )
        49           I   tau(  49) = (  0.6666655  0.0833093  0.8715372  )
        50           I   tau(  50) = (  0.6666613  0.3333133  0.3715318  )
        51           I   tau(  51) = (  0.6666639  0.3333080  0.8715318  )
        52           I   tau(  52) = (  0.6666598  0.5833121  0.3715264  )
        53           I   tau(  53) = (  0.6666624  0.5833068  0.8715264  )
        54           I   tau(  54) = (  0.6666582  0.8333108  0.3715210  )
        55           I   tau(  55) = (  0.6666608  0.8333055  0.8715210  )
        56           I   tau(  56) = (  0.9166623  0.0833134  0.3715414  )
        57           I   tau(  57) = (  0.9166648  0.0833080  0.8715414  )
        58           I   tau(  58) = (  0.9166607  0.3333121  0.3715361  )
        59           I   tau(  59) = (  0.9166633  0.3333068  0.8715361  )
        60           I   tau(  60) = (  0.9166592  0.5833108  0.3715307  )
        61           I   tau(  61) = (  0.9166618  0.5833055  0.8715307  )
        62           I   tau(  62) = (  0.9166576  0.8333096  0.3715253  )
        63           I   tau(  63) = (  0.9166602  0.8333043  0.8715253  )
        64           I   tau(  64) = (  0.0833270  0.1666576  0.1284675  )
        65           I   tau(  65) = (  0.0833296  0.1666523  0.6284675  )
        66           I   tau(  66) = (  0.0833255  0.4166564  0.1284621  )
        67           I   tau(  67) = (  0.0833281  0.4166511  0.6284621  )
        68           I   tau(  68) = (  0.0833239  0.6666551  0.1284567  )
        69           I   tau(  69) = (  0.0833265  0.6666498  0.6284567  )
        70           I   tau(  70) = (  0.0833224  0.9166539  0.1284513  )
        71           I   tau(  71) = (  0.0833250  0.9166486  0.6284513  )
        72           I   tau(  72) = (  0.3333264  0.1666564  0.1284717  )
        73           I   tau(  73) = (  0.3333290  0.1666511  0.6284717  )
        74           I   tau(  74) = (  0.3333249  0.4166552  0.1284664  )
        75           I   tau(  75) = (  0.3333275  0.4166499  0.6284663  )
        76           I   tau(  76) = (  0.3333233  0.6666539  0.1284610  )
        77           I   tau(  77) = (  0.3333259  0.6666486  0.6284610  )
        78           I   tau(  78) = (  0.3333218  0.9166527  0.1284556  )
        79           I   tau(  79) = (  0.3333244  0.9166473  0.6284556  )
        80           I   tau(  80) = (  0.5833258  0.1666552  0.1284760  )
        81           I   tau(  81) = (  0.5833284  0.1666499  0.6284760  )
        82           I   tau(  82) = (  0.5833243  0.4166539  0.1284706  )
        83           I   tau(  83) = (  0.5833269  0.4166486  0.6284706  )
        84           I   tau(  84) = (  0.5833227  0.6666527  0.1284652  )
        85           I   tau(  85) = (  0.5833253  0.6666474  0.6284652  )
        86           I   tau(  86) = (  0.5833212  0.9166514  0.1284599  )
        87           I   tau(  87) = (  0.5833238  0.9166461  0.6284599  )
        88           I   tau(  88) = (  0.8333252  0.1666540  0.1284803  )
        89           I   tau(  89) = (  0.8333278  0.1666487  0.6284803  )
        90           I   tau(  90) = (  0.8333237  0.4166527  0.1284749  )
        91           I   tau(  91) = (  0.8333262  0.4166474  0.6284749  )
        92           I   tau(  92) = (  0.8333221  0.6666515  0.1284695  )
        93           I   tau(  93) = (  0.8333247  0.6666462  0.6284695  )
        94           I   tau(  94) = (  0.8333206  0.9166502  0.1284641  )
        95           I   tau(  95) = (  0.8333232  0.9166449  0.6284641  )
        96           Pb  tau(  96) = (  0.1666641  0.0833170  0.3715286  )

     number of k points=     1  Gaussian smearing, width (Ry)=  0.0100
                       cart. coord. in units 2pi/alat
        k(    1) = (   0.0000000   0.0000000   0.0000000), wk =   2.0000000

                       cryst. coord.
        k(    1) = (   0.0000000   0.0000000   0.0000000), wk =   2.0000000

     Dense  grid:  3385235 G-vectors     FFT dimensions: ( 216, 216, 180)

     Smooth grid:  2422379 G-vectors     FFT dimensions: ( 192, 192, 150)

     Dynamical RAM for                 wfc:      56.60 MB

     Dynamical RAM for     wfc (w. buffer):      56.60 MB

     Dynamical RAM for           str. fact:       1.38 MB

     Dynamical RAM for           local pot:       0.00 MB

     Dynamical RAM for          nlocal pot:     106.42 MB

     Dynamical RAM for                qrad:       3.00 MB

     Dynamical RAM for          rho,v,vnew:       5.27 MB

     Dynamical RAM for               rhoin:       1.76 MB

     Dynamical RAM for            rho*nmix:      11.02 MB

     Dynamical RAM for           G-vectors:       2.83 MB

     Dynamical RAM for          h,s,v(r/c):     618.57 MB

     Dynamical RAM for          <psi|beta>:      24.23 MB

     Dynamical RAM for                 psi:     226.38 MB

     Dynamical RAM for                hpsi:     226.38 MB

     Dynamical RAM for                spsi:     226.38 MB

     Dynamical RAM for      wfcinit/wfcrot:     132.53 MB

     Dynamical RAM for           addusdens:     171.50 MB

     Dynamical RAM for          addusforce:     257.50 MB

     Dynamical RAM for         addusstress:     138.44 MB

     Estimated static dynamical RAM per process >     184.66 MB

     Estimated max dynamical RAM per process >       1.48 GB

     Estimated total dynamical RAM >     111.15 GB

     Atomic positions and unit cell read from directory:
     ./PbI2.save/
     Atomic positions from file used, from input discarded
 

     Check: negative core charge=   -0.000001

     The initial density is read from file :
     ./PbI2.save/charge-density



     %%%%%%%%%%%%%%%%%%%%%%%%%%%%%%%%%%%%%%%%%%%%%%%%%%%%%%%%%%%%%%%%%%%%%%%%
     %                                                                      %
     % You are using vdW-DF, which was implemented by the Thonhauser group. %
     % Please cite the following two papers that made this development      %
     % possible and the two reviews that describe the various versions:     %
     %                                                                      %
     %   T. Thonhauser et al., PRL 115, 136402 (2015).                      %
     %   T. Thonhauser et al., PRB 76, 125112 (2007).                       %
     %   K. Berland et al., Rep. Prog. Phys. 78, 066501 (2015).             %
     %   D.C. Langreth et al., J. Phys.: Condens. Matter 21, 084203 (2009). %
     %                                                                      %
     % If you are calculating stress with vdW-DF, please also cite:         %
     %                                                                      %
     %   R. Sabatini et al., J. Phys.: Condens. Matter 24, 424209 (2012).   %
     %                                                                      %
     %%%%%%%%%%%%%%%%%%%%%%%%%%%%%%%%%%%%%%%%%%%%%%%%%%%%%%%%%%%%%%%%%%%%%%%%

     %%%%%%%%%%%%%%%%%%%%%%%%%%%%%%%%%%%%%%%%%%%%%%%%%%%%%%%%%%%%%%%%%%%%%%%%
     %                                                                      %
     %  vdW-DF NEWS:                                                        %
     %                                                                      %
     %  * vdW-DF3 is now available. DOI: 10.1021/acs.jctc.0c00471           %
     %    use with input_dft = 'vdW-DF3-opt1' or 'vdW-DF3-opt2'             %
     %                                                                      %
     %  * Unscreened and range-separated vdW-DF hybrid functionals          %
     %    DOI: 10.1063/1.4986522 and 10.1088/1361-648X/ac2ad2               %
     %    use with input_dft = 'vdW-DF-cx0' (etc) and 'vdW-DF-ahcx'         %
     %                                                                      %
     %%%%%%%%%%%%%%%%%%%%%%%%%%%%%%%%%%%%%%%%%%%%%%%%%%%%%%%%%%%%%%%%%%%%%%%%


     Carrying out vdW-DF run using the following parameters:
     Nqs    =  20  Npoints =  1024  r_max =  100.000
     q_mesh =  0.00001000  0.04494208  0.09755937  0.15916263
               0.23128650  0.31572767  0.41458969  0.53033537
               0.66584808  0.82450364  1.01025438  1.22772762
               1.48234092  1.78043706  2.12944203  2.53805004
               3.01644009  3.57652955  4.23227104  5.00000000


     -----------------------------------------------
     Non-local corr. energy    =      45.71849183 Ry
     -----------------------------------------------

     Wavefunctions not found or not readable, recomputing them from scratch
     Starting wfcs are  864 randomized atomic wfcs +   55 random wfcs
     Checking if some PAW data can be deallocated... 
       PAW data deallocated on   58 nodes for type:  1
       PAW data deallocated on   17 nodes for type:  2

     total cpu time spent up to now is       21.0 secs

     Self-consistent Calculation

     iteration #  1     ecut=    70.00 Ry     beta= 0.70
     Davidson diagonalization with overlap

---- Real-time Memory Report at c_bands before calling an iterative solver
           577 MiB given to the printing process from OS
             0 MiB allocation reported by mallinfo(arena+hblkhd)
       1976214 MiB available memory on the node where the printing process lives
------------------
     ethr =  1.00E-05,  avg # of iterations = 36.0

     Threshold (ethr) on eigenvalues was too large:
     Diagonalizing with lowered threshold

     Davidson diagonalization with overlap

---- Real-time Memory Report at c_bands before calling an iterative solver
          1507 MiB given to the printing process from OS
             0 MiB allocation reported by mallinfo(arena+hblkhd)
       1969397 MiB available memory on the node where the printing process lives
------------------
     c_bands:  5 eigenvalues not converged
     ethr =  1.13E-08,  avg # of iterations = 20.0


     -----------------------------------------------
     Non-local corr. energy    =      45.71857481 Ry
     -----------------------------------------------


     total cpu time spent up to now is      707.9 secs

     total energy              =  -65089.50745925 Ry
     estimated scf accuracy    <       0.00000012 Ry

     iteration #  2     ecut=    70.00 Ry     beta= 0.70
     Davidson diagonalization with overlap

---- Real-time Memory Report at c_bands before calling an iterative solver
          1586 MiB given to the printing process from OS
             0 MiB allocation reported by mallinfo(arena+hblkhd)
       1969366 MiB available memory on the node where the printing process lives
------------------
     c_bands:  5 eigenvalues not converged
     ethr =  7.73E-12,  avg # of iterations = 40.0


     -----------------------------------------------
     Non-local corr. energy    =      45.71854996 Ry
     -----------------------------------------------


     total cpu time spent up to now is     1176.7 secs

     total energy              =  -65089.50745962 Ry
     estimated scf accuracy    <       0.00000065 Ry

     iteration #  3     ecut=    70.00 Ry     beta= 0.70
     Davidson diagonalization with overlap

---- Real-time Memory Report at c_bands before calling an iterative solver
          1611 MiB given to the printing process from OS
             0 MiB allocation reported by mallinfo(arena+hblkhd)
       1969253 MiB available memory on the node where the printing process lives
------------------
     c_bands:  2 eigenvalues not converged
     ethr =  7.73E-12,  avg # of iterations = 20.0


     -----------------------------------------------
     Non-local corr. energy    =      45.71846517 Ry
     -----------------------------------------------


     total cpu time spent up to now is     1507.6 secs

     End of self-consistent calculation

          k = 0.0000 0.0000 0.0000 (302703 PWs)   bands (ev):

   -41.2601 -41.2601 -41.2600 -41.2342 -41.2342 -41.2341 -41.2339 -41.2339
   -41.2338 -41.1605 -41.1604 -41.1604 -41.1601 -41.1601 -41.1600 -40.9596
   -40.9596 -40.9596 -40.9470 -40.9470 -40.9469 -40.9461 -40.9461 -40.9461
   -40.9103 -40.9103 -40.9103 -40.9098 -40.9098 -40.9098 -40.9000 -40.8999
   -40.8999 -40.8999 -40.8999 -40.8999 -40.8920 -40.8919 -40.8919 -40.8919
   -40.8919 -40.8918 -40.8892 -40.8892 -40.8892 -40.8891 -40.8891 -40.8891
   -40.8655 -40.8654 -40.8654 -40.8654 -40.8654 -40.8654 -40.8649 -40.8649
   -40.8649 -40.8649 -40.8648 -40.8648 -40.8360 -40.8360 -40.8360 -40.8249
   -40.8249 -40.8249 -40.8249 -40.8249 -40.8248 -40.8245 -40.8245 -40.8245
   -40.8245 -40.8244 -40.8244 -40.8239 -40.8239 -40.8238 -40.8218 -40.8218
   -40.8217 -40.8159 -40.8159 -40.8159 -40.8159 -40.8159 -40.8159 -40.8118
   -40.8117 -40.8117 -40.8117 -40.8117 -40.8117 -40.8105 -40.8105 -40.8105
   -40.8105 -40.8105 -40.8105 -40.7941 -40.7941 -40.7941 -40.7936 -40.7936
   -40.7936 -40.7894 -40.7894 -40.7893 -40.7881 -40.7881 -40.7881 -40.7877
   -40.7876 -40.7876 -40.7847 -40.7847 -40.7846 -40.7842 -40.7842 -40.7841
   -40.7779 -40.7779 -40.7731 -40.7731 -40.7731 -40.7729 -40.7729 -40.7728
   -40.7707 -40.7707 -40.7707 -40.7695 -40.7695 -40.7694 -40.7692 -40.7691
   -40.7691 -40.7648 -40.7648 -40.7615 -40.7615 -40.7615 -40.7602 -40.7600
   -40.7600 -40.7600 -40.7587 -40.7587 -40.7587 -40.7546 -40.7546 -40.7546
   -40.7540 -40.7540 -40.7540 -40.7470 -40.7470 -40.7469 -40.7468 -40.7468
   -40.7468 -40.7457 -40.7456 -40.7456 -40.7445 -40.7444 -40.7444 -40.7440
   -40.7440 -40.7440 -40.7336 -40.7336 -40.7288 -40.7288 -40.7269 -40.7150
   -40.7150 -40.7150 -40.7141 -40.7141 -40.7141 -40.7057 -40.7057 -40.7057
   -40.7034 -40.7034 -40.7034 -40.7018 -40.7018 -40.7018 -40.6787 -40.6787
   -40.6787 -40.6782 -40.6782 -40.6782 -40.6726 -40.6726 -40.6726 -40.6719
   -40.6719 -40.6719 -40.6708 -40.6708 -40.6708 -40.6573 -40.6572 -40.6572
   -40.6572 -40.6572 -40.6572 -40.6562 -40.6562 -40.6562 -40.6562 -40.6562
   -40.6562 -40.6549 -40.6549 -40.6549 -40.6548 -40.6548 -40.6548 -40.6542
   -40.6542 -40.6542 -40.6541 -40.6541 -40.6541 -40.6507 -40.6507 -40.6507
   -40.6499 -40.6499 -40.6499 -40.6499 -40.6499 -40.6498 -40.6493 -40.6493
   -40.6493 -40.6493 -40.6493 -40.6493 -40.6475 -40.6475 -40.6475 -40.6472
   -40.6472 -40.6472 -40.6453 -40.6453 -40.6453 -40.6430 -40.6430 -40.6383
   -40.6383 -40.6383 -40.6381 -40.6380 -40.6380 -40.6374 -40.6374 -40.6373
   -40.6370 -40.6370 -40.6370 -40.6366 -40.6366 -40.6365 -40.6325 -40.6325
   -40.6325 -40.6312 -40.6311 -40.6311 -40.6309 -40.6309 -40.6309 -40.6309
   -40.6309 -40.6309 -40.6306 -40.6306 -40.6305 -40.6303 -40.6303 -40.6303
   -40.6303 -40.6303 -40.6303 -40.6295 -40.6295 -40.6295 -40.6295 -40.6295
   -40.6295 -40.6292 -40.6292 -40.6292 -40.6292 -40.6292 -40.6292 -40.6289
   -40.6289 -40.6289 -40.6286 -40.6286 -40.6286 -40.6285 -40.6285 -40.6285
   -40.6282 -40.6282 -40.6282 -13.4992 -13.4992 -13.4179 -13.4179 -13.3750
   -13.0601 -13.0601 -13.0583 -13.0452 -13.0451 -13.0447 -13.0375 -13.0375
   -13.0355 -13.0342 -13.0342 -13.0338 -13.0329 -13.0329 -13.0325 -13.0303
   -13.0265 -13.0263 -13.0263 -13.0208 -13.0208 -13.0207 -13.0206 -13.0205
   -13.0152 -13.0131 -13.0131 -13.0109 -13.0109 -13.0093 -12.9461 -12.9461
   -12.9418 -12.9402 -12.9315 -12.9315 -12.9299 -12.9288 -12.9288 -12.9242
   -12.9231 -12.9231 -12.9211 -12.9211 -12.9192 -12.9192 -12.9186 -12.9176
   -12.9139 -12.9115 -12.9115 -12.9075 -12.9075 -12.9056 -12.9050 -12.9050
   -12.9015 -12.9015 -12.9002 -12.8995 -12.8988 -12.8988 -12.8977 -12.8976
   -12.8973 -12.8962 -12.8960 -12.8960 -12.8954 -12.8942 -12.8942 -12.8924
   -12.8924 -12.8921 -12.8906 -12.8905 -12.8905 -12.8895 -12.8895 -12.8891
   -12.8815 -12.8779 -12.8779 -12.8728 -12.8728 -12.8642 -12.8632 -12.8607
   -12.8607 -12.8575 -12.8575 -12.8553 -12.8541 -12.8526 -12.8526 -12.8250
   -12.8215 -12.8215 -12.8174 -12.8174 -12.8159 -12.8127 -12.8127 -12.8102
   -12.8086 -12.8086 -12.8077 -12.8049 -12.8042 -12.8042 -12.8028 -12.8024
   -12.8023 -12.7993 -12.7993 -12.7991 -12.7986 -12.7986 -12.7976 -12.7971
   -12.7956 -12.7956 -12.7953 -12.7953 -12.7935 -12.7870 -12.7870 -12.7865
   -12.7812 -12.7808 -12.7807 -12.7801 -12.7751 -12.7751 -12.7732 -12.7732
   -12.7724 -12.7723 -12.7689 -12.7684 -12.7683 -12.7682 -12.7675 -12.7675
   -12.7672 -12.7660 -12.7652 -12.7652 -12.7648 -12.7635 -12.7633 -12.7633
   -12.7612 -12.7612 -12.7606 -12.7606 -12.7590 -12.7583 -12.7573 -12.7573
    -8.2796  -8.0782  -8.0419  -8.0418  -7.9448  -7.9172  -7.9172  -7.9127
    -7.8900  -7.8900  -7.8341  -7.7929  -7.7928  -7.7393  -7.7379  -7.7379
    -7.7202  -7.7031  -7.7031  -7.6902  -7.6855  -7.6612  -7.6611  -7.6418
    -7.6418  -7.6007  -7.5999  -7.5999  -7.5970  -7.5711  -7.5711  -7.5663
    -7.5515  -7.5511  -7.5511  -7.5325  -7.5186  -7.5186  -7.5148  -7.5069
    -7.5057  -7.5057  -7.4968  -7.4968  -7.4953  -7.4853  -7.4737  -7.4737
    -7.4694  -7.4391  -7.4391  -7.4275  -7.4136  -7.4136  -7.4005  -7.3922
    -7.3922  -7.3688  -7.3688  -7.3673  -7.3550  -7.3550  -7.3539  -4.0309
    -3.7140  -3.7093  -3.7093  -3.6806  -3.6806  -3.6274  -3.6274  -3.6146
    -3.6108  -3.5518  -3.5354  -3.5354  -3.4994  -3.4923  -3.4894  -3.4894
    -3.4776  -3.4776  -3.4439  -3.4227  -3.4227  -3.3708  -3.3566  -3.3566
    -3.3210  -3.2382  -3.2382  -3.2240  -3.2240  -3.2159  -3.1785  -3.0178
     0.8050   0.8050   0.8606   1.0978   1.0978   1.1831   1.1833   1.1833
     1.2027   1.2160   1.2213   1.2213   1.2359   1.2359   1.3333   1.3749
     1.3888   1.3888   1.4290   1.4291   1.4390   1.4482   1.4753   1.4754
     1.4791   1.4791   1.4840   1.5499   1.5499   1.5580   1.5658   1.5658
     1.5735   1.5886   1.5886   1.5919   1.6669   1.6669   1.6808   1.7095
     1.7096   1.7251   1.7251   1.7256   1.7529   1.7529   1.8019   1.8019
     1.8087   1.8386   1.8424   1.8897   1.8897   1.8969   1.9751   2.0300
     2.0300   2.0652   2.0652   2.0819   2.0839   2.0839   2.0973   2.1024
     2.1024   2.1024   2.1151   2.1258   2.1258   2.1830   2.1830   2.1939
     2.1941   2.1942   2.2100   2.2341   2.2342   2.2407   2.2549   2.2550
     2.2552   2.2556   2.3012   2.3355   2.3442   2.3442   2.3561   2.3562
     2.3625   2.3625   2.3802   2.3840   2.3840   2.3996   2.4017   2.4017
     2.4159   2.4681   2.4764   2.4764   2.5294   2.5294   2.5332   2.5486
     2.5486   2.6038   2.6044   2.6044   2.6224   2.6224   2.6477   2.6593
     2.6797   2.6798   2.6949   2.7420   2.7469   2.7469   2.7634   2.7807
     2.7807   2.7998   2.7998   2.8372   2.8466   2.8466   2.8584   2.8584
     2.8741   2.8759   2.8759   2.8912   2.8956   2.8956   2.9025   2.9193
     2.9193   2.9580   2.9580   2.9711   2.9711   2.9824   2.9827   3.0111
     3.0238   3.0238   3.0334   3.0365   3.0365   3.0474   3.0529   3.0529
     3.0578   3.0710   3.0710   3.0737   3.0737   3.0820   3.0853   3.0853
     3.0981   3.1367   3.1367   3.1788   3.1788   3.2069   3.2265   3.2267
     3.2349   3.2367   3.2367   3.2569   3.2569   3.2721   3.2721   3.2724
     3.3499   3.3499   3.3863   3.4076   3.4076   3.4214   3.4510   3.4510
     3.4679   3.4703   3.4707   3.4707   3.5009   5.1733   5.8112   5.8113
     5.9452   6.2565   6.3198   6.4909   6.4909   6.5279   6.5280   6.5370
     6.5989   6.5989   6.6048   6.7429   6.7430   6.7430   6.7657   6.7657
     6.7941   6.7946   6.7947   6.8656   6.8727   6.8727   6.9508   6.9508
     6.9657   6.9925   6.9925   7.0014   7.0024   7.0024   7.0798   7.0798
     7.1477   7.1477   7.1531   7.1649   7.1724   7.2072   7.2072   7.2429
     7.2474   7.2726   7.2726   7.2791   7.2793   7.2793   7.3125   7.3126
     7.3166   7.3323   7.3323   7.3457   7.3514   7.3579   7.3579   7.3726
     7.3736   7.3736   7.4134   7.4134   7.4585   7.4592   7.4592   7.4728
     7.4919   7.4920   7.5081   7.5090   7.5090   7.5217   7.5217   7.5243
     7.5307   7.5485   7.5485   7.5579   7.5580   7.5685   7.5972   7.5972
     7.6276   7.6276   7.6370   7.6465   7.6509   7.6509   7.6688   7.7528
     7.7528   7.7861   7.8100   7.8143   7.8143   8.0866   8.0887   8.0887
     9.2273   9.2273   9.2485   9.7821   9.7983   9.7983   9.8554   9.8734
     9.8734   9.8906   9.9153   9.9153   9.9173  10.0497  10.0887  10.0887
    10.0960  10.0960  10.0975  10.1187  10.1222  10.1265  10.1265  10.1835
    10.1835  10.3370  10.3892  10.3946  10.3946  10.4264  10.4264  10.5038
    10.5079  10.5079  10.5452  10.5523  10.5524  10.5634  10.8340  10.8363
    10.8364  10.8496  10.8556  10.8557  10.9052  10.9544  10.9545  11.0228
    11.0228  11.0319  11.1331  11.1331  11.1494  11.2055  11.2055

     occupation numbers 
     1.0000   1.0000   1.0000   1.0000   1.0000   1.0000   1.0000   1.0000
     1.0000   1.0000   1.0000   1.0000   1.0000   1.0000   1.0000   1.0000
     1.0000   1.0000   1.0000   1.0000   1.0000   1.0000   1.0000   1.0000
     1.0000   1.0000   1.0000   1.0000   1.0000   1.0000   1.0000   1.0000
     1.0000   1.0000   1.0000   1.0000   1.0000   1.0000   1.0000   1.0000
     1.0000   1.0000   1.0000   1.0000   1.0000   1.0000   1.0000   1.0000
     1.0000   1.0000   1.0000   1.0000   1.0000   1.0000   1.0000   1.0000
     1.0000   1.0000   1.0000   1.0000   1.0000   1.0000   1.0000   1.0000
     1.0000   1.0000   1.0000   1.0000   1.0000   1.0000   1.0000   1.0000
     1.0000   1.0000   1.0000   1.0000   1.0000   1.0000   1.0000   1.0000
     1.0000   1.0000   1.0000   1.0000   1.0000   1.0000   1.0000   1.0000
     1.0000   1.0000   1.0000   1.0000   1.0000   1.0000   1.0000   1.0000
     1.0000   1.0000   1.0000   1.0000   1.0000   1.0000   1.0000   1.0000
     1.0000   1.0000   1.0000   1.0000   1.0000   1.0000   1.0000   1.0000
     1.0000   1.0000   1.0000   1.0000   1.0000   1.0000   1.0000   1.0000
     1.0000   1.0000   1.0000   1.0000   1.0000   1.0000   1.0000   1.0000
     1.0000   1.0000   1.0000   1.0000   1.0000   1.0000   1.0000   1.0000
     1.0000   1.0000   1.0000   1.0000   1.0000   1.0000   1.0000   1.0000
     1.0000   1.0000   1.0000   1.0000   1.0000   1.0000   1.0000   1.0000
     1.0000   1.0000   1.0000   1.0000   1.0000   1.0000   1.0000   1.0000
     1.0000   1.0000   1.0000   1.0000   1.0000   1.0000   1.0000   1.0000
     1.0000   1.0000   1.0000   1.0000   1.0000   1.0000   1.0000   1.0000
     1.0000   1.0000   1.0000   1.0000   1.0000   1.0000   1.0000   1.0000
     1.0000   1.0000   1.0000   1.0000   1.0000   1.0000   1.0000   1.0000
     1.0000   1.0000   1.0000   1.0000   1.0000   1.0000   1.0000   1.0000
     1.0000   1.0000   1.0000   1.0000   1.0000   1.0000   1.0000   1.0000
     1.0000   1.0000   1.0000   1.0000   1.0000   1.0000   1.0000   1.0000
     1.0000   1.0000   1.0000   1.0000   1.0000   1.0000   1.0000   1.0000
     1.0000   1.0000   1.0000   1.0000   1.0000   1.0000   1.0000   1.0000
     1.0000   1.0000   1.0000   1.0000   1.0000   1.0000   1.0000   1.0000
     1.0000   1.0000   1.0000   1.0000   1.0000   1.0000   1.0000   1.0000
     1.0000   1.0000   1.0000   1.0000   1.0000   1.0000   1.0000   1.0000
     1.0000   1.0000   1.0000   1.0000   1.0000   1.0000   1.0000   1.0000
     1.0000   1.0000   1.0000   1.0000   1.0000   1.0000   1.0000   1.0000
     1.0000   1.0000   1.0000   1.0000   1.0000   1.0000   1.0000   1.0000
     1.0000   1.0000   1.0000   1.0000   1.0000   1.0000   1.0000   1.0000
     1.0000   1.0000   1.0000   1.0000   1.0000   1.0000   1.0000   1.0000
     1.0000   1.0000   1.0000   1.0000   1.0000   1.0000   1.0000   1.0000
     1.0000   1.0000   1.0000   1.0000   1.0000   1.0000   1.0000   1.0000
     1.0000   1.0000   1.0000   1.0000   1.0000   1.0000   1.0000   1.0000
     1.0000   1.0000   1.0000   1.0000   1.0000   1.0000   1.0000   1.0000
     1.0000   1.0000   1.0000   1.0000   1.0000   1.0000   1.0000   1.0000
     1.0000   1.0000   1.0000   1.0000   1.0000   1.0000   1.0000   1.0000
     1.0000   1.0000   1.0000   1.0000   1.0000   1.0000   1.0000   1.0000
     1.0000   1.0000   1.0000   1.0000   1.0000   1.0000   1.0000   1.0000
     1.0000   1.0000   1.0000   1.0000   1.0000   1.0000   1.0000   1.0000
     1.0000   1.0000   1.0000   1.0000   1.0000   1.0000   1.0000   1.0000
     1.0000   1.0000   1.0000   1.0000   1.0000   1.0000   1.0000   1.0000
     1.0000   1.0000   1.0000   1.0000   1.0000   1.0000   1.0000   1.0000
     1.0000   1.0000   1.0000   1.0000   1.0000   1.0000   1.0000   1.0000
     1.0000   1.0000   1.0000   1.0000   1.0000   1.0000   1.0000   1.0000
     1.0000   1.0000   1.0000   1.0000   1.0000   1.0000   1.0000   1.0000
     1.0000   1.0000   1.0000   1.0000   1.0000   1.0000   1.0000   1.0000
     1.0000   1.0000   1.0000   1.0000   1.0000   1.0000   1.0000   1.0000
     1.0000   1.0000   1.0000   1.0000   1.0000   1.0000   1.0000   1.0000
     1.0000   1.0000   1.0000   1.0000   1.0000   1.0000   1.0000   1.0000
     1.0000   1.0000   1.0000   1.0000   1.0000   1.0000   1.0000   1.0000
     1.0000   1.0000   1.0000   1.0000   1.0000   1.0000   1.0000   1.0000
     1.0000   1.0000   1.0000   1.0000   1.0000   1.0000   1.0000   1.0000
     1.0000   1.0000   1.0000   1.0000   1.0000   1.0000   1.0000   1.0000
     1.0000   1.0000   1.0000   1.0000   1.0000   1.0000   1.0000   1.0000
     1.0000   1.0000   1.0000   1.0000   1.0000   1.0000   1.0000   1.0000
     1.0000   1.0000   1.0000   1.0000   1.0000   1.0000   1.0000   1.0000
     1.0000   1.0000   1.0000   1.0000   1.0000   1.0000   1.0000   1.0000
     1.0000   1.0000   1.0000   1.0000   1.0000   1.0000   1.0000   1.0000
     1.0000   1.0000   1.0000   1.0000   1.0000   1.0000   1.0000   1.0000
     1.0000   1.0000   1.0000   1.0000   1.0000   1.0000   1.0000   1.0000
     1.0000   1.0000   1.0000   1.0000   1.0000   1.0000   1.0000   1.0000
     1.0000   1.0000   1.0000   1.0000   1.0000   1.0000   1.0000   1.0000
     1.0000   1.0000   1.0000   1.0000   1.0000   1.0000   1.0000   1.0000
     1.0000   1.0000   1.0000   1.0000   1.0000   1.0000   1.0000   1.0000
     1.0000   1.0000   1.0000   1.0000   1.0000   1.0000   1.0000   1.0000
     1.0000   1.0000   1.0000   1.0000   1.0000   1.0000   1.0000   1.0000
     1.0000   1.0000   1.0000   1.0000   1.0000   1.0000   1.0000   1.0000
     1.0000   1.0000   1.0000   1.0000   1.0000   1.0000   1.0000   1.0000
     1.0000   1.0000   1.0000   1.0000   1.0000   1.0000   1.0000   1.0000
     1.0000   1.0000   1.0000   1.0000   1.0000   1.0000   1.0000   1.0000
     1.0000   1.0000   1.0000   1.0000   1.0000   1.0000   1.0000   1.0000
     1.0000   1.0000   1.0000   1.0000   1.0000   1.0000   1.0000   1.0000
     1.0000   1.0000   1.0000   1.0000   1.0000   1.0000   1.0000   1.0000
     1.0000   1.0000   1.0000   1.0000   1.0000   1.0000   1.0000   1.0000
     1.0000   1.0000   1.0000   1.0000   1.0000   1.0000   1.0000   1.0000
     1.0000   1.0000   1.0000   1.0000   1.0000   1.0000   1.0000   1.0000
     1.0000   1.0000   1.0000   1.0000   1.0000   1.0000   1.0000   1.0000
     1.0000   1.0000   1.0000   1.0000   1.0000   1.0000   1.0000   1.0000
     1.0000   1.0000   1.0000   1.0000   1.0000   1.0000   1.0000   1.0000
     1.0000   1.0000   1.0000   1.0000   1.0000   1.0000   1.0000   1.0000
     1.0000   1.0000   1.0000   1.0000   1.0000   1.0000   1.0000   1.0000
     1.0000   1.0000   1.0000   1.0000   1.0000   1.0000   1.0000   1.0000
     1.0000   1.0000   1.0000   1.0000   1.0000   1.0000   1.0000   1.0000
     1.0000   1.0000   1.0000   1.0000   1.0000   1.0000   1.0000   1.0000
     1.0000   1.0000   1.0000   1.0000   1.0000   1.0000   1.0000   1.0000
     1.0000   1.0000   1.0000   1.0000   1.0000   1.0000   1.0000   1.0000
     1.0000   1.0000   1.0000   1.0000   1.0000   1.0000   1.0000   1.0000
     1.0000   1.0000   1.0000   1.0000   1.0000   1.0000   1.0000   1.0000
     1.0000   1.0000   1.0000   1.0000   1.0000   0.5000   0.0000   0.0000
     0.0000   0.0000   0.0000   0.0000   0.0000   0.0000   0.0000   0.0000
     0.0000   0.0000   0.0000   0.0000   0.0000   0.0000   0.0000   0.0000
     0.0000   0.0000   0.0000   0.0000   0.0000   0.0000   0.0000   0.0000
     0.0000   0.0000   0.0000   0.0000   0.0000   0.0000   0.0000   0.0000
     0.0000   0.0000   0.0000   0.0000   0.0000   0.0000   0.0000   0.0000
     0.0000   0.0000   0.0000   0.0000   0.0000   0.0000   0.0000   0.0000
     0.0000   0.0000   0.0000   0.0000   0.0000   0.0000   0.0000   0.0000
     0.0000   0.0000   0.0000   0.0000   0.0000   0.0000   0.0000   0.0000
     0.0000   0.0000   0.0000   0.0000   0.0000   0.0000   0.0000   0.0000
     0.0000   0.0000   0.0000   0.0000   0.0000   0.0000   0.0000   0.0000
     0.0000   0.0000   0.0000   0.0000   0.0000   0.0000   0.0000   0.0000
     0.0000   0.0000   0.0000   0.0000   0.0000   0.0000   0.0000   0.0000
     0.0000   0.0000   0.0000   0.0000   0.0000   0.0000   0.0000   0.0000
     0.0000   0.0000   0.0000   0.0000   0.0000   0.0000   0.0000   0.0000
     0.0000   0.0000   0.0000   0.0000   0.0000   0.0000   0.0000   0.0000
     0.0000   0.0000   0.0000   0.0000   0.0000   0.0000   0.0000   0.0000
     0.0000   0.0000   0.0000   0.0000   0.0000   0.0000   0.0000   0.0000
     0.0000   0.0000   0.0000   0.0000   0.0000   0.0000   0.0000   0.0000
     0.0000   0.0000   0.0000   0.0000   0.0000   0.0000   0.0000

     the Fermi energy is     5.1733 ev

!    total energy              =  -65089.50745964 Ry
     total all-electron energy =  -2276515.549112 Ry
     estimated scf accuracy    <       0.00000003 Ry
     smearing contrib. (-TS)   =      -0.00564190 Ry
     internal energy E=F+TS    =  -65089.50181774 Ry

     The total energy is F=E-TS. E is the sum of the following terms:
     one-electron contribution =  -11839.66245544 Ry
     hartree contribution      =    6623.81616170 Ry
     xc contribution           =   -4514.99040975 Ry
     ewald contribution        =   -9844.35773465 Ry
     one-center paw contrib.   =  -45514.30737959 Ry
      -> PAW hartree energy AE =     191.95295660 Ry
      -> PAW hartree energy PS =    -192.42803804 Ry
      -> PAW xc energy AE      =   -1596.86222900 Ry
      -> PAW xc energy PS      =      66.62429175 Ry
      -> total E_H with PAW    =    6623.34108025 Ry
      -> total E_XC with PAW   =   -6045.22834700 Ry

     convergence has been achieved in   3 iterations


     -----------------------------------------------
     Non-local corr. energy    =      45.71846517 Ry
     -----------------------------------------------


     Forces acting on atoms (cartesian axes, Ry/au):

     atom    1 type  1   force =     0.00000097   -0.00020878   -0.00019867
     atom    2 type  1   force =     0.00000067    0.00023974   -0.00028432
     atom    3 type  1   force =    -0.00013383    0.00017323    0.00008453
     atom    4 type  1   force =    -0.00069260    0.00034828   -0.00001643
     atom    5 type  1   force =     0.00008090   -0.00020167    0.00008357
     atom    6 type  1   force =    -0.00004704   -0.00077518   -0.00002010
     atom    7 type  1   force =    -0.00018118    0.00010471   -0.00019781
     atom    8 type  1   force =     0.00020716   -0.00011837   -0.00028344
     atom    9 type  1   force =     0.00058923    0.00033995   -0.00023599
     atom   10 type  1   force =     0.00054627    0.00031590   -0.00018308
     atom   11 type  1   force =     0.00013486    0.00017219    0.00008418
     atom   12 type  1   force =     0.00069389    0.00034781   -0.00001722
     atom   13 type  1   force =     0.00000024   -0.00000037   -0.00012363
     atom   14 type  1   force =    -0.00000016    0.00000058    0.00037089
     atom   15 type  1   force =     0.00021661    0.00003004    0.00008278
     atom   16 type  1   force =     0.00064934    0.00042820   -0.00002030
     atom   17 type  1   force =     0.00000049    0.00022746   -0.00007220
     atom   18 type  1   force =    -0.00000036    0.00001653   -0.00015877
     atom   19 type  1   force =     0.00019583   -0.00011340   -0.00006944
     atom   20 type  1   force =     0.00001391   -0.00000539   -0.00015881
     atom   21 type  1   force =    -0.00008093   -0.00020211    0.00008290
     atom   22 type  1   force =     0.00004710   -0.00077485   -0.00001980
     atom   23 type  1   force =    -0.00021675    0.00002925    0.00008252
     atom   24 type  1   force =    -0.00064833    0.00042688   -0.00001941
     atom   25 type  1   force =    -0.00058967    0.00034044   -0.00023631
     atom   26 type  1   force =    -0.00054598    0.00031629   -0.00018366
     atom   27 type  1   force =    -0.00019598   -0.00011384   -0.00006967
     atom   28 type  1   force =    -0.00001402   -0.00000496   -0.00015845
     atom   29 type  1   force =     0.00000013   -0.00068097   -0.00023692
     atom   30 type  1   force =     0.00000044   -0.00062793   -0.00018256
     atom   31 type  1   force =     0.00018156    0.00010394   -0.00019856
     atom   32 type  1   force =    -0.00020580   -0.00011850   -0.00028441
     atom   33 type  2   force =    -0.00000059   -0.00000449   -0.00031229
     atom   34 type  2   force =     0.00017966   -0.00010030   -0.00000715
     atom   35 type  2   force =    -0.00000103   -0.00004314   -0.00047755
     atom   36 type  2   force =     0.00011270    0.00006628    0.00048032
     atom   37 type  2   force =     0.00001794    0.00001247    0.00014858
     atom   38 type  2   force =     0.00000897    0.00019625   -0.00000999
     atom   39 type  2   force =    -0.00004155    0.00001974   -0.00047393
     atom   40 type  2   force =    -0.00016728   -0.00010416   -0.00001320
     atom   41 type  2   force =    -0.00003112    0.00002438   -0.00047400
     atom   42 type  2   force =    -0.00017934   -0.00009727   -0.00000714
     atom   43 type  2   force =     0.00000262   -0.00004060   -0.00047893
     atom   44 type  2   force =     0.00000079    0.00006721   -0.00022615
     atom   45 type  2   force =    -0.00000024   -0.00009817   -0.00006668
     atom   46 type  2   force =     0.00006188   -0.00003033   -0.00023259
     atom   47 type  2   force =    -0.00008385    0.00005004   -0.00006582
     atom   48 type  2   force =     0.00000233   -0.00012769    0.00047496
     atom   49 type  2   force =    -0.00000640   -0.00002247    0.00014590
     atom   50 type  2   force =    -0.00019980   -0.00011151    0.00002609
     atom   51 type  2   force =    -0.00020325   -0.00011703    0.00024369
     atom   52 type  2   force =    -0.00011273    0.00006383    0.00048086
     atom   53 type  2   force =    -0.00001774    0.00000727    0.00015122
     atom   54 type  2   force =    -0.00005598   -0.00003321   -0.00023323
     atom   55 type  2   force =     0.00008389    0.00004662   -0.00006415
     atom   56 type  2   force =     0.00016874   -0.00010781   -0.00001102
     atom   57 type  2   force =     0.00004001    0.00002704   -0.00047817
     atom   58 type  2   force =     0.00020119   -0.00011236    0.00002866
     atom   59 type  2   force =     0.00019956   -0.00011568    0.00024090
     atom   60 type  2   force =     0.00000189    0.00023094    0.00002293
     atom   61 type  2   force =     0.00000163    0.00022832    0.00024180
     atom   62 type  2   force =    -0.00000991    0.00019313   -0.00000570
     atom   63 type  2   force =     0.00004082    0.00001636   -0.00047717
     atom   64 type  2   force =    -0.00014386    0.00008135    0.00006094
     atom   65 type  2   force =     0.00021289   -0.00012231   -0.00010636
     atom   66 type  2   force =     0.00018809   -0.00015733    0.00024528
     atom   67 type  2   force =     0.00030101   -0.00011462    0.00043418
     atom   68 type  2   force =    -0.00003974    0.00024354    0.00024889
     atom   69 type  2   force =     0.00004588    0.00032267    0.00044026
     atom   70 type  2   force =     0.00000197   -0.00016483    0.00005474
     atom   71 type  2   force =    -0.00000546    0.00024280   -0.00010184
     atom   72 type  2   force =     0.00013615    0.00008129    0.00005674
     atom   73 type  2   force =    -0.00021355   -0.00012154   -0.00009966
     atom   74 type  2   force =     0.00000344   -0.00006784    0.00005386
     atom   75 type  2   force =     0.00000601   -0.00008801   -0.00021061
     atom   76 type  2   force =     0.00004691    0.00002707    0.00010766
     atom   77 type  2   force =     0.00010149    0.00006064    0.00004299
     atom   78 type  2   force =    -0.00005780    0.00003818    0.00005756
     atom   79 type  2   force =    -0.00007746    0.00004385   -0.00020352
     atom   80 type  2   force =    -0.00023127   -0.00008669    0.00024435
     atom   81 type  2   force =    -0.00025806   -0.00020024    0.00043827
     atom   82 type  2   force =    -0.00018978   -0.00015748    0.00024529
     atom   83 type  2   force =    -0.00030785   -0.00012016    0.00044017
     atom   84 type  2   force =    -0.00005325    0.00002667    0.00010509
     atom   85 type  2   force =    -0.00010488    0.00005878    0.00004035
     atom   86 type  2   force =    -0.00000259   -0.00005895    0.00010316
     atom   87 type  2   force =    -0.00000386   -0.00011830    0.00003654
     atom   88 type  2   force =     0.00023371   -0.00008553    0.00024653
     atom   89 type  2   force =     0.00026002   -0.00019791    0.00043635
     atom   90 type  2   force =     0.00000013   -0.00000351    0.00024777
     atom   91 type  2   force =    -0.00000226   -0.00000042   -0.00029946
     atom   92 type  2   force =     0.00004389    0.00024320    0.00024702
     atom   93 type  2   force =    -0.00004381    0.00033039    0.00043750
     atom   94 type  2   force =     0.00005534    0.00003291    0.00005505
     atom   95 type  2   force =     0.00007727    0.00003599   -0.00020843
     atom   96 type  1   force =     0.00000045   -0.00000240    0.00029089
     The non-local contrib.  to forces
     atom    1 type  1   force =    -0.00000490    0.05881219   -0.07004564
     atom    2 type  1   force =     0.00000609    0.10058993    0.07809577
     atom    3 type  1   force =     0.00488411    0.01938340    0.00085187
     atom    4 type  1   force =    -0.01105387    0.01303699   -0.00574322
     atom    5 type  1   force =     0.01923648   -0.00549142    0.00083426
     atom    6 type  1   force =     0.00581044   -0.01611004   -0.00569394
     atom    7 type  1   force =     0.05094658   -0.02940337   -0.06996561
     atom    8 type  1   force =     0.08709141   -0.05031091    0.07804254
     atom    9 type  1   force =     0.08445574    0.04873150   -0.04287113
     atom   10 type  1   force =     0.01085293    0.00624200   -0.00158371
     atom   11 type  1   force =    -0.00487249    0.01938619    0.00085081
     atom   12 type  1   force =     0.01105456    0.01303994   -0.00573940
     atom   13 type  1   force =     0.00000181   -0.00001090   -0.00111321
     atom   14 type  1   force =     0.00000387   -0.00001513   -0.00429001
     atom   15 type  1   force =     0.01435759   -0.01394527    0.00083325
     atom   16 type  1   force =     0.01683327    0.00301746   -0.00569702
     atom   17 type  1   force =    -0.00000189   -0.01860627    0.02730036
     atom   18 type  1   force =     0.00000143    0.00237327    0.00223727
     atom   19 type  1   force =    -0.01606851    0.00928221    0.02730736
     atom   20 type  1   force =     0.00208750   -0.00122852    0.00225409
     atom   21 type  1   force =    -0.01922997   -0.00549451    0.00083641
     atom   22 type  1   force =    -0.00580484   -0.01611767   -0.00570863
     atom   23 type  1   force =    -0.01434809   -0.01394530    0.00083617
     atom   24 type  1   force =    -0.01683264    0.00302520   -0.00571736
     atom   25 type  1   force =    -0.08446445    0.04874448   -0.04289004
     atom   26 type  1   force =    -0.01084479    0.00624226   -0.00159138
     atom   27 type  1   force =     0.01607956    0.00929056    0.02730548
     atom   28 type  1   force =    -0.00207888   -0.00122444    0.00225232
     atom   29 type  1   force =     0.00000691   -0.09747281   -0.04281994
     atom   30 type  1   force =     0.00000542   -0.01257613   -0.00157988
     atom   31 type  1   force =    -0.05094701   -0.02939741   -0.06998182
     atom   32 type  1   force =    -0.08709663   -0.05032157    0.07806228
     atom   33 type  2   force =     0.00000368   -0.00000221    0.23619126
     atom   34 type  2   force =     0.00199305   -0.00649106    0.23234917
     atom   35 type  2   force =     0.03124162   -0.01148802    0.25500628
     atom   36 type  2   force =     0.00978848    0.00565052    0.25033692
     atom   37 type  2   force =     0.00550808    0.00317755    0.25648677
     atom   38 type  2   force =    -0.00465260    0.00498862    0.23233651
     atom   39 type  2   force =     0.00563791    0.03281046    0.25499923
     atom   40 type  2   force =    -0.00663266    0.00154959    0.23234349
     atom   41 type  2   force =    -0.02559360   -0.02129461    0.25500101
     atom   42 type  2   force =    -0.00198613   -0.00649819    0.23234419
     atom   43 type  2   force =    -0.03123675   -0.01149254    0.25500228
     atom   44 type  2   force =    -0.00000007    0.00226053    0.24497235
     atom   45 type  2   force =    -0.00000278   -0.00138138    0.25619889
     atom   46 type  2   force =     0.00195121   -0.00113203    0.24497109
     atom   47 type  2   force =    -0.00118692    0.00068355    0.25620646
     atom   48 type  2   force =     0.00000238   -0.01128666    0.25032926
     atom   49 type  2   force =    -0.00000962   -0.00634947    0.25648676
     atom   50 type  2   force =    -0.00379911   -0.00216594    0.24810963
     atom   51 type  2   force =    -0.04070115   -0.02347088    0.26534868
     atom   52 type  2   force =    -0.00979305    0.00565268    0.25033530
     atom   53 type  2   force =    -0.00551033    0.00316846    0.25648616
     atom   54 type  2   force =    -0.00195546   -0.00113684    0.24496873
     atom   55 type  2   force =     0.00118118    0.00068126    0.25620274
     atom   56 type  2   force =     0.00662393    0.00154121    0.23235042
     atom   57 type  2   force =     0.02559327   -0.02129473    0.25500306
     atom   58 type  2   force =     0.00378436   -0.00215641    0.24811355
     atom   59 type  2   force =     0.04069266   -0.02346991    0.26534998
     atom   60 type  2   force =     0.00000258    0.00439552    0.24810894
     atom   61 type  2   force =    -0.00000248    0.04698135    0.26534187
     atom   62 type  2   force =     0.00465368    0.00498079    0.23233904
     atom   63 type  2   force =    -0.00563505    0.03280426    0.25499805
     atom   64 type  2   force =     0.15223877   -0.08787431   -0.07142594
     atom   65 type  2   force =     0.00995584   -0.00574783   -0.24281213
     atom   66 type  2   force =    -0.01728159   -0.00282770   -0.25994634
     atom   67 type  2   force =    -0.00323594   -0.00564010   -0.24285206
     atom   68 type  2   force =    -0.01106670   -0.01355730   -0.25994980
     atom   69 type  2   force =    -0.00650378    0.00002948   -0.24284574
     atom   70 type  2   force =    -0.00000917    0.17576058   -0.07144224
     atom   71 type  2   force =    -0.00000852    0.01153305   -0.24280052
     atom   72 type  2   force =    -0.15224627   -0.08786499   -0.07142544
     atom   73 type  2   force =    -0.00996834   -0.00574917   -0.24280245
     atom   74 type  2   force =     0.00000071   -0.00464007   -0.25485169
     atom   75 type  2   force =     0.00000408   -0.03488901   -0.24491693
     atom   76 type  2   force =    -0.00909975   -0.00523580   -0.26251496
     atom   77 type  2   force =    -0.00273714   -0.00155842   -0.24350137
     atom   78 type  2   force =    -0.00399977    0.00232291   -0.25485402
     atom   79 type  2   force =    -0.03020450    0.01745697   -0.24491902
     atom   80 type  2   force =     0.00621072    0.01637663   -0.25995318
     atom   81 type  2   force =    -0.00326197    0.00562231   -0.24285145
     atom   82 type  2   force =     0.01727656   -0.00281991   -0.25994447
     atom   83 type  2   force =     0.00323218   -0.00563134   -0.24284543
     atom   84 type  2   force =     0.00909875   -0.00523623   -0.26251643
     atom   85 type  2   force =     0.00273350   -0.00155966   -0.24350245
     atom   86 type  2   force =    -0.00000099    0.01051735   -0.26251631
     atom   87 type  2   force =    -0.00000300    0.00316767   -0.24350572
     atom   88 type  2   force =    -0.00620205    0.01637361   -0.25995258
     atom   89 type  2   force =     0.00326988    0.00562544   -0.24285667
     atom   90 type  2   force =    -0.00000057   -0.00001035   -0.24897493
     atom   91 type  2   force =    -0.00000634   -0.00001043   -0.23873535
     atom   92 type  2   force =     0.01105956   -0.01355018   -0.25994946
     atom   93 type  2   force =     0.00649810    0.00003323   -0.24284754
     atom   94 type  2   force =     0.00399897    0.00232102   -0.25485596
     atom   95 type  2   force =     0.03021382    0.01745701   -0.24492265
     atom   96 type  1   force =    -0.00000300    0.00002908   -0.12750016
     The ionic contribution  to forces
     atom    1 type  1   force =     0.00039735   -0.66310136   -0.67781640
     atom    2 type  1   force =    -0.00004153   -6.65366164   -3.14572661
     atom    3 type  1   force =    -0.17010432   -0.48503005   -0.36766023
     atom    4 type  1   force =     0.44932568   -0.41708737    0.30749052
     atom    5 type  1   force =    -0.50403576    0.09407657   -0.36592690
     atom    6 type  1   force =    -0.13774781    0.59626002    0.30582181
     atom    7 type  1   force =    -0.57633903    0.33285085   -0.68463191
     atom    8 type  1   force =    -5.76220271    3.32799862   -3.14163328
     atom    9 type  1   force =    -1.98899381   -1.14525319    0.46797700
     atom   10 type  1   force =    -0.96489278   -0.55548524    0.15500423
     atom   11 type  1   force =     0.17038120   -0.48507564   -0.36746386
     atom   12 type  1   force =    -0.44875059   -0.41710607    0.30749977
     atom   13 type  1   force =     0.00027035   -0.00046167   -0.83844920
     atom   14 type  1   force =     0.00031313   -0.00067900    0.54690324
     atom   15 type  1   force =    -0.33355326    0.39034018   -0.36558814
     atom   16 type  1   force =    -0.58532019   -0.17883099    0.30649533
     atom   17 type  1   force =    -0.00002589    0.61706922   -0.67986477
     atom   18 type  1   force =    -0.00026100   -0.07153814    0.26241081
     atom   19 type  1   force =     0.53155228   -0.30817685   -0.68167911
     atom   20 type  1   force =    -0.06397364    0.03674573    0.26093562
     atom   21 type  1   force =     0.50410976    0.09409799   -0.36552092
     atom   22 type  1   force =     0.13753153    0.59634221    0.30659359
     atom   23 type  1   force =     0.33371733    0.39011517   -0.36541209
     atom   24 type  1   force =     0.58553151   -0.17953486    0.30730707
     atom   25 type  1   force =     1.98917411   -1.14621135    0.46972810
     atom   26 type  1   force =     0.96484300   -0.55593135    0.15599313
     atom   27 type  1   force =    -0.53240459   -0.30863222   -0.68141114
     atom   28 type  1   force =     0.06320852    0.03658380    0.26055966
     atom   29 type  1   force =    -0.00074478    2.29355658    0.46414159
     atom   30 type  1   force =    -0.00044982    1.11426336    0.15472601
     atom   31 type  1   force =     0.57598919    0.33216486   -0.68263030
     atom   32 type  1   force =     5.76221991    3.32805680   -3.14288824
     atom   33 type  2   force =     0.00022289    0.00026945  -14.69791241
     atom   34 type  2   force =     0.73315948   -1.21190961  -12.68697627
     atom   35 type  2   force =    -0.84508747    0.17546057  -14.64228040
     atom   36 type  2   force =    -0.24121248   -0.13962543  -13.76471058
     atom   37 type  2   force =    -0.11095250   -0.06589205  -15.25476444
     atom   38 type  2   force =    -0.68224872    1.23750738  -12.68409538
     atom   39 type  2   force =    -0.27228300   -0.81930565  -14.64388285
     atom   40 type  2   force =    -1.41394075   -0.02750379  -12.68451958
     atom   41 type  2   force =     0.57307375    0.64554213  -14.64375477
     atom   42 type  2   force =    -0.73273893   -1.21114758  -12.68670042
     atom   43 type  2   force =     0.84564967    0.17547816  -14.64254345
     atom   44 type  2   force =     0.00042795   -0.40413916  -13.35391187
     atom   45 type  2   force =     0.00043298   -0.04990221  -15.62317406
     atom   46 type  2   force =    -0.34858032    0.20108704  -13.35445095
     atom   47 type  2   force =    -0.04152227    0.02375317  -15.62321279
     atom   48 type  2   force =    -0.00022115    0.27829187  -13.76555225
     atom   49 type  2   force =     0.00014503    0.12835241  -15.25469547
     atom   50 type  2   force =    -0.15511575   -0.08918102  -13.96640825
     atom   51 type  2   force =     1.38557675    0.80129095  -15.29279057
     atom   52 type  2   force =     0.24121745   -0.13986765  -13.76499339
     atom   53 type  2   force =     0.11116550   -0.06584584  -15.25480106
     atom   54 type  2   force =     0.34916341    0.20089679  -13.35427326
     atom   55 type  2   force =     0.04215099    0.02362661  -15.62347391
     atom   56 type  2   force =     1.41525388   -0.02798669  -12.68534510
     atom   57 type  2   force =    -0.57334754    0.64478590  -14.64300043
     atom   58 type  2   force =     0.15493759   -0.08945618  -13.96645893
     atom   59 type  2   force =    -1.38634865    0.80130658  -15.29249050
     atom   60 type  2   force =    -0.00034527    0.17779424  -13.96625391
     atom   61 type  2   force =    -0.00036745   -1.60034234  -15.29260914
     atom   62 type  2   force =     0.68203059    1.23810988  -12.68464822
     atom   63 type  2   force =     0.27176112   -0.81965134  -14.64340094
     atom   64 type  2   force =    -5.81797118    3.36343111    9.25503652
     atom   65 type  2   force =     1.29777143   -0.74885736   11.59840999
     atom   66 type  2   force =     0.79879817   -0.27032884   14.58076770
     atom   67 type  2   force =     0.38724368    0.05392060   14.35849273
     atom   68 type  2   force =     0.16578053    0.82444704   14.58129644
     atom   69 type  2   force =     0.23974202    0.30736042   14.35836152
     atom   70 type  2   force =    -0.00121429   -6.71857565    9.25304258
     atom   71 type  2   force =     0.00013007    1.49775021   11.59937544
     atom   72 type  2   force =     5.81730469    3.36444240    9.25408496
     atom   73 type  2   force =    -1.29732633   -0.74877325   11.59932440
     atom   74 type  2   force =     0.00035741    0.19297102   14.50502038
     atom   75 type  2   force =     0.00039115    1.11010558   14.16024655
     atom   76 type  2   force =     0.05798898    0.03204252   14.45548855
     atom   77 type  2   force =     0.36100532    0.20595607   14.73850594
     atom   78 type  2   force =     0.17024221   -0.09865446   14.50461088
     atom   79 type  2   force =     0.95900518   -0.55399097   14.16064463
     atom   80 type  2   force =    -0.63211112   -0.55538231   14.58122863
     atom   81 type  2   force =    -0.14721449   -0.36058142   14.35791309
     atom   82 type  2   force =    -0.79882586   -0.26994620   14.58090956
     atom   83 type  2   force =    -0.38725266    0.05387257   14.35880425
     atom   84 type  2   force =    -0.05742471    0.03196319   14.45554297
     atom   85 type  2   force =    -0.36029004    0.20610730   14.73855570
     atom   86 type  2   force =     0.00022491   -0.06689384   14.45516773
     atom   87 type  2   force =     0.00049514   -0.41663605   14.73856491
     atom   88 type  2   force =     0.63239651   -0.55555926   14.58103607
     atom   89 type  2   force =     0.14678873   -0.36103412   14.35742031
     atom   90 type  2   force =    -0.00013007   -0.00027611   13.99736277
     atom   91 type  2   force =    -0.00013708   -0.00055750   14.60395034
     atom   92 type  2   force =    -0.16613751    0.82463243   14.58125463
     atom   93 type  2   force =    -0.24025302    0.30724618   14.35816510
     atom   94 type  2   force =    -0.16935407   -0.09855333   14.50444388
     atom   95 type  2   force =    -0.95996031   -0.55500971   14.16030649
     atom   96 type  1   force =    -0.00084350    0.00284016   13.57946553
     The local contribution  to forces
     atom    1 type  1   force =    -0.00039114    0.60510114    0.74638768
     atom    2 type  1   force =     0.00003590    6.55636338    3.06957142
     atom    3 type  1   force =     0.16519448    0.46619436    0.36691838
     atom    4 type  1   force =    -0.43919879    0.40468673   -0.30177825
     atom    5 type  1   force =     0.48525410   -0.08887777    0.36520281
     atom    6 type  1   force =     0.13201941   -0.58126857   -0.30016071
     atom    7 type  1   force =     0.52609350   -0.30385086    0.75312633
     atom    8 type  1   force =     5.67795812   -3.27933018    3.06553141
     atom    9 type  1   force =     1.90681487    1.09783794   -0.42624272
     atom   10 type  1   force =     0.95479253    0.54968117   -0.15357918
     atom   11 type  1   force =    -0.16547986    0.46623618    0.36672228
     atom   12 type  1   force =     0.43862518    0.40470125   -0.30179375
     atom   13 type  1   force =    -0.00027253    0.00047238    0.83940736
     atom   14 type  1   force =    -0.00031687    0.00069498   -0.54216681
     atom   15 type  1   force =     0.31968240   -0.37664272    0.36486465
     atom   16 type  1   force =     0.56949992    0.17630521   -0.30083267
     atom   17 type  1   force =     0.00002694   -0.59857981    0.65304854
     atom   18 type  1   force =     0.00025759    0.06916799   -0.26473338
     atom   19 type  1   force =    -0.51558837    0.29895626    0.65485735
     atom   20 type  1   force =     0.06188544   -0.03551227   -0.26327427
     atom   21 type  1   force =    -0.48533886   -0.08889884    0.36479316
     atom   22 type  1   force =    -0.13181152   -0.58134632   -0.30091814
     atom   23 type  1   force =    -0.31985518   -0.37641892    0.36468291
     atom   24 type  1   force =    -0.56971243    0.17699722   -0.30162260
     atom   25 type  1   force =    -1.90699053    1.09878499   -0.42797821
     atom   26 type  1   force =    -0.95475075    0.55012680   -0.15455918
     atom   27 type  1   force =     0.51642586    0.29940368    0.65459247
     atom   28 type  1   force =    -0.06113268   -0.03535402   -0.26289798
     atom   29 type  1   force =     0.00073641   -2.19871325   -0.42245941
     atom   30 type  1   force =     0.00044412   -1.10255308   -0.15330357
     atom   31 type  1   force =    -0.52574514   -0.30317445    0.75114057
     atom   32 type  1   force =    -5.67796914   -3.27937858    3.06676556
     atom   33 type  2   force =    -0.00022541   -0.00026339   14.46676301
     atom   34 type  2   force =    -0.73499022    1.21837945   12.45975689
     atom   35 type  2   force =     0.81459682   -0.16436443   14.39233798
     atom   36 type  2   force =     0.23178083    0.13418025   13.52061876
     atom   37 type  2   force =     0.10566287    0.06283705   15.00394326
     atom   38 type  2   force =     0.68696499   -1.24234662   12.45688946
     atom   39 type  2   force =     0.26668027    0.78734223   14.39394274
     atom   40 type  2   force =     1.42047423    0.02582135   12.45730972
     atom   41 type  2   force =    -0.54820318   -0.62470143   14.39381538
     atom   42 type  2   force =     0.73456332    1.21762155   12.45948673
     atom   43 type  2   force =    -0.81516405   -0.16437935   14.39260747
     atom   44 type  2   force =    -0.00042817    0.40191659   13.11443794
     atom   45 type  2   force =    -0.00042926    0.05112293   15.37271443
     atom   46 type  2   force =     0.34666054   -0.19997564   13.11498144
     atom   47 type  2   force =     0.04257053   -0.02435860   15.37274103
     atom   48 type  2   force =     0.00021531   -0.26741979   13.52146462
     atom   49 type  2   force =    -0.00012882   -0.12225426   15.00387827
     atom   50 type  2   force =     0.15855309    0.09113434   13.72373777
     atom   51 type  2   force =    -1.34611545   -0.77852743   15.03345999
     atom   52 type  2   force =    -0.23178037    0.13442167   13.52090170
     atom   53 type  2   force =    -0.10587284    0.06280477   15.00397951
     atom   54 type  2   force =    -0.34724378   -0.19977860   13.11480752
     atom   55 type  2   force =    -0.04319201   -0.02422652   15.37300374
     atom   56 type  2   force =    -1.42177685    0.02631437   12.45812634
     atom   57 type  2   force =     0.54846884   -0.62394871   14.39306284
     atom   58 type  2   force =    -0.15836123    0.09140134   13.72378242
     atom   59 type  2   force =     1.34689695   -0.77854587   15.03316213
     atom   60 type  2   force =     0.00034106   -0.18177228   13.72358547
     atom   61 type  2   force =     0.00036746    1.55479781   15.03328459
     atom   62 type  2   force =    -0.68674455   -1.24293694   12.45743688
     atom   63 type  2   force =    -0.26616090    0.78769583   14.39346647
     atom   64 type  2   force =     5.66901167   -3.27743949   -9.18520488
     atom   65 type  2   force =    -1.30727890    0.75434854  -11.36085642
     atom   66 type  2   force =    -0.78174823    0.27298962  -14.32641401
     atom   67 type  2   force =    -0.38362762   -0.04843398  -14.12059464
     atom   68 type  2   force =    -0.15497501   -0.81101270  -14.32694540
     atom   69 type  2   force =    -0.23317777   -0.30698521  -14.12046851
     atom   70 type  2   force =     0.00121908    6.54659359   -9.18320243
     atom   71 type  2   force =    -0.00011784   -1.50876108  -11.36182845
     atom   72 type  2   force =    -5.66833242   -3.27845727   -9.18425544
     atom   73 type  2   force =     1.30684659    0.75426483  -11.36177609
     atom   74 type  2   force =    -0.00036080   -0.18841746  -14.25588170
     atom   75 type  2   force =    -0.00039946   -1.07609585  -13.92078618
     atom   76 type  2   force =    -0.04892369   -0.02682684  -14.19877339
     atom   77 type  2   force =    -0.35821606   -0.20436935  -14.50017763
     atom   78 type  2   force =    -0.16631635    0.09637078  -14.25547339
     atom   79 type  2   force =    -0.92956713    0.53697053  -13.92117987
     atom   80 type  2   force =     0.62587769    0.53929152  -14.32686947
     atom   81 type  2   force =     0.15016006    0.35470813  -14.12001841
     atom   82 type  2   force =     0.78178216    0.27260042  -14.32655849
     atom   83 type  2   force =     0.38364697   -0.04838857  -14.12091530
     atom   84 type  2   force =     0.04836764   -0.02674732  -14.19882576
     atom   85 type  2   force =     0.35750833   -0.20451724  -14.50022294
     atom   86 type  2   force =    -0.00022099    0.05641941  -14.19845173
     atom   87 type  2   force =    -0.00048803    0.41341050  -14.50022775
     atom   88 type  2   force =    -0.62617274    0.53946985  -14.32667879
     atom   89 type  2   force =    -0.14974358    0.35515514  -14.11952378
     atom   90 type  2   force =     0.00013168    0.00028776  -13.75371340
     atom   91 type  2   force =     0.00014548    0.00056682  -14.37083120
     atom   92 type  2   force =     0.15533579   -0.81120364  -14.32690322
     atom   93 type  2   force =     0.23369196   -0.30688148  -14.12027152
     atom   94 type  2   force =     0.16543106    0.09627508  -14.25530697
     atom   95 type  2   force =     0.93051064    0.53799371  -13.92083519
     atom   96 type  1   force =     0.00084576   -0.00287030  -13.45333897
     The core correction contribution to forces
     atom    1 type  1   force =     0.00000006   -0.00097688    0.00127321
     atom    2 type  1   force =    -0.00000021   -0.00301700   -0.00211090
     atom    3 type  1   force =    -0.00006821   -0.00032143   -0.00002408
     atom    4 type  1   force =     0.00026659   -0.00022838    0.00010923
     atom    5 type  1   force =    -0.00031223    0.00010185   -0.00002346
     atom    6 type  1   force =    -0.00006508    0.00034534    0.00010870
     atom    7 type  1   force =    -0.00084614    0.00048809    0.00127128
     atom    8 type  1   force =    -0.00261200    0.00150826   -0.00210992
     atom    9 type  1   force =    -0.00168521   -0.00097253    0.00091545
     atom   10 type  1   force =    -0.00022380   -0.00012893    0.00005604
     atom   11 type  1   force =     0.00006810   -0.00032139   -0.00002401
     atom   12 type  1   force =    -0.00026661   -0.00022845    0.00010916
     atom   13 type  1   force =    -0.00000004    0.00000009    0.00000471
     atom   14 type  1   force =    -0.00000001    0.00000007    0.00004120
     atom   15 type  1   force =    -0.00024404    0.00021992   -0.00002332
     atom   16 type  1   force =    -0.00033143   -0.00011628    0.00010872
     atom   17 type  1   force =    -0.00000001    0.00030239   -0.00052083
     atom   18 type  1   force =     0.00000010   -0.00003145   -0.00001928
     atom   19 type  1   force =     0.00026129   -0.00015108   -0.00052156
     atom   20 type  1   force =    -0.00002776    0.00001606   -0.00001954
     atom   21 type  1   force =     0.00031209    0.00010188   -0.00002345
     atom   22 type  1   force =     0.00006501    0.00034537    0.00010892
     atom   23 type  1   force =     0.00024416    0.00022002   -0.00002339
     atom   24 type  1   force =     0.00033145   -0.00011638    0.00010897
     atom   25 type  1   force =     0.00168550   -0.00097280    0.00091588
     atom   26 type  1   force =     0.00022375   -0.00012903    0.00005630
     atom   27 type  1   force =    -0.00026146   -0.00015113   -0.00052141
     atom   28 type  1   force =     0.00002770    0.00001592   -0.00001965
     atom   29 type  1   force =    -0.00000013    0.00194488    0.00091412
     atom   30 type  1   force =    -0.00000013    0.00025889    0.00005604
     atom   31 type  1   force =     0.00084614    0.00048799    0.00127178
     atom   32 type  1   force =     0.00261211    0.00150852   -0.00211011
     atom   33 type  2   force =    -0.00000056    0.00000307   -0.00521188
     atom   34 type  2   force =     0.00003506   -0.00004619   -0.00492160
     atom   35 type  2   force =    -0.00071248    0.00038034   -0.00540892
     atom   36 type  2   force =    -0.00019330   -0.00010866   -0.00554856
     atom   37 type  2   force =    -0.00012054   -0.00006656   -0.00536921
     atom   38 type  2   force =    -0.00002225    0.00005251   -0.00492115
     atom   39 type  2   force =    -0.00002694   -0.00080296   -0.00540659
[...]
     atom   15 type  1   force =    -0.00002663    0.00005926    0.00004971
     atom   16 type  1   force =    -0.00003277    0.00005414   -0.00004130
     atom   17 type  1   force =     0.00000080    0.00004327    0.00001786
     atom   18 type  1   force =     0.00000098    0.00004621   -0.00000083
     atom   19 type  1   force =     0.00003859   -0.00002259    0.00001988
     atom   20 type  1   force =     0.00004183   -0.00002504   -0.00000134
     atom   21 type  1   force =     0.00006550   -0.00000729    0.00005106
     atom   22 type  1   force =     0.00006639    0.00000292   -0.00004218
     atom   23 type  1   force =     0.00002448    0.00005963    0.00005227
     atom   24 type  1   force =     0.00003322    0.00005705   -0.00004211
     atom   25 type  1   force =     0.00000515   -0.00000354    0.00004133
     atom   26 type  1   force =    -0.00001773    0.00000895   -0.00002917
     atom   27 type  1   force =    -0.00003588   -0.00002338    0.00001829
     atom   28 type  1   force =    -0.00003922   -0.00002488    0.00000056
     atom   29 type  1   force =     0.00000117    0.00000498    0.00004007
     atom   30 type  1   force =     0.00000031   -0.00001962   -0.00002781
     atom   31 type  1   force =     0.00003784    0.00002429    0.00005457
     atom   32 type  1   force =     0.00002741    0.00001768   -0.00006053
     atom   33 type  2   force =    -0.00000174   -0.00001006   -0.00008891
     atom   34 type  2   force =    -0.00001825   -0.00003154   -0.00016198
     atom   35 type  2   force =    -0.00004007   -0.00003025   -0.00007913
     atom   36 type  2   force =    -0.00005137   -0.00002907   -0.00016285
     atom   37 type  2   force =    -0.00008052   -0.00004218   -0.00009444
     atom   38 type  2   force =    -0.00003299   -0.00000429   -0.00016607
     atom   39 type  2   force =    -0.00005033   -0.00002300   -0.00007311
     atom   40 type  2   force =    -0.00001166    0.00003513   -0.00017172
     atom   41 type  2   force =     0.00000750    0.00005101   -0.00007410
     atom   42 type  2   force =     0.00001710   -0.00002566   -0.00016312
     atom   43 type  2   force =     0.00004196   -0.00002580   -0.00008351
     atom   44 type  2   force =     0.00000092   -0.00003838   -0.00019668
     atom   45 type  2   force =    -0.00000135   -0.00005108   -0.00009113
     atom   46 type  2   force =    -0.00002840    0.00002355   -0.00020610
     atom   47 type  2   force =    -0.00004339    0.00002820   -0.00008691
     atom   48 type  2   force =     0.00000604    0.00006427   -0.00016820
     atom   49 type  2   force =    -0.00001307    0.00008914   -0.00010059
     atom   50 type  2   force =     0.00000367    0.00000853   -0.00013167
     atom   51 type  2   force =     0.00002972    0.00001074   -0.00010438
     atom   52 type  2   force =     0.00005015   -0.00003258   -0.00016176
     atom   53 type  2   force =     0.00007983   -0.00005220   -0.00009070
     atom   54 type  2   force =     0.00003844    0.00001852   -0.00020828
     atom   55 type  2   force =     0.00004159    0.00002142   -0.00008383
     atom   56 type  2   force =     0.00000998    0.00002978   -0.00016691
     atom   57 type  2   force =     0.00000995    0.00005691   -0.00008109
     atom   58 type  2   force =    -0.00000120    0.00000616   -0.00012663
     atom   59 type  2   force =    -0.00003729    0.00001493   -0.00011050
     atom   60 type  2   force =     0.00000348   -0.00000427   -0.00013699
     atom   61 type  2   force =     0.00000365   -0.00004068   -0.00010636
     atom   62 type  2   force =     0.00002786   -0.00001229   -0.00015861
     atom   63 type  2   force =     0.00004878   -0.00002826   -0.00008024
     atom   64 type  2   force =    -0.00008761    0.00004410    0.00005925
     atom   65 type  2   force =    -0.00000752    0.00000162    0.00010189
     atom   66 type  2   force =    -0.00001547   -0.00002896    0.00013027
     atom   67 type  2   force =    -0.00006412   -0.00002071    0.00010589
     atom   68 type  2   force =    -0.00002859    0.00000622    0.00013957
     atom   69 type  2   force =    -0.00005876   -0.00003981    0.00011345
     atom   70 type  2   force =     0.00000438   -0.00008889    0.00006020
     atom   71 type  2   force =    -0.00000943   -0.00001747    0.00010211
     atom   72 type  2   force =     0.00007181    0.00004206    0.00005651
     atom   73 type  2   force =     0.00000635    0.00000329    0.00010500
     atom   74 type  2   force =     0.00000619   -0.00004662    0.00016154
     atom   75 type  2   force =     0.00000975   -0.00002531    0.00009362
     atom   76 type  2   force =    -0.00002362   -0.00001432    0.00016297
     atom   77 type  2   force =    -0.00005115   -0.00002635    0.00010956
     atom   78 type  2   force =    -0.00003929    0.00002971    0.00016858
     atom   79 type  2   force =    -0.00002269    0.00002108    0.00009871
     atom   80 type  2   force =    -0.00002293    0.00002215    0.00013137
     atom   81 type  2   force =    -0.00000118    0.00006756    0.00011312
     atom   82 type  2   force =     0.00001262   -0.00003035    0.00013085
     atom   83 type  2   force =     0.00004980   -0.00003257    0.00011529
     atom   84 type  2   force =     0.00000926   -0.00001436    0.00015931
     atom   85 type  2   force =     0.00004342   -0.00003045    0.00010369
     atom   86 type  2   force =    -0.00000576    0.00001975    0.00015765
     atom   87 type  2   force =    -0.00000834    0.00005402    0.00009938
     atom   88 type  2   force =     0.00002659    0.00002492    0.00013526
     atom   89 type  2   force =     0.00000412    0.00007249    0.00011276
     atom   90 type  2   force =    -0.00000095   -0.00000581    0.00011465
     atom   91 type  2   force =    -0.00000438   -0.00000041    0.00013333
     atom   92 type  2   force =     0.00003629    0.00000436    0.00013710
     atom   93 type  2   force =     0.00006273   -0.00002493    0.00011073
     atom   94 type  2   force =     0.00003478    0.00002078    0.00016745
     atom   95 type  2   force =     0.00002288    0.00000816    0.00009113
     atom   96 type  1   force =     0.00000076    0.00000010   -0.00000130

     Total force =     0.003796     Total SCF correction =     0.001148
     SCF correction compared to forces is large: reduce conv_thr to get better values


     Computing stress (Cartesian axis) and pressure



     -----------------------------------------------
     Non-local corr. energy    =      45.71846517 Ry
     -----------------------------------------------

          total   stress  (Ry/bohr**3)                   (kbar)     P=       -5.73
  -0.00003928  -0.00000000  -0.00000000           -5.78       -0.00       -0.00
  -0.00000000  -0.00003928   0.00000000           -0.00       -5.78        0.00
  -0.00000000   0.00000000  -0.00003829           -0.00        0.00       -5.63

     kinetic stress (kbar)  15066.41     -0.00     -0.00
                               -0.00  15066.41      0.00
                               -0.00      0.00  15078.51

     local   stress (kbar)  -7336.85     -0.02     -0.01
                               -0.02  -7336.87     -0.01
                               -0.01     -0.01   1273.79

     nonloc. stress (kbar)  -1184.58     -0.00     -0.00
                               -0.00  -1184.58      0.00
                               -0.00      0.00  -1189.15

     hartree stress (kbar)  11900.97      0.01      0.00
                                0.01  11900.98      0.00
                                0.00      0.00   8026.29

     exc-cor stress (kbar)   6914.29      0.00     -0.00
                                0.00   6914.29      0.00
                               -0.00      0.00   6913.21

     corecor stress (kbar) -11262.20     -0.00      0.00
                               -0.00 -11262.20     -0.00
                                0.00     -0.00 -11262.14

     ewald   stress (kbar) -14186.59      0.01      0.00
                                0.01 -14186.57      0.01
                                0.00      0.01 -18930.19

     hubbard stress (kbar)      0.00      0.00      0.00
                                0.00      0.00      0.00
                                0.00      0.00      0.00

     DFT-D   stress (kbar)      0.00      0.00      0.00
                                0.00      0.00      0.00
                                0.00      0.00      0.00

     XDM     stress (kbar)      0.00      0.00      0.00
                                0.00      0.00      0.00
                                0.00      0.00      0.00

     dft-nl  stress (kbar)     82.76     -0.00      0.00
                               -0.00     82.76     -0.00
                                0.00     -0.00     84.04

     TS-vdW  stress (kbar)      0.00      0.00      0.00
                                0.00      0.00      0.00
                                0.00      0.00      0.00

     MDB     stress (kbar)      0.00      0.00      0.00
                                0.00      0.00      0.00
                                0.00      0.00      0.00

     3D-RISM stress (kbar)      0.00      0.00      0.00
                                0.00      0.00      0.00
                                0.00      0.00      0.00


     BFGS Geometry Optimization
     Energy error            =      0.0E+00 Ry
     Gradient error          =      7.8E-04 Ry/Bohr

     bfgs converged in   1 scf cycles and   0 bfgs steps
     (criteria: energy <  1.0E-04 Ry, force <  1.0E-03 Ry/Bohr)

     End of BFGS Geometry Optimization

     Final energy             =  -65089.5074596353 Ry
Begin final coordinates

ATOMIC_POSITIONS (angstrom)
Pb            2.3554203625        4.1802491600       14.6728750210
Pb            2.3553459401        4.0452156886        7.4697644879
Pb            0.0112391810        8.2003897659       14.7719260915
Pb           -0.0078366750        8.1619540972        7.3499146669
Pb           -2.3135672040       12.2270731515       14.7720285680
Pb           -2.3563532299       12.2298531407        7.3498922179
Pb           -4.6229410204       16.2670990847       14.6726257734
Pb           -4.7399435552       16.3347382028        7.4698406750
Pb            7.1858157895        4.1483321295       14.7496726349
Pb            7.0778587924        4.0860416863        7.4089766483
Pb            4.6995344059        8.2004137910       14.7719424966
Pb            4.7185583438        8.1619516969        7.3499283069
Pb            2.3553807714       12.2383111026       14.7293199953
Pb            2.3553823175       12.2383055958        7.3298066296
Pb            0.0305994911       16.2873454277       14.7721485689
Pb            0.0067765049       16.3230070725        7.3500337277
Pb           11.7766910222        4.0465204799       14.8254318265
Pb           11.7766817178        4.0853553739        7.4036860326
Pb            9.3930482530        8.1750306000       14.8251955463
Pb            9.4266449858        8.1556497467        7.4035303165
Pb            7.0243490588       12.2270888502       14.7721062797
Pb            7.0671361143       12.2298606592        7.3499663454
Pb            4.6802168844       16.2873583041       14.7722062737
Pb            4.7039849908       16.3230517073        7.3500939798
Pb           16.3676062656        4.1482973677       14.7497902296
Pb           16.4754538320        4.0860376279        7.4091376099
Pb           14.1603193823        8.1750212512       14.8252192273
Pb           14.1266959664        8.1556390950        7.4034795406
Pb           11.7766797959       12.0997944597       14.7494168717
Pb           11.7766536147       12.2245840714        7.4088895717
Pb            9.3337787294       16.2670927315       14.6727501848
Pb            9.4507070256       16.3347771023        7.4699004062
I             2.3553718791        1.3595368077       12.9336212260
I             0.0325326981        5.3847464425        5.5201711798
I             0.0016463722        5.4225399868       12.9052821318
I            -2.3591180819        9.5163725002        5.4846029948
I            -2.3563940089        9.5180022296       12.8920849641
I            -4.7413685446       13.6536199971        5.5201120434
I            -4.7239489168       13.6075153660       12.9050963007
I             7.0026691953        1.3585324764        5.5201892428
I             7.0511468039        1.3664255940       12.9052259183
I             4.6781195764        5.3847608050        5.5201242542
I             4.7091330613        5.4225797828       12.9052449469
I             2.3553637315        9.5048760825        5.4699505426
I             2.3553738474        9.5073408996       12.8588964955
I            -0.0118353236       13.6050801811        5.4699230090
I            -0.0097557154       13.6039123446       12.8590439655
I            11.7766896766        1.3641023900        5.4848648775
I            11.7766833088        1.3608880962       12.8922621388
I             9.4152390809        5.4355397768        5.5198987195
I             9.3914427945        5.4216334213       12.8915247763
I             7.0698630273        9.5164082276        5.4846748488
I             7.0671343871        9.5180346775       12.8921041194
I             4.7226153315       13.6051115815        5.4699912488
I             4.7205316388       13.6039272352       12.8591034692
I            16.5506136495        1.3585896000        5.5202659736
I            16.5022643883        1.3664076170       12.9053180005
I            14.1381245293        5.4354965995        5.5199171083
I            14.1620483991        5.4215762119       12.8915798387
I            11.7766436946        9.5257186812        5.5198345466
I            11.7766961488        9.5528604671       12.8913746719
I             9.4520887166       13.6536405000        5.5201420089
I             9.4347056180       13.6075550100       12.9051501509
I             0.0473597866        2.6917241488        2.0703363670
I             0.0011170206        2.7188179124        9.3273146705
I            -2.3602990396        6.8021117628        1.9147576112
I            -2.3434842753        6.8082613595        9.2710545501
I            -4.7104510318       10.8724700254        1.9146856384
I            -4.6966738856       10.8840681818        9.2708494994
I            -7.0657730702       15.0121543102        2.0700831645
I            -7.0658980391       14.9591837053        9.3272035326
I             4.6636215357        2.6917064788        2.0702503526
I             4.7096436336        2.7188154910        9.3271713286
I             2.3553741535        6.8029407790        1.8978623488
I             2.3553589391        6.6974159097        9.2329378802
I             0.0132914185       10.8860460265        1.8972814128
I            -0.0041884807       10.8760760707        9.2278898598
I            -2.3518452701       14.9559964977        1.8978947306
I            -2.4429828740       15.0086115585        9.2329662409
I             9.4265653341        2.7222872414        1.9148749172
I             9.4234164580        2.7045346136        9.2710589352
I             7.0710764779        6.8021001069        1.9147234861
I             7.0542175453        6.8081948267        9.2709967999
I             4.6974458279       10.8860513589        1.8973206219
I             4.7149095678       10.8760652889        9.2279075662
I             2.3553753085       14.9427299186        1.8974531235
I             2.3553517238       14.9628763614        9.2279835877
I            14.1267587584        2.7222846389        1.9149239490
I            14.1298492175        2.7045443669        9.2712052295
I            11.7766575103        6.7990271514        1.9047455173
I            11.7766675429        6.7990353451        9.3026058589
I             9.4212262378       10.8724587080        1.9147026188
I             9.4074513369       10.8840658424        9.2709373546
I             7.0626156522       14.9560079938        1.8980079241
I             7.1538039213       15.0086705900        9.2330280457
Pb            2.3555207913        1.3591188268        3.7262881861
End final coordinates



     Writing all to output data dir ./PbI2.save/
 
     init_run     :     18.67s CPU     19.74s WALL (       1 calls)
     electrons    :   1469.32s CPU   1487.83s WALL (       1 calls)
     forces       :     11.48s CPU     12.02s WALL (       1 calls)
     stress       :    196.47s CPU    199.31s WALL (       1 calls)

     Called by init_run:
     wfcinit      :     13.29s CPU     13.76s WALL (       1 calls)
     wfcinit:atom :      0.06s CPU      0.10s WALL (       1 calls)
     wfcinit:wfcr :     12.98s CPU     13.24s WALL (       1 calls)
     potinit      :      1.91s CPU      2.16s WALL (       1 calls)
     hinit0       :      0.77s CPU      0.84s WALL (       1 calls)

     Called by electrons:
     c_bands      :   1445.23s CPU   1461.48s WALL (       4 calls)
     sum_band     :     16.96s CPU     18.05s WALL (       4 calls)
     v_of_rho     :      4.00s CPU      4.30s WALL (       4 calls)
     v_h          :      0.05s CPU      0.05s WALL (       4 calls)
     v_xc         :      5.78s CPU      6.18s WALL (       6 calls)
     newd         :      2.15s CPU      2.97s WALL (       4 calls)
     PAW_pot      :      2.26s CPU      2.28s WALL (       4 calls)
     mix_rho      :      0.07s CPU      0.09s WALL (       4 calls)
     vdW_kernel   :      0.34s CPU      0.35s WALL (       1 calls)

     Called by c_bands:
     init_us_2    :      0.74s CPU      0.86s WALL (       9 calls)
     init_us_2:cp :      0.74s CPU      0.86s WALL (       9 calls)
     cegterg      :   1442.64s CPU   1457.68s WALL (       6 calls)

     Called by sum_band:
     sum_band:wei :      0.00s CPU      0.00s WALL (       4 calls)
     sum_band:loo :     14.50s CPU     14.63s WALL (       4 calls)
     sum_band:buf :      0.00s CPU      0.00s WALL (       4 calls)
     sum_band:ini :      0.47s CPU      0.48s WALL (       4 calls)
     sum_band:cal :      7.75s CPU      7.81s WALL (       4 calls)
     sum_band:bec :      0.08s CPU      0.08s WALL (       4 calls)
     addusdens    :      2.25s CPU      3.19s WALL (       4 calls)
     addusd:skk   :      0.19s CPU      0.27s WALL (       8 calls)
     addusd:dgemm :      1.18s CPU      2.01s WALL (       8 calls)
     addusd:qvan2 :      0.83s CPU      0.84s WALL (       8 calls)

     Called by *egterg:
     cdiaghg      :    981.38s CPU    988.84s WALL (     120 calls)
     cegterg:over :    105.68s CPU    107.59s WALL (     116 calls)
     cegterg:upda :     67.51s CPU     68.66s WALL (     116 calls)
     cegterg:last :     48.05s CPU     48.41s WALL (       9 calls)
     h_psi        :    178.29s CPU    180.63s WALL (     123 calls)
     s_psi        :     48.92s CPU     49.31s WALL (     123 calls)
     g_psi        :      0.24s CPU      0.24s WALL (     116 calls)

     Called by h_psi:
     h_psi:calbec :     52.39s CPU     52.86s WALL (     123 calls)
     vloc_psi     :     75.77s CPU     76.43s WALL (     123 calls)
     add_vuspsi   :     48.86s CPU     49.31s WALL (     123 calls)

     General routines
     calbec       :     69.86s CPU     70.48s WALL (     132 calls)
     fft          :      3.62s CPU      3.71s WALL (     420 calls)
     ffts         :      0.04s CPU      0.04s WALL (       8 calls)
     fftw         :     77.37s CPU     78.06s WALL (   48590 calls)
     interpolate  :      0.07s CPU      0.08s WALL (       4 calls)
 
     Parallel routines

     PAW routines
     PAW_pot      :      2.26s CPU      2.28s WALL (       4 calls)
 
     PWSCF        :  28m19.97s CPU  28m48.24s WALL

 
   This run was terminated on:  19: 7: 6  24Mar2024            

=------------------------------------------------------------------------------=
   JOB DONE.
=------------------------------------------------------------------------------=
