
     Program PWSCF v.7.1 starts on 20Mar2024 at 15:40:18 

     This program is part of the open-source Quantum ESPRESSO suite
     for quantum simulation of materials; please cite
         "P. Giannozzi et al., J. Phys.:Condens. Matter 21 395502 (2009);
         "P. Giannozzi et al., J. Phys.:Condens. Matter 29 465901 (2017);
         "P. Giannozzi et al., J. Chem. Phys. 152 154105 (2020);
          URL http://www.quantum-espresso.org", 
     in publications or presentations arising from this work. More details at
     http://www.quantum-espresso.org/quote

     Parallel version (MPI & OpenMP), running on     128 processor cores
     Number of MPI processes:               128
     Threads/MPI process:                     1

     MPI processes distributed on     1 nodes
     2043282 MiB available memory on the printing compute node when the environment starts
 
     Reading input from espresso.pwi
Warning: card &CELL ignored
Warning: card    CELL_DYNAMICS    = 'BFGS' ignored
Warning: card / ignored

     Current dimensions of program PWSCF are:
     Max number of different atomic species (ntypx) = 10
     Max number of k-points (npk) =  40000
     Max angular momentum in pseudopotentials (lmaxx) =  4
     file Pb.pbe-dn-kjpaw_psl.1.0.0.UPF: wavefunction(s)  6S 6P 5D renormalized
     file I.pbe-dn-kjpaw_psl.1.0.0.UPF: wavefunction(s)  5S 5P renormalized

     **************************************************************************
     Initializing libbeef V0.1.2 with the BEEF-vdW functional.
     Citation: Wellendorff et al., PRB 85, 235149 (2012).
     **************************************************************************


     IMPORTANT: XC functional enforced from input :
     Exchange-correlation= BEEF-VDW
                           (   1   4  43  14   2   0   0)
     Any further DFT definition will be discarded
     Please, verify this is what you really want

 
     K-points division:     npool     =       2
     R & G space division:  proc/nbgrp/npool/nimage =      64
     Subspace diagonalization in iterative solution of the eigenvalue problem:
     a serial algorithm will be used

 
     Parallelization info
     --------------------
     sticks:   dense  smooth     PW     G-vecs:    dense   smooth      PW
     Min         268     215     55                29758    21295    2791
     Max         269     216     56                29767    21298    2796
     Sum       17215   13777   3559              1904969  1362953  178821
 
     Using Slab Decomposition
 


     bravais-lattice index     =            4
     lattice parameter (alat)  =      26.7090  a.u.
     unit-cell volume          =   17226.5091 (a.u.)^3
     number of atoms/cell      =           53
     number of atomic types    =            2
     number of electrons       =       846.00
     number of Kohn-Sham states=          508
     kinetic-energy cutoff     =      70.0000  Ry
     charge density cutoff     =     350.0000  Ry
     scf convergence threshold =      1.0E-07
     mixing beta               =       0.7000
     number of iterations used =            8  plain     mixing
     energy convergence thresh.=      1.0E-04
     force convergence thresh. =      1.0E-03
     Exchange-correlation= BEEF-VDW
                           (   1   4  43  14   2   0   0)
     nstep                     =           50


     celldm(1)=  26.709025  celldm(2)=   0.000000  celldm(3)=   1.043981
     celldm(4)=   0.000000  celldm(5)=   0.000000  celldm(6)=   0.000000

     crystal axes: (cart. coord. in units of alat)
               a(1) = (   1.000000   0.000000   0.000000 )  
               a(2) = (  -0.500000   0.866025   0.000000 )  
               a(3) = (   0.000000   0.000000   1.043981 )  

     reciprocal axes: (cart. coord. in units 2 pi/alat)
               b(1) = (  1.000000  0.577350 -0.000000 )  
               b(2) = (  0.000000  1.154701  0.000000 )  
               b(3) = (  0.000000 -0.000000  0.957872 )  


     PseudoPot. # 1 for Pb read from file:
     //group///packages/espresso/pseudo/psl_1.0.0/pslibrary.1.0.0/pbe/PSEUDOPOTENTIALS/Pb.pbe-dn-kjpaw_psl.1.0.0.UPF
     MD5 check sum: 39ab5b8a6bbd56b7735ad9f188aac93a
     Pseudo is Projector augmented-wave + core cor, Zval = 14.0
     Generated using 'atomic' code by A. Dal Corso  v.7.1
     Shape of augmentation charge: PSQ
     Using radial grid of 1281 points,  6 beta functions with: 
                l(1) =   0
                l(2) =   0
                l(3) =   1
                l(4) =   1
                l(5) =   2
                l(6) =   2
     Q(r) pseudized with 0 coefficients 


     PseudoPot. # 2 for I  read from file:
     //group///packages/espresso/pseudo/psl_1.0.0/pslibrary.1.0.0/pbe/PSEUDOPOTENTIALS/I.pbe-dn-kjpaw_psl.1.0.0.UPF
     MD5 check sum: bfa8781bc1224d19af3f3980e3fab11e
     Pseudo is Projector augmented-wave + core cor, Zval = 17.0
     Generated using 'atomic' code by A. Dal Corso  v.7.1
     Shape of augmentation charge: PSQ
     Using radial grid of 1247 points,  6 beta functions with: 
                l(1) =   0
                l(2) =   0
                l(3) =   1
                l(4) =   1
                l(5) =   2
                l(6) =   2
     Q(r) pseudized with 0 coefficients 


     atomic species   valence    mass     pseudopotential
        Pb            14.00   207.20000     Pb( 1.00)
        I             17.00   126.90447     I ( 1.00)

     No symmetry found


                                    s                        frac. trans.

      isym =  1     identity                                     

 cryst.   s( 1) = (     1          0          0      )
                  (     0          1          0      )
                  (     0          0          1      )

 cart.    s( 1) = (  1.0000000  0.0000000  0.0000000 )
                  (  0.0000000  1.0000000  0.0000000 )
                  (  0.0000000  0.0000000  1.0000000 )


     point group C_1 (1)    
     there are  1 classes
     the character table:

       E    
A      1.00

     the symmetry operations in each class and the name of the first element:

     E        1
          identity                                               

   Cartesian axes

     site n.     atom                  positions (alat units)
         1           Pb  tau(   1) = (   0.1666780   0.2886497   1.0439767  )
         2           Pb  tau(   2) = (   0.1666712   0.2886557   0.5219862  )
         3           Pb  tau(   3) = (   0.0000102   0.5773235   1.0439712  )
         4           Pb  tau(   4) = (   0.0000034   0.5773295   0.5219807  )
         5           Pb  tau(   5) = (  -0.1666576   0.8659973   1.0439657  )
         6           Pb  tau(   6) = (  -0.1666644   0.8660033   0.5219752  )
         7           Pb  tau(   7) = (   0.5000113   0.2886484   1.0439810  )
         8           Pb  tau(   8) = (   0.5000045   0.2886544   0.5219905  )
         9           Pb  tau(   9) = (   0.3333436   0.5773222   1.0439755  )
        10           Pb  tau(  10) = (   0.3333367   0.5773282   0.5219850  )
        11           Pb  tau(  11) = (   0.1666758   0.8659960   1.0439700  )
        12           Pb  tau(  12) = (   0.1666690   0.8660020   0.5219795  )
        13           Pb  tau(  13) = (   0.8333447   0.2886471   1.0439853  )
        14           Pb  tau(  14) = (   0.8333379   0.2886531   0.5219949  )
        15           Pb  tau(  15) = (   0.6666769   0.5773209   1.0439798  )
        16           Pb  tau(  16) = (   0.6666701   0.5773269   0.5219894  )
        17           Pb  tau(  17) = (   0.5000091   0.8659947   1.0439743  )
        18           Pb  tau(  18) = (   0.5000023   0.8660007   0.5219839  )
        19           I   tau(  19) = (   0.1666806   0.0962006   0.9099004  )
        20           I   tau(  20) = (   0.0000060   0.3848804   0.3879044  )
        21           I   tau(  21) = (   0.0000129   0.3848744   0.9098949  )
        22           I   tau(  22) = (  -0.1666617   0.6735542   0.3878990  )
        23           I   tau(  23) = (  -0.1666549   0.6735482   0.9098894  )
        24           I   tau(  24) = (   0.5000071   0.0962053   0.3879143  )
        25           I   tau(  25) = (   0.5000140   0.0961993   0.9099047  )
        26           I   tau(  26) = (   0.3333394   0.3848792   0.3879088  )
        27           I   tau(  27) = (   0.3333462   0.3848731   0.9098993  )
        28           I   tau(  28) = (   0.1666716   0.6735530   0.3879033  )
        29           I   tau(  29) = (   0.1666784   0.6735469   0.9098938  )
        30           I   tau(  30) = (   0.8333405   0.0962041   0.3879186  )
        31           I   tau(  31) = (   0.8333473   0.0961980   0.9099091  )
        32           I   tau(  32) = (   0.6666727   0.3848779   0.3879131  )
        33           I   tau(  33) = (   0.6666795   0.3848718   0.9099036  )
        34           I   tau(  34) = (   0.5000049   0.6735517   0.3879076  )
        35           I   tau(  35) = (   0.5000117   0.6735457   0.9098981  )
        36           I   tau(  36) = (  -0.0000023   0.1924396   0.1340740  )
        37           I   tau(  37) = (   0.0000045   0.1924336   0.6560644  )
        38           I   tau(  38) = (  -0.1666701   0.4811134   0.1340685  )
        39           I   tau(  39) = (  -0.1666632   0.4811074   0.6560589  )
        40           I   tau(  40) = (  -0.3333378   0.7697873   0.1340630  )
        41           I   tau(  41) = (  -0.3333310   0.7697812   0.6560534  )
        42           I   tau(  42) = (   0.3333311   0.1924384   0.1340783  )
        43           I   tau(  43) = (   0.3333379   0.1924323   0.6560688  )
        44           I   tau(  44) = (   0.1666633   0.4811122   0.1340728  )
        45           I   tau(  45) = (   0.1666701   0.4811061   0.6560633  )
        46           I   tau(  46) = (  -0.0000045   0.7697860   0.1340673  )
        47           I   tau(  47) = (   0.0000023   0.7697799   0.6560578  )
        48           I   tau(  48) = (   0.6666644   0.1924371   0.1340827  )
        49           I   tau(  49) = (   0.6666712   0.1924310   0.6560731  )
        50           I   tau(  50) = (   0.4999966   0.4811109   0.1340772  )
        51           I   tau(  51) = (   0.5000034   0.4811049   0.6560676  )
        52           I   tau(  52) = (   0.3333288   0.7697847   0.1340717  )
        53           I   tau(  53) = (   0.3333356   0.7697787   0.6560621  )

   Crystallographic axes

     site n.     atom                  positions (cryst. coord.)
         1           Pb  tau(   1) = (  0.3333300  0.3333039  0.9999959  )
         2           Pb  tau(   2) = (  0.3333266  0.3333109  0.4999959  )
         3           Pb  tau(   3) = (  0.3333281  0.6666357  0.9999906  )
         4           Pb  tau(   4) = (  0.3333248  0.6666427  0.4999906  )
         5           Pb  tau(   5) = (  0.3333262  0.9999675  0.9999854  )
         6           Pb  tau(   6) = (  0.3333229  0.9999745  0.4999854  )
         7           Pb  tau(   7) = (  0.6666626  0.3333025  1.0000001  )
         8           Pb  tau(   8) = (  0.6666592  0.3333094  0.5000001  )
         9           Pb  tau(   9) = (  0.6666607  0.6666343  0.9999948  )
        10           Pb  tau(  10) = (  0.6666573  0.6666412  0.4999948  )
        11           Pb  tau(  11) = (  0.6666588  0.9999661  0.9999895  )
        12           Pb  tau(  12) = (  0.6666555  0.9999730  0.4999895  )
        13           Pb  tau(  13) = (  0.9999951  0.3333010  1.0000042  )
        14           Pb  tau(  14) = (  0.9999918  0.3333079  0.5000042  )
        15           Pb  tau(  15) = (  0.9999933  0.6666328  0.9999990  )
        16           Pb  tau(  16) = (  0.9999899  0.6666397  0.4999990  )
        17           Pb  tau(  17) = (  0.9999914  0.9999646  0.9999937  )
        18           Pb  tau(  18) = (  0.9999881  0.9999715  0.4999937  )
        19           I   tau(  19) = (  0.2222221  0.1110829  0.8715680  )
        20           I   tau(  20) = (  0.2222169  0.4444217  0.3715628  )
        21           I   tau(  21) = (  0.2222202  0.4444147  0.8715628  )
        22           I   tau(  22) = (  0.2222150  0.7777534  0.3715575  )
        23           I   tau(  23) = (  0.2222183  0.7777465  0.8715575  )
        24           I   tau(  24) = (  0.5555513  0.1110884  0.3715722  )
        25           I   tau(  25) = (  0.5555547  0.1110814  0.8715722  )
        26           I   tau(  26) = (  0.5555495  0.4444202  0.3715669  )
        27           I   tau(  27) = (  0.5555528  0.4444132  0.8715669  )
        28           I   tau(  28) = (  0.5555476  0.7777520  0.3715617  )
        29           I   tau(  29) = (  0.5555509  0.7777450  0.8715617  )
        30           I   tau(  30) = (  0.8888839  0.1110869  0.3715764  )
        31           I   tau(  31) = (  0.8888873  0.1110799  0.8715764  )
        32           I   tau(  32) = (  0.8888820  0.4444187  0.3715711  )
        33           I   tau(  33) = (  0.8888854  0.4444117  0.8715711  )
        34           I   tau(  34) = (  0.8888802  0.7777505  0.3715658  )
        35           I   tau(  35) = (  0.8888835  0.7777435  0.8715658  )
        36           I   tau(  36) = (  0.1111028  0.2222102  0.1284257  )
        37           I   tau(  37) = (  0.1111061  0.2222032  0.6284257  )
        38           I   tau(  38) = (  0.1111009  0.5555420  0.1284204  )
        39           I   tau(  39) = (  0.1111043  0.5555350  0.6284204  )
        40           I   tau(  40) = (  0.1110991  0.8888738  0.1284152  )
        41           I   tau(  41) = (  0.1111024  0.8888668  0.6284152  )
        42           I   tau(  42) = (  0.4444354  0.2222087  0.1284299  )
        43           I   tau(  43) = (  0.4444387  0.2222017  0.6284299  )
        44           I   tau(  44) = (  0.4444335  0.5555405  0.1284246  )
        45           I   tau(  45) = (  0.4444369  0.5555335  0.6284246  )
        46           I   tau(  46) = (  0.4444316  0.8888723  0.1284193  )
        47           I   tau(  47) = (  0.4444350  0.8888653  0.6284193  )
        48           I   tau(  48) = (  0.7777680  0.2222072  0.1284340  )
        49           I   tau(  49) = (  0.7777713  0.2222002  0.6284340  )
        50           I   tau(  50) = (  0.7777661  0.5555390  0.1284287  )
        51           I   tau(  51) = (  0.7777694  0.5555320  0.6284287  )
        52           I   tau(  52) = (  0.7777642  0.8888708  0.1284235  )
        53           I   tau(  53) = (  0.7777676  0.8888638  0.6284235  )

     number of k points=     4  Gaussian smearing, width (Ry)=  0.0100
                       cart. coord. in units 2pi/alat
        k(    1) = (   0.0000000   0.0000000   0.0000000), wk =   0.5000000
        k(    2) = (   0.0000000  -0.5773503   0.0000000), wk =   0.5000000
        k(    3) = (   0.5000000  -0.2886751   0.0000000), wk =   0.5000000
        k(    4) = (  -0.5000000  -0.2886751   0.0000000), wk =   0.5000000

                       cryst. coord.
        k(    1) = (   0.0000000   0.0000000   0.0000000), wk =   0.5000000
        k(    2) = (   0.0000000  -0.5000000   0.0000000), wk =   0.5000000
        k(    3) = (   0.5000000  -0.5000000   0.0000000), wk =   0.5000000
        k(    4) = (  -0.5000000   0.0000000   0.0000000), wk =   0.5000000

     Dense  grid:  1904969 G-vectors     FFT dimensions: ( 160, 160, 180)

     Smooth grid:  1362953 G-vectors     FFT dimensions: ( 144, 144, 150)

     Dynamical RAM for                 wfc:      20.63 MB

     Dynamical RAM for     wfc (w. buffer):      61.90 MB

     Dynamical RAM for           str. fact:       0.91 MB

     Dynamical RAM for           local pot:       0.00 MB

     Dynamical RAM for          nlocal pot:      38.75 MB

     Dynamical RAM for                qrad:       3.00 MB

     Dynamical RAM for          rho,v,vnew:       3.12 MB

     Dynamical RAM for               rhoin:       1.04 MB

     Dynamical RAM for            rho*nmix:       7.27 MB

     Dynamical RAM for           G-vectors:       1.87 MB

     Dynamical RAM for          h,s,v(r/c):     189.01 MB

     Dynamical RAM for          <psi|beta>:       7.39 MB

     Dynamical RAM for                 psi:      82.54 MB

     Dynamical RAM for                hpsi:      82.54 MB

     Dynamical RAM for                spsi:      82.54 MB

     Dynamical RAM for      wfcinit/wfcrot:      47.18 MB

     Dynamical RAM for           addusdens:      50.42 MB

     Dynamical RAM for          addusforce:      65.99 MB

     Dynamical RAM for         addusstress:      45.76 MB

     Estimated static dynamical RAM per process >     114.88 MB

     Estimated max dynamical RAM per process >     566.17 MB

     Estimated total dynamical RAM >      70.32 GB

     Check: negative core charge=   -0.000001

     Initial potential from superposition of free atoms

     starting charge     846.9550, renormalised to     846.0000


     %%%%%%%%%%%%%%%%%%%%%%%%%%%%%%%%%%%%%%%%%%%%%%%%%%%%%%%%%%%%%%%%%%%%%%%%
     %                                                                      %
     % You are using vdW-DF, which was implemented by the Thonhauser group. %
     % Please cite the following two papers that made this development      %
     % possible and the two reviews that describe the various versions:     %
     %                                                                      %
     %   T. Thonhauser et al., PRL 115, 136402 (2015).                      %
     %   T. Thonhauser et al., PRB 76, 125112 (2007).                       %
     %   K. Berland et al., Rep. Prog. Phys. 78, 066501 (2015).             %
     %   D.C. Langreth et al., J. Phys.: Condens. Matter 21, 084203 (2009). %
     %                                                                      %
     % If you are calculating stress with vdW-DF, please also cite:         %
     %                                                                      %
     %   R. Sabatini et al., J. Phys.: Condens. Matter 24, 424209 (2012).   %
     %                                                                      %
     %%%%%%%%%%%%%%%%%%%%%%%%%%%%%%%%%%%%%%%%%%%%%%%%%%%%%%%%%%%%%%%%%%%%%%%%

     %%%%%%%%%%%%%%%%%%%%%%%%%%%%%%%%%%%%%%%%%%%%%%%%%%%%%%%%%%%%%%%%%%%%%%%%
     %                                                                      %
     %  vdW-DF NEWS:                                                        %
     %                                                                      %
     %  * vdW-DF3 is now available. DOI: 10.1021/acs.jctc.0c00471           %
     %    use with input_dft = 'vdW-DF3-opt1' or 'vdW-DF3-opt2'             %
     %                                                                      %
     %  * Unscreened and range-separated vdW-DF hybrid functionals          %
     %    DOI: 10.1063/1.4986522 and 10.1088/1361-648X/ac2ad2               %
     %    use with input_dft = 'vdW-DF-cx0' (etc) and 'vdW-DF-ahcx'         %
     %                                                                      %
     %%%%%%%%%%%%%%%%%%%%%%%%%%%%%%%%%%%%%%%%%%%%%%%%%%%%%%%%%%%%%%%%%%%%%%%%


     Carrying out vdW-DF run using the following parameters:
     Nqs    =  20  Npoints =  1024  r_max =  100.000
     q_mesh =  0.00001000  0.04494208  0.09755937  0.15916263
               0.23128650  0.31572767  0.41458969  0.53033537
               0.66584808  0.82450364  1.01025438  1.22772762
               1.48234092  1.78043706  2.12944203  2.53805004
               3.01644009  3.57652955  4.23227104  5.00000000


     -----------------------------------------------
     Non-local corr. energy    =      25.19727174 Ry
     -----------------------------------------------

     Starting wfcs are  477 randomized atomic wfcs +   31 random wfcs
     Checking if some PAW data can be deallocated... 
       PAW data deallocated on   74 nodes for type:  1
       PAW data deallocated on   54 nodes for type:  2

     total cpu time spent up to now is       10.5 secs

     Self-consistent Calculation

     iteration #  1     ecut=    70.00 Ry     beta= 0.70
     Davidson diagonalization with overlap

---- Real-time Memory Report at c_bands before calling an iterative solver
           339 MiB given to the printing process from OS
             0 MiB allocation reported by mallinfo(arena+hblkhd)
       2024035 MiB available memory on the node where the printing process lives
------------------
     ethr =  1.00E-02,  avg # of iterations =  7.8

     Threshold (ethr) on eigenvalues was too large:
     Diagonalizing with lowered threshold

     Davidson diagonalization with overlap

---- Real-time Memory Report at c_bands before calling an iterative solver
           568 MiB given to the printing process from OS
             0 MiB allocation reported by mallinfo(arena+hblkhd)
       2022875 MiB available memory on the node where the printing process lives
------------------
     ethr =  2.50E-04,  avg # of iterations = 12.5


     -----------------------------------------------
     Non-local corr. energy    =      25.42987048 Ry
     -----------------------------------------------


     total cpu time spent up to now is      149.5 secs

     total energy              =  -35861.13540168 Ry
     estimated scf accuracy    <       2.01079660 Ry

     iteration #  2     ecut=    70.00 Ry     beta= 0.70
     Davidson diagonalization with overlap

---- Real-time Memory Report at c_bands before calling an iterative solver
           614 MiB given to the printing process from OS
             0 MiB allocation reported by mallinfo(arena+hblkhd)
       2022860 MiB available memory on the node where the printing process lives
------------------
     ethr =  2.38E-04,  avg # of iterations = 10.5


     -----------------------------------------------
     Non-local corr. energy    =      25.35146005 Ry
     -----------------------------------------------


     total cpu time spent up to now is      224.0 secs

     total energy              =  -35861.15623884 Ry
     estimated scf accuracy    <       3.57815648 Ry

     iteration #  3     ecut=    70.00 Ry     beta= 0.70
     Davidson diagonalization with overlap

---- Real-time Memory Report at c_bands before calling an iterative solver
           622 MiB given to the printing process from OS
             0 MiB allocation reported by mallinfo(arena+hblkhd)
       2021678 MiB available memory on the node where the printing process lives
------------------
     ethr =  2.38E-04,  avg # of iterations = 12.0


     -----------------------------------------------
     Non-local corr. energy    =      25.33851887 Ry
     -----------------------------------------------


     total cpu time spent up to now is      292.9 secs

     total energy              =  -35861.90975343 Ry
     estimated scf accuracy    <       0.44959845 Ry

     iteration #  4     ecut=    70.00 Ry     beta= 0.70
     Davidson diagonalization with overlap

---- Real-time Memory Report at c_bands before calling an iterative solver
           622 MiB given to the printing process from OS
             0 MiB allocation reported by mallinfo(arena+hblkhd)
       2022507 MiB available memory on the node where the printing process lives
------------------
     ethr =  5.31E-05,  avg # of iterations = 14.5


     -----------------------------------------------
     Non-local corr. energy    =      25.33377045 Ry
     -----------------------------------------------


     total cpu time spent up to now is      373.6 secs

     total energy              =  -35861.97272921 Ry
     estimated scf accuracy    <       0.20891902 Ry

     iteration #  5     ecut=    70.00 Ry     beta= 0.70
     Davidson diagonalization with overlap

---- Real-time Memory Report at c_bands before calling an iterative solver
           624 MiB given to the printing process from OS
             0 MiB allocation reported by mallinfo(arena+hblkhd)
       2021347 MiB available memory on the node where the printing process lives
------------------
     ethr =  2.47E-05,  avg # of iterations = 19.3


     -----------------------------------------------
     Non-local corr. energy    =      25.33453457 Ry
     -----------------------------------------------


     total cpu time spent up to now is      471.0 secs

     total energy              =  -35862.00376052 Ry
     estimated scf accuracy    <       0.04652913 Ry

     iteration #  6     ecut=    70.00 Ry     beta= 0.70
     Davidson diagonalization with overlap

---- Real-time Memory Report at c_bands before calling an iterative solver
           624 MiB given to the printing process from OS
             0 MiB allocation reported by mallinfo(arena+hblkhd)
       2022364 MiB available memory on the node where the printing process lives
------------------
     ethr =  5.50E-06,  avg # of iterations = 14.8


     -----------------------------------------------
     Non-local corr. energy    =      25.33771614 Ry
     -----------------------------------------------


     total cpu time spent up to now is      559.8 secs

     total energy              =  -35862.01278475 Ry
     estimated scf accuracy    <       0.00707041 Ry

     iteration #  7     ecut=    70.00 Ry     beta= 0.70
     Davidson diagonalization with overlap

---- Real-time Memory Report at c_bands before calling an iterative solver
           624 MiB given to the printing process from OS
             0 MiB allocation reported by mallinfo(arena+hblkhd)
       2022255 MiB available memory on the node where the printing process lives
------------------
     ethr =  8.36E-07,  avg # of iterations = 17.5


     -----------------------------------------------
     Non-local corr. energy    =      25.33826730 Ry
     -----------------------------------------------


     total cpu time spent up to now is      675.9 secs

     total energy              =  -35862.01454169 Ry
     estimated scf accuracy    <       0.00079617 Ry

     iteration #  8     ecut=    70.00 Ry     beta= 0.70
     Davidson diagonalization with overlap

---- Real-time Memory Report at c_bands before calling an iterative solver
           650 MiB given to the printing process from OS
             0 MiB allocation reported by mallinfo(arena+hblkhd)
       2022100 MiB available memory on the node where the printing process lives
------------------
     ethr =  9.41E-08,  avg # of iterations = 12.3


     -----------------------------------------------
     Non-local corr. energy    =      25.33885193 Ry
     -----------------------------------------------


     total cpu time spent up to now is      794.0 secs

     total energy              =  -35862.01482313 Ry
     estimated scf accuracy    <       0.00035246 Ry

     iteration #  9     ecut=    70.00 Ry     beta= 0.70
     Davidson diagonalization with overlap

---- Real-time Memory Report at c_bands before calling an iterative solver
           708 MiB given to the printing process from OS
             0 MiB allocation reported by mallinfo(arena+hblkhd)
       2021973 MiB available memory on the node where the printing process lives
------------------
     ethr =  4.17E-08,  avg # of iterations = 16.0


     -----------------------------------------------
     Non-local corr. energy    =      25.33910657 Ry
     -----------------------------------------------


     total cpu time spent up to now is      884.4 secs

     total energy              =  -35862.01488801 Ry
     estimated scf accuracy    <       0.00006384 Ry

     iteration # 10     ecut=    70.00 Ry     beta= 0.70
     Davidson diagonalization with overlap

---- Real-time Memory Report at c_bands before calling an iterative solver
           708 MiB given to the printing process from OS
             0 MiB allocation reported by mallinfo(arena+hblkhd)
       2020925 MiB available memory on the node where the printing process lives
------------------
     ethr =  7.55E-09,  avg # of iterations = 15.0


     -----------------------------------------------
     Non-local corr. energy    =      25.33905057 Ry
     -----------------------------------------------


     total cpu time spent up to now is      989.1 secs

     total energy              =  -35862.01489958 Ry
     estimated scf accuracy    <       0.00003100 Ry

     iteration # 11     ecut=    70.00 Ry     beta= 0.70
     Davidson diagonalization with overlap

---- Real-time Memory Report at c_bands before calling an iterative solver
           708 MiB given to the printing process from OS
             0 MiB allocation reported by mallinfo(arena+hblkhd)
       2021855 MiB available memory on the node where the printing process lives
------------------
     ethr =  3.66E-09,  avg # of iterations = 16.3


     -----------------------------------------------
     Non-local corr. energy    =      25.33903831 Ry
     -----------------------------------------------


     total cpu time spent up to now is     1081.4 secs

     total energy              =  -35862.01490464 Ry
     estimated scf accuracy    <       0.00000361 Ry

     iteration # 12     ecut=    70.00 Ry     beta= 0.70
     Davidson diagonalization with overlap

---- Real-time Memory Report at c_bands before calling an iterative solver
           708 MiB given to the printing process from OS
             0 MiB allocation reported by mallinfo(arena+hblkhd)
       2021790 MiB available memory on the node where the printing process lives
------------------
     ethr =  4.26E-10,  avg # of iterations = 14.3


     -----------------------------------------------
     Non-local corr. energy    =      25.33907662 Ry
     -----------------------------------------------


     total cpu time spent up to now is     1183.8 secs

     total energy              =  -35862.01490566 Ry
     estimated scf accuracy    <       0.00000043 Ry

     iteration # 13     ecut=    70.00 Ry     beta= 0.70
     Davidson diagonalization with overlap

---- Real-time Memory Report at c_bands before calling an iterative solver
           708 MiB given to the printing process from OS
             0 MiB allocation reported by mallinfo(arena+hblkhd)
       2021809 MiB available memory on the node where the printing process lives
------------------
     ethr =  5.10E-11,  avg # of iterations = 14.5


     -----------------------------------------------
     Non-local corr. energy    =      25.33914311 Ry
     -----------------------------------------------


     total cpu time spent up to now is     1295.5 secs

     End of self-consistent calculation

          k = 0.0000 0.0000 0.0000 (170421 PWs)   bands (ev):

   -41.3743 -41.3742 -41.3742 -41.3610 -41.3610 -41.3609 -41.3608 -41.3607
   -41.3606 -41.3195 -41.3195 -41.3194 -41.3190 -41.3189 -41.3189 -41.1776
   -41.1775 -41.1773 -41.1769 -41.1769 -41.1767 -41.1639 -41.1638 -41.1637
   -41.1636 -41.1636 -41.1633 -41.1598 -41.1597 -41.1595 -41.0849 -41.0848
   -41.0846 -41.0846 -41.0845 -41.0845 -41.0842 -41.0841 -41.0839 -41.0838
   -41.0838 -41.0837 -41.0773 -41.0772 -41.0770 -41.0770 -41.0769 -41.0769
   -41.0743 -41.0742 -41.0740 -41.0740 -41.0739 -41.0739 -41.0732 -41.0730
   -41.0728 -41.0728 -41.0728 -41.0727 -40.9852 -40.9852 -40.9850 -40.9846
   -40.9846 -40.9632 -40.9630 -40.9630 -40.9629 -40.9627 -40.9626 -40.9612
   -40.9611 -40.9609 -40.9608 -40.9608 -40.9608 -40.9604 -40.9601 -40.9601
   -40.9522 -40.9522 -40.9504 -40.9504 -40.9499 -40.7834 -40.7831 -40.7830
   -40.7813 -40.7811 -40.7742 -40.7741 -40.7740 -40.7732 -40.7731 -40.7729
   -40.7729 -40.7728 -40.7727 -40.7708 -40.7707 -40.7706 -40.7703 -40.7701
   -40.7700 -40.7484 -40.7484 -40.7483 -40.7483 -40.7483 -40.7482 -40.7481
   -40.7481 -40.7481 -40.7481 -40.7481 -40.7480 -40.7479 -40.7479 -40.7478
   -40.7478 -40.7478 -40.7477 -40.7477 -40.7476 -40.7476 -40.7476 -40.7476
   -40.7476 -40.7475 -40.7475 -40.7474 -40.7474 -40.7473 -40.7473 -40.7466
   -40.7465 -40.7461 -40.7459 -40.7459 -40.7429 -40.7428 -40.7423 -40.7423
   -40.7422 -40.7422 -40.7422 -40.7422 -40.7422 -40.7421 -40.7421 -40.7419
   -40.7419 -40.7418 -40.7416 -40.7416 -40.7416 -40.7415 -40.7415 -40.7415
   -40.7391 -40.7391 -40.7390 -40.7390 -40.7389 -40.7389 -40.7386 -40.7385
   -40.7385 -40.7385 -40.7384 -40.7384 -40.7383 -40.7382 -40.7382 -13.6699
   -13.6664 -13.6663 -13.6418 -13.6409 -13.6409 -13.6372 -13.6372 -13.6363
   -13.5966 -13.5965 -13.5894 -13.5826 -13.5814 -13.5813 -13.2437 -13.2437
   -13.2356 -13.2303 -13.2268 -13.2255 -13.2254 -13.2198 -13.2197 -13.2159
   -13.2145 -13.2144 -13.2107 -13.2107 -13.2095 -13.1521 -13.1451 -13.1450
   -13.1405 -13.1405 -13.1373 -13.1327 -13.1313 -13.1312 -13.1286 -13.1278
   -13.1278 -13.1272 -13.1271 -13.1264 -12.9144 -12.9128 -12.9128 -12.9120
   -12.9120 -12.9115 -12.9059 -12.9056 -12.9056 -12.9056 -12.8981 -12.8981
   -12.8945 -12.8941 -12.8941 -12.8939 -12.8936 -12.8936 -12.8927 -12.8925
   -12.8925 -12.8917 -12.8917 -12.8917 -12.8913 -12.8883 -12.8883 -12.8877
   -12.8877 -12.8876 -12.8872 -12.8865 -12.8865 -12.8865 -12.8858 -12.8858
   -12.8847 -12.8847 -12.8844 -12.8843 -12.8840 -12.8840 -12.8830 -12.8827
   -12.8827  -8.3948  -8.1748  -8.1748  -8.1075  -8.0529  -8.0528  -8.0253
    -8.0038  -7.9070  -7.9070  -7.8895  -7.8509  -7.8509  -7.8024  -7.7703
    -7.7330  -7.7285  -7.7284  -7.7248  -7.7248  -7.7159  -7.7106  -7.7106
    -7.7051  -7.6016  -7.5060  -7.5005  -7.5004  -7.4893  -7.4858  -7.4813
    -7.4813  -7.4786  -7.4786  -7.4770  -4.1408  -4.1407  -4.1278  -3.8613
    -3.8612  -3.7584  -3.7364  -3.7364  -3.6548  -3.6548  -3.4790  -3.4627
    -3.4626  -3.4623  -3.4615  -3.4607  -3.4606  -3.1280   0.8980   0.9373
     0.9373   0.9703   1.0110   1.0254   1.0254   1.0568   1.0821   1.0822
     1.2678   1.2678   1.2798   1.2872   1.2873   1.3040   1.3041   1.3069
     1.4260   1.4285   1.4434   1.4434   1.6176   1.6268   1.6268   1.6423
     1.6423   1.6661   1.6661   1.7145   1.7481   1.8341   1.8342   1.8423
     1.9048   1.9049   2.0275   2.1020   2.1020   2.1071   2.1286   2.1287
     2.1390   2.1594   2.1622   2.1623   2.1655   2.1656   2.1701   2.2435
     2.2763   2.2763   2.3107   2.3799   2.3799   2.4077   2.4077   2.4457
     2.4459   2.4479   2.4971   2.5289   2.5788   2.5911   2.5912   2.6110
     2.6312   2.6313   2.6422   2.6423   2.6597   2.6956   2.6956   2.7651
     2.7654   2.8246   2.8262   2.8263   2.8534   2.8534   2.8566   2.8752
     2.9019   2.9206   2.9206   2.9406   2.9407   2.9444   2.9517   2.9565
     2.9565   2.9567   2.9697   2.9697   2.9755   2.9756   3.1529   3.1881
     3.1881   3.1997   3.1998   3.2023   3.3446   3.3560   3.3560   4.7959
     5.7802   5.9910   5.9910   6.1013   6.3114   6.3115   6.3448   6.3448
     6.3584   6.5651   6.5652   6.6343   6.7262   6.7440   6.7441   6.7507
     6.7508   6.7961   6.8115   6.8822   6.8826   6.9212   6.9212   6.9428
     7.0132   7.0132   7.0571   7.1073   7.1073   7.2080   7.2174   7.2848
     7.2848   7.3707   7.3708   7.3710   7.3784   7.3785   7.3810   7.4433
     7.4434   7.4981   7.5308   7.5309   7.5411   7.5727   7.5924   7.5927
     7.5971   7.6022   7.6024   7.8279   7.8280   8.6721   9.3428   9.3466
     9.3466   9.3601   9.3602   9.3998   9.7671   9.7683   9.7684   9.7898
     9.7958   9.7958   9.9880  10.0508  10.0509  10.3453  10.4148  10.4148
    10.6282  10.7295  10.7296  10.8222  10.8699  10.8958  10.8959  10.9501
    10.9502  10.9751  10.9923  10.9924

     occupation numbers 
     1.0000   1.0000   1.0000   1.0000   1.0000   1.0000   1.0000   1.0000
     1.0000   1.0000   1.0000   1.0000   1.0000   1.0000   1.0000   1.0000
     1.0000   1.0000   1.0000   1.0000   1.0000   1.0000   1.0000   1.0000
     1.0000   1.0000   1.0000   1.0000   1.0000   1.0000   1.0000   1.0000
     1.0000   1.0000   1.0000   1.0000   1.0000   1.0000   1.0000   1.0000
     1.0000   1.0000   1.0000   1.0000   1.0000   1.0000   1.0000   1.0000
     1.0000   1.0000   1.0000   1.0000   1.0000   1.0000   1.0000   1.0000
     1.0000   1.0000   1.0000   1.0000   1.0000   1.0000   1.0000   1.0000
     1.0000   1.0000   1.0000   1.0000   1.0000   1.0000   1.0000   1.0000
     1.0000   1.0000   1.0000   1.0000   1.0000   1.0000   1.0000   1.0000
     1.0000   1.0000   1.0000   1.0000   1.0000   1.0000   1.0000   1.0000
     1.0000   1.0000   1.0000   1.0000   1.0000   1.0000   1.0000   1.0000
     1.0000   1.0000   1.0000   1.0000   1.0000   1.0000   1.0000   1.0000
     1.0000   1.0000   1.0000   1.0000   1.0000   1.0000   1.0000   1.0000
     1.0000   1.0000   1.0000   1.0000   1.0000   1.0000   1.0000   1.0000
     1.0000   1.0000   1.0000   1.0000   1.0000   1.0000   1.0000   1.0000
     1.0000   1.0000   1.0000   1.0000   1.0000   1.0000   1.0000   1.0000
     1.0000   1.0000   1.0000   1.0000   1.0000   1.0000   1.0000   1.0000
     1.0000   1.0000   1.0000   1.0000   1.0000   1.0000   1.0000   1.0000
     1.0000   1.0000   1.0000   1.0000   1.0000   1.0000   1.0000   1.0000
     1.0000   1.0000   1.0000   1.0000   1.0000   1.0000   1.0000   1.0000
     1.0000   1.0000   1.0000   1.0000   1.0000   1.0000   1.0000   1.0000
     1.0000   1.0000   1.0000   1.0000   1.0000   1.0000   1.0000   1.0000
     1.0000   1.0000   1.0000   1.0000   1.0000   1.0000   1.0000   1.0000
     1.0000   1.0000   1.0000   1.0000   1.0000   1.0000   1.0000   1.0000
     1.0000   1.0000   1.0000   1.0000   1.0000   1.0000   1.0000   1.0000
     1.0000   1.0000   1.0000   1.0000   1.0000   1.0000   1.0000   1.0000
     1.0000   1.0000   1.0000   1.0000   1.0000   1.0000   1.0000   1.0000
     1.0000   1.0000   1.0000   1.0000   1.0000   1.0000   1.0000   1.0000
     1.0000   1.0000   1.0000   1.0000   1.0000   1.0000   1.0000   1.0000
     1.0000   1.0000   1.0000   1.0000   1.0000   1.0000   1.0000   1.0000
     1.0000   1.0000   1.0000   1.0000   1.0000   1.0000   1.0000   1.0000
     1.0000   1.0000   1.0000   1.0000   1.0000   1.0000   1.0000   1.0000
     1.0000   1.0000   1.0000   1.0000   1.0000   1.0000   1.0000   1.0000
     1.0000   1.0000   1.0000   1.0000   1.0000   1.0000   1.0000   1.0000
     1.0000   1.0000   1.0000   1.0000   1.0000   1.0000   1.0000   1.0000
     1.0000   1.0000   1.0000   1.0000   1.0000   1.0000   1.0000   1.0000
     1.0000   1.0000   1.0000   1.0000   1.0000   1.0000   1.0000   1.0000
     1.0000   1.0000   1.0000   1.0000   1.0000   1.0000   1.0000   1.0000
     1.0000   1.0000   1.0000   1.0000   1.0000   1.0000   1.0000   1.0000
     1.0000   1.0000   1.0000   1.0000   1.0000   1.0000   1.0000   1.0000
     1.0000   1.0000   1.0000   1.0000   1.0000   1.0000   1.0000   1.0000
     1.0000   1.0000   1.0000   1.0000   1.0000   1.0000   1.0000   1.0000
     1.0000   1.0000   1.0000   1.0000   1.0000   1.0000   1.0000   1.0000
     1.0000   1.0000   1.0000   1.0000   1.0000   1.0000   1.0000   1.0000
     1.0000   1.0000   1.0000   1.0000   1.0000   1.0000   1.0000   1.0000
     1.0000   1.0000   1.0000   1.0000   1.0000   1.0000   1.0000   1.0000
     1.0000   1.0000   1.0000   1.0000   1.0000   1.0000   1.0000   1.0000
     1.0000   1.0000   1.0000   1.0000   1.0000   1.0000   1.0000   1.0000
     1.0000   1.0000   1.0000   1.0000   1.0000   1.0000   1.0000   1.0000
     1.0000   1.0000   1.0000   1.0000   1.0000   1.0000   1.0000   1.0000
     1.0000   1.0000   1.0000   1.0000   1.0000   1.0000   1.0000   1.0000
     1.0000   1.0000   1.0000   1.0000   1.0000   1.0000   1.0000   0.0000
     0.0000   0.0000   0.0000   0.0000   0.0000   0.0000   0.0000   0.0000
     0.0000   0.0000   0.0000   0.0000   0.0000   0.0000   0.0000   0.0000
     0.0000   0.0000   0.0000   0.0000   0.0000   0.0000   0.0000   0.0000
     0.0000   0.0000   0.0000   0.0000   0.0000   0.0000   0.0000   0.0000
     0.0000   0.0000   0.0000   0.0000   0.0000   0.0000   0.0000   0.0000
     0.0000   0.0000   0.0000   0.0000   0.0000   0.0000   0.0000   0.0000
     0.0000   0.0000   0.0000   0.0000   0.0000   0.0000   0.0000   0.0000
     0.0000   0.0000   0.0000   0.0000   0.0000   0.0000   0.0000   0.0000
     0.0000   0.0000   0.0000   0.0000   0.0000   0.0000   0.0000   0.0000
     0.0000   0.0000   0.0000   0.0000   0.0000   0.0000   0.0000   0.0000
     0.0000   0.0000   0.0000   0.0000

          k = 0.0000-0.5774 0.0000 (170366 PWs)   bands (ev):

   -41.3743 -41.3742 -41.3742 -41.3610 -41.3610 -41.3609 -41.3608 -41.3607
   -41.3606 -41.3195 -41.3195 -41.3194 -41.3190 -41.3189 -41.3189 -41.1776
   -41.1775 -41.1773 -41.1769 -41.1769 -41.1767 -41.1639 -41.1638 -41.1637
   -41.1636 -41.1636 -41.1633 -41.1598 -41.1597 -41.1595 -41.0849 -41.0848
   -41.0846 -41.0846 -41.0845 -41.0845 -41.0842 -41.0841 -41.0839 -41.0838
   -41.0838 -41.0837 -41.0773 -41.0772 -41.0770 -41.0770 -41.0769 -41.0769
   -41.0743 -41.0742 -41.0740 -41.0740 -41.0739 -41.0739 -41.0732 -41.0730
   -41.0728 -41.0728 -41.0728 -41.0727 -40.9852 -40.9852 -40.9850 -40.9846
   -40.9846 -40.9632 -40.9630 -40.9630 -40.9629 -40.9627 -40.9626 -40.9612
   -40.9611 -40.9609 -40.9608 -40.9608 -40.9608 -40.9604 -40.9601 -40.9601
   -40.9522 -40.9522 -40.9504 -40.9504 -40.9499 -40.7834 -40.7831 -40.7830
   -40.7813 -40.7811 -40.7742 -40.7741 -40.7740 -40.7732 -40.7731 -40.7729
   -40.7729 -40.7728 -40.7727 -40.7708 -40.7707 -40.7706 -40.7703 -40.7701
   -40.7700 -40.7484 -40.7484 -40.7483 -40.7483 -40.7483 -40.7482 -40.7481
   -40.7481 -40.7481 -40.7481 -40.7481 -40.7480 -40.7479 -40.7479 -40.7478
   -40.7478 -40.7478 -40.7477 -40.7477 -40.7476 -40.7476 -40.7476 -40.7476
   -40.7476 -40.7475 -40.7475 -40.7474 -40.7474 -40.7473 -40.7473 -40.7466
   -40.7465 -40.7461 -40.7459 -40.7459 -40.7429 -40.7428 -40.7423 -40.7423
   -40.7422 -40.7422 -40.7422 -40.7422 -40.7422 -40.7421 -40.7421 -40.7419
   -40.7419 -40.7418 -40.7416 -40.7416 -40.7416 -40.7415 -40.7415 -40.7415
   -40.7391 -40.7391 -40.7390 -40.7390 -40.7389 -40.7389 -40.7386 -40.7385
   -40.7385 -40.7385 -40.7384 -40.7384 -40.7383 -40.7382 -40.7382 -13.6700
   -13.6664 -13.6663 -13.6417 -13.6409 -13.6408 -13.6372 -13.6372 -13.6363
   -13.5966 -13.5965 -13.5894 -13.5826 -13.5813 -13.5813 -13.2437 -13.2437
   -13.2356 -13.2306 -13.2268 -13.2255 -13.2254 -13.2197 -13.2193 -13.2158
   -13.2144 -13.2143 -13.2109 -13.2108 -13.2096 -13.1519 -13.1451 -13.1450
   -13.1406 -13.1405 -13.1373 -13.1327 -13.1313 -13.1312 -13.1286 -13.1278
   -13.1278 -13.1272 -13.1271 -13.1263 -12.9182 -12.9143 -12.9137 -12.9123
   -12.9121 -12.9080 -12.9075 -12.9029 -12.9020 -12.8977 -12.8973 -12.8972
   -12.8967 -12.8960 -12.8955 -12.8950 -12.8942 -12.8940 -12.8929 -12.8928
   -12.8923 -12.8919 -12.8915 -12.8912 -12.8906 -12.8902 -12.8902 -12.8892
   -12.8891 -12.8888 -12.8880 -12.8877 -12.8874 -12.8865 -12.8865 -12.8856
   -12.8850 -12.8848 -12.8843 -12.8836 -12.8835 -12.8826 -12.8819 -12.8816
   -12.8805  -8.3425  -8.2770  -8.1921  -8.1137  -8.0306  -8.0164  -7.9619
    -7.9353  -7.9330  -7.9214  -7.9128  -7.8799  -7.8498  -7.8322  -7.8203
    -7.7901  -7.7813  -7.7793  -7.7220  -7.7216  -7.7072  -7.5995  -7.5934
    -7.5862  -7.5824  -7.5784  -7.5620  -7.5555  -7.5048  -7.5021  -7.4792
    -7.4704  -7.4688  -7.4613  -7.4599  -4.1507  -4.1293  -4.1267  -3.9102
    -3.8916  -3.7779  -3.7168  -3.6166  -3.5990  -3.5913  -3.5911  -3.5902
    -3.5901  -3.5220  -3.3962  -3.3959  -3.2283  -3.2266   0.6833   0.8334
     0.8475   0.8792   0.8837   1.0783   1.2232   1.2250   1.2261   1.2286
     1.2472   1.2726   1.3110   1.3209   1.3504   1.3855   1.4078   1.4221
     1.5399   1.5420   1.5556   1.5772   1.5885   1.6329   1.6371   1.6427
     1.6643   1.6724   1.6806   1.6988   1.7225   1.7647   1.8031   1.8214
     1.9024   1.9079   1.9102   1.9239   1.9747   1.9812   2.0135   2.0252
     2.0412   2.0775   2.1074   2.1272   2.1459   2.2061   2.2627   2.2787
     2.2917   2.3201   2.3252   2.3326   2.3793   2.3902   2.3921   2.4033
     2.4477   2.4706   2.4752   2.4939   2.4997   2.5050   2.5152   2.5172
     2.5216   2.5451   2.5988   2.6772   2.6778   2.6883   2.7067   2.7147
     2.7276   2.7420   2.7478   2.7653   2.7857   2.7903   2.8588   2.8709
     2.8772   2.9151   2.9152   2.9273   2.9384   2.9525   2.9589   2.9889
     2.9969   3.0040   3.0490   3.0651   3.0990   3.1212   3.1333   3.2419
     3.2422   3.2477   3.2487   3.3711   3.3746   3.3806   3.3815   4.9252
     5.7886   5.9820   6.1598   6.2852   6.4006   6.4504   6.4820   6.5171
     6.5703   6.6209   6.6673   6.7081   6.7170   6.7488   6.7717   6.7954
     6.8027   6.8249   6.8450   6.9301   6.9530   6.9691   6.9910   7.0174
     7.0348   7.0457   7.0597   7.0671   7.0748   7.0772   7.0861   7.1125
     7.1243   7.1533   7.1769   7.2101   7.2243   7.2816   7.3094   7.3431
     7.3527   7.3596   7.3620   7.3848   7.3961   7.4552   7.4568   7.4839
     7.7237   7.7347   7.7633   7.7752   7.8765   8.7882   9.1071   9.4302
     9.4795   9.5534   9.5761   9.6615   9.8543   9.8776  10.0308  10.0683
    10.1053  10.1113  10.1216  10.1315  10.1378  10.1471  10.1714  10.1952
    10.3009  10.3464  10.4053  10.4897  10.6336  10.6669  10.7347  10.7471
    10.7875  10.7914  10.8261  10.8307

     occupation numbers 
     1.0000   1.0000   1.0000   1.0000   1.0000   1.0000   1.0000   1.0000
     1.0000   1.0000   1.0000   1.0000   1.0000   1.0000   1.0000   1.0000
     1.0000   1.0000   1.0000   1.0000   1.0000   1.0000   1.0000   1.0000
     1.0000   1.0000   1.0000   1.0000   1.0000   1.0000   1.0000   1.0000
     1.0000   1.0000   1.0000   1.0000   1.0000   1.0000   1.0000   1.0000
     1.0000   1.0000   1.0000   1.0000   1.0000   1.0000   1.0000   1.0000
     1.0000   1.0000   1.0000   1.0000   1.0000   1.0000   1.0000   1.0000
     1.0000   1.0000   1.0000   1.0000   1.0000   1.0000   1.0000   1.0000
     1.0000   1.0000   1.0000   1.0000   1.0000   1.0000   1.0000   1.0000
     1.0000   1.0000   1.0000   1.0000   1.0000   1.0000   1.0000   1.0000
     1.0000   1.0000   1.0000   1.0000   1.0000   1.0000   1.0000   1.0000
     1.0000   1.0000   1.0000   1.0000   1.0000   1.0000   1.0000   1.0000
     1.0000   1.0000   1.0000   1.0000   1.0000   1.0000   1.0000   1.0000
     1.0000   1.0000   1.0000   1.0000   1.0000   1.0000   1.0000   1.0000
     1.0000   1.0000   1.0000   1.0000   1.0000   1.0000   1.0000   1.0000
     1.0000   1.0000   1.0000   1.0000   1.0000   1.0000   1.0000   1.0000
     1.0000   1.0000   1.0000   1.0000   1.0000   1.0000   1.0000   1.0000
     1.0000   1.0000   1.0000   1.0000   1.0000   1.0000   1.0000   1.0000
     1.0000   1.0000   1.0000   1.0000   1.0000   1.0000   1.0000   1.0000
     1.0000   1.0000   1.0000   1.0000   1.0000   1.0000   1.0000   1.0000
     1.0000   1.0000   1.0000   1.0000   1.0000   1.0000   1.0000   1.0000
     1.0000   1.0000   1.0000   1.0000   1.0000   1.0000   1.0000   1.0000
     1.0000   1.0000   1.0000   1.0000   1.0000   1.0000   1.0000   1.0000
     1.0000   1.0000   1.0000   1.0000   1.0000   1.0000   1.0000   1.0000
     1.0000   1.0000   1.0000   1.0000   1.0000   1.0000   1.0000   1.0000
     1.0000   1.0000   1.0000   1.0000   1.0000   1.0000   1.0000   1.0000
     1.0000   1.0000   1.0000   1.0000   1.0000   1.0000   1.0000   1.0000
     1.0000   1.0000   1.0000   1.0000   1.0000   1.0000   1.0000   1.0000
     1.0000   1.0000   1.0000   1.0000   1.0000   1.0000   1.0000   1.0000
     1.0000   1.0000   1.0000   1.0000   1.0000   1.0000   1.0000   1.0000
     1.0000   1.0000   1.0000   1.0000   1.0000   1.0000   1.0000   1.0000
     1.0000   1.0000   1.0000   1.0000   1.0000   1.0000   1.0000   1.0000
     1.0000   1.0000   1.0000   1.0000   1.0000   1.0000   1.0000   1.0000
     1.0000   1.0000   1.0000   1.0000   1.0000   1.0000   1.0000   1.0000
     1.0000   1.0000   1.0000   1.0000   1.0000   1.0000   1.0000   1.0000
     1.0000   1.0000   1.0000   1.0000   1.0000   1.0000   1.0000   1.0000
     1.0000   1.0000   1.0000   1.0000   1.0000   1.0000   1.0000   1.0000
     1.0000   1.0000   1.0000   1.0000   1.0000   1.0000   1.0000   1.0000
     1.0000   1.0000   1.0000   1.0000   1.0000   1.0000   1.0000   1.0000
     1.0000   1.0000   1.0000   1.0000   1.0000   1.0000   1.0000   1.0000
     1.0000   1.0000   1.0000   1.0000   1.0000   1.0000   1.0000   1.0000
     1.0000   1.0000   1.0000   1.0000   1.0000   1.0000   1.0000   1.0000
     1.0000   1.0000   1.0000   1.0000   1.0000   1.0000   1.0000   1.0000
     1.0000   1.0000   1.0000   1.0000   1.0000   1.0000   1.0000   1.0000
     1.0000   1.0000   1.0000   1.0000   1.0000   1.0000   1.0000   1.0000
     1.0000   1.0000   1.0000   1.0000   1.0000   1.0000   1.0000   1.0000
     1.0000   1.0000   1.0000   1.0000   1.0000   1.0000   1.0000   1.0000
     1.0000   1.0000   1.0000   1.0000   1.0000   1.0000   1.0000   1.0000
     1.0000   1.0000   1.0000   1.0000   1.0000   1.0000   1.0000   1.0000
     1.0000   1.0000   1.0000   1.0000   1.0000   1.0000   1.0000   1.0000
     1.0000   1.0000   1.0000   1.0000   1.0000   1.0000   1.0000   1.0000
     1.0000   1.0000   1.0000   1.0000   1.0000   1.0000   1.0000   1.0000
     1.0000   1.0000   1.0000   1.0000   1.0000   1.0000   1.0000   0.0000
     0.0000   0.0000   0.0000   0.0000   0.0000   0.0000   0.0000   0.0000
     0.0000   0.0000   0.0000   0.0000   0.0000   0.0000   0.0000   0.0000
     0.0000   0.0000   0.0000   0.0000   0.0000   0.0000   0.0000   0.0000
     0.0000   0.0000   0.0000   0.0000   0.0000   0.0000   0.0000   0.0000
     0.0000   0.0000   0.0000   0.0000   0.0000   0.0000   0.0000   0.0000
     0.0000   0.0000   0.0000   0.0000   0.0000   0.0000   0.0000   0.0000
     0.0000   0.0000   0.0000   0.0000   0.0000   0.0000   0.0000   0.0000
     0.0000   0.0000   0.0000   0.0000   0.0000   0.0000   0.0000   0.0000
     0.0000   0.0000   0.0000   0.0000   0.0000   0.0000   0.0000   0.0000
     0.0000   0.0000   0.0000   0.0000   0.0000   0.0000   0.0000   0.0000
     0.0000   0.0000   0.0000   0.0000

          k = 0.5000-0.2887 0.0000 (170366 PWs)   bands (ev):

   -41.3743 -41.3742 -41.3742 -41.3610 -41.3610 -41.3609 -41.3608 -41.3607
   -41.3606 -41.3195 -41.3195 -41.3194 -41.3190 -41.3189 -41.3189 -41.1776
   -41.1775 -41.1773 -41.1769 -41.1769 -41.1767 -41.1639 -41.1638 -41.1637
   -41.1636 -41.1636 -41.1633 -41.1598 -41.1597 -41.1595 -41.0849 -41.0848
   -41.0846 -41.0846 -41.0845 -41.0845 -41.0842 -41.0841 -41.0839 -41.0838
   -41.0838 -41.0837 -41.0773 -41.0772 -41.0770 -41.0770 -41.0769 -41.0769
   -41.0743 -41.0742 -41.0740 -41.0740 -41.0739 -41.0739 -41.0732 -41.0730
   -41.0728 -41.0728 -41.0728 -41.0727 -40.9852 -40.9852 -40.9850 -40.9846
   -40.9846 -40.9632 -40.9630 -40.9630 -40.9629 -40.9627 -40.9626 -40.9612
   -40.9611 -40.9609 -40.9608 -40.9608 -40.9608 -40.9604 -40.9601 -40.9601
   -40.9522 -40.9522 -40.9504 -40.9504 -40.9499 -40.7834 -40.7831 -40.7830
   -40.7813 -40.7811 -40.7742 -40.7741 -40.7740 -40.7732 -40.7731 -40.7729
   -40.7729 -40.7728 -40.7727 -40.7708 -40.7707 -40.7706 -40.7703 -40.7701
   -40.7700 -40.7484 -40.7484 -40.7483 -40.7483 -40.7483 -40.7482 -40.7481
   -40.7481 -40.7481 -40.7481 -40.7481 -40.7480 -40.7479 -40.7479 -40.7478
   -40.7478 -40.7478 -40.7477 -40.7477 -40.7476 -40.7476 -40.7476 -40.7476
   -40.7476 -40.7475 -40.7475 -40.7474 -40.7474 -40.7473 -40.7473 -40.7466
   -40.7465 -40.7461 -40.7459 -40.7459 -40.7429 -40.7428 -40.7423 -40.7423
   -40.7422 -40.7422 -40.7422 -40.7422 -40.7422 -40.7421 -40.7421 -40.7419
   -40.7419 -40.7418 -40.7416 -40.7416 -40.7416 -40.7415 -40.7415 -40.7415
   -40.7391 -40.7391 -40.7390 -40.7390 -40.7389 -40.7389 -40.7386 -40.7385
   -40.7385 -40.7385 -40.7384 -40.7384 -40.7383 -40.7382 -40.7382 -13.6700
   -13.6663 -13.6663 -13.6417 -13.6409 -13.6409 -13.6373 -13.6372 -13.6363
   -13.5966 -13.5965 -13.5894 -13.5826 -13.5813 -13.5813 -13.2437 -13.2437
   -13.2356 -13.2306 -13.2268 -13.2254 -13.2254 -13.2197 -13.2193 -13.2158
   -13.2144 -13.2143 -13.2109 -13.2108 -13.2096 -13.1519 -13.1451 -13.1450
   -13.1406 -13.1405 -13.1373 -13.1327 -13.1313 -13.1313 -13.1286 -13.1278
   -13.1278 -13.1272 -13.1271 -13.1263 -12.9181 -12.9143 -12.9137 -12.9123
   -12.9121 -12.9080 -12.9075 -12.9029 -12.9020 -12.8977 -12.8973 -12.8972
   -12.8967 -12.8960 -12.8955 -12.8950 -12.8942 -12.8940 -12.8929 -12.8928
   -12.8923 -12.8919 -12.8915 -12.8912 -12.8906 -12.8902 -12.8902 -12.8892
   -12.8891 -12.8888 -12.8880 -12.8878 -12.8874 -12.8866 -12.8865 -12.8856
   -12.8850 -12.8847 -12.8843 -12.8836 -12.8835 -12.8826 -12.8818 -12.8816
   -12.8805  -8.3425  -8.2770  -8.1921  -8.1136  -8.0306  -8.0164  -7.9618
    -7.9353  -7.9330  -7.9214  -7.9128  -7.8799  -7.8497  -7.8321  -7.8203
    -7.7901  -7.7813  -7.7793  -7.7221  -7.7215  -7.7072  -7.5996  -7.5934
    -7.5861  -7.5824  -7.5785  -7.5620  -7.5555  -7.5048  -7.5021  -7.4791
    -7.4705  -7.4688  -7.4613  -7.4599  -4.1508  -4.1293  -4.1268  -3.9102
    -3.8916  -3.7778  -3.7168  -3.6166  -3.5992  -3.5913  -3.5911  -3.5902
    -3.5900  -3.5220  -3.3961  -3.3958  -3.2284  -3.2267   0.6833   0.8334
     0.8475   0.8792   0.8838   1.0782   1.2233   1.2250   1.2261   1.2286
     1.2471   1.2725   1.3110   1.3208   1.3504   1.3855   1.4078   1.4221
     1.5398   1.5420   1.5556   1.5772   1.5885   1.6329   1.6370   1.6427
     1.6643   1.6724   1.6805   1.6988   1.7225   1.7648   1.8032   1.8215
     1.9026   1.9080   1.9104   1.9240   1.9747   1.9812   2.0135   2.0254
     2.0412   2.0774   2.1073   2.1272   2.1458   2.2061   2.2626   2.2786
     2.2917   2.3201   2.3252   2.3326   2.3792   2.3901   2.3921   2.4032
     2.4476   2.4707   2.4751   2.4941   2.4997   2.5051   2.5151   2.5171
     2.5215   2.5451   2.5988   2.6771   2.6778   2.6883   2.7067   2.7147
     2.7276   2.7420   2.7478   2.7653   2.7857   2.7903   2.8588   2.8709
     2.8773   2.9152   2.9153   2.9273   2.9383   2.9525   2.9589   2.9889
     2.9969   3.0041   3.0491   3.0651   3.0989   3.1213   3.1333   3.2419
     3.2421   3.2477   3.2487   3.3711   3.3745   3.3806   3.3816   4.9252
     5.7885   5.9821   6.1597   6.2852   6.4005   6.4504   6.4819   6.5172
     6.5705   6.6208   6.6674   6.7079   6.7171   6.7487   6.7718   6.7953
     6.8027   6.8249   6.8451   6.9303   6.9535   6.9694   6.9910   7.0172
     7.0347   7.0456   7.0596   7.0675   7.0745   7.0769   7.0862   7.1124
     7.1242   7.1533   7.1769   7.2099   7.2239   7.2815   7.3093   7.3431
     7.3527   7.3599   7.3624   7.3850   7.3963   7.4548   7.4565   7.4838
     7.7235   7.7345   7.7631   7.7750   7.8770   8.7882   9.1070   9.4302
     9.4794   9.5534   9.5761   9.6614   9.8543   9.8776  10.0309  10.0683
    10.1054  10.1113  10.1217  10.1316  10.1378  10.1472  10.1714  10.1953
    10.3008  10.3463  10.4053  10.4897  10.6337  10.6669  10.7347  10.7472
    10.7875  10.7915  10.8261  10.8306

     occupation numbers 
     1.0000   1.0000   1.0000   1.0000   1.0000   1.0000   1.0000   1.0000
     1.0000   1.0000   1.0000   1.0000   1.0000   1.0000   1.0000   1.0000
     1.0000   1.0000   1.0000   1.0000   1.0000   1.0000   1.0000   1.0000
     1.0000   1.0000   1.0000   1.0000   1.0000   1.0000   1.0000   1.0000
     1.0000   1.0000   1.0000   1.0000   1.0000   1.0000   1.0000   1.0000
     1.0000   1.0000   1.0000   1.0000   1.0000   1.0000   1.0000   1.0000
     1.0000   1.0000   1.0000   1.0000   1.0000   1.0000   1.0000   1.0000
     1.0000   1.0000   1.0000   1.0000   1.0000   1.0000   1.0000   1.0000
     1.0000   1.0000   1.0000   1.0000   1.0000   1.0000   1.0000   1.0000
     1.0000   1.0000   1.0000   1.0000   1.0000   1.0000   1.0000   1.0000
     1.0000   1.0000   1.0000   1.0000   1.0000   1.0000   1.0000   1.0000
     1.0000   1.0000   1.0000   1.0000   1.0000   1.0000   1.0000   1.0000
     1.0000   1.0000   1.0000   1.0000   1.0000   1.0000   1.0000   1.0000
     1.0000   1.0000   1.0000   1.0000   1.0000   1.0000   1.0000   1.0000
     1.0000   1.0000   1.0000   1.0000   1.0000   1.0000   1.0000   1.0000
     1.0000   1.0000   1.0000   1.0000   1.0000   1.0000   1.0000   1.0000
     1.0000   1.0000   1.0000   1.0000   1.0000   1.0000   1.0000   1.0000
     1.0000   1.0000   1.0000   1.0000   1.0000   1.0000   1.0000   1.0000
     1.0000   1.0000   1.0000   1.0000   1.0000   1.0000   1.0000   1.0000
     1.0000   1.0000   1.0000   1.0000   1.0000   1.0000   1.0000   1.0000
     1.0000   1.0000   1.0000   1.0000   1.0000   1.0000   1.0000   1.0000
     1.0000   1.0000   1.0000   1.0000   1.0000   1.0000   1.0000   1.0000
     1.0000   1.0000   1.0000   1.0000   1.0000   1.0000   1.0000   1.0000
     1.0000   1.0000   1.0000   1.0000   1.0000   1.0000   1.0000   1.0000
     1.0000   1.0000   1.0000   1.0000   1.0000   1.0000   1.0000   1.0000
     1.0000   1.0000   1.0000   1.0000   1.0000   1.0000   1.0000   1.0000
     1.0000   1.0000   1.0000   1.0000   1.0000   1.0000   1.0000   1.0000
     1.0000   1.0000   1.0000   1.0000   1.0000   1.0000   1.0000   1.0000
     1.0000   1.0000   1.0000   1.0000   1.0000   1.0000   1.0000   1.0000
     1.0000   1.0000   1.0000   1.0000   1.0000   1.0000   1.0000   1.0000
     1.0000   1.0000   1.0000   1.0000   1.0000   1.0000   1.0000   1.0000
     1.0000   1.0000   1.0000   1.0000   1.0000   1.0000   1.0000   1.0000
     1.0000   1.0000   1.0000   1.0000   1.0000   1.0000   1.0000   1.0000
     1.0000   1.0000   1.0000   1.0000   1.0000   1.0000   1.0000   1.0000
     1.0000   1.0000   1.0000   1.0000   1.0000   1.0000   1.0000   1.0000
     1.0000   1.0000   1.0000   1.0000   1.0000   1.0000   1.0000   1.0000
     1.0000   1.0000   1.0000   1.0000   1.0000   1.0000   1.0000   1.0000
     1.0000   1.0000   1.0000   1.0000   1.0000   1.0000   1.0000   1.0000
     1.0000   1.0000   1.0000   1.0000   1.0000   1.0000   1.0000   1.0000
     1.0000   1.0000   1.0000   1.0000   1.0000   1.0000   1.0000   1.0000
     1.0000   1.0000   1.0000   1.0000   1.0000   1.0000   1.0000   1.0000
     1.0000   1.0000   1.0000   1.0000   1.0000   1.0000   1.0000   1.0000
     1.0000   1.0000   1.0000   1.0000   1.0000   1.0000   1.0000   1.0000
     1.0000   1.0000   1.0000   1.0000   1.0000   1.0000   1.0000   1.0000
     1.0000   1.0000   1.0000   1.0000   1.0000   1.0000   1.0000   1.0000
     1.0000   1.0000   1.0000   1.0000   1.0000   1.0000   1.0000   1.0000
     1.0000   1.0000   1.0000   1.0000   1.0000   1.0000   1.0000   1.0000
     1.0000   1.0000   1.0000   1.0000   1.0000   1.0000   1.0000   1.0000
     1.0000   1.0000   1.0000   1.0000   1.0000   1.0000   1.0000   1.0000
     1.0000   1.0000   1.0000   1.0000   1.0000   1.0000   1.0000   1.0000
     1.0000   1.0000   1.0000   1.0000   1.0000   1.0000   1.0000   1.0000
     1.0000   1.0000   1.0000   1.0000   1.0000   1.0000   1.0000   1.0000
     1.0000   1.0000   1.0000   1.0000   1.0000   1.0000   1.0000   0.0000
     0.0000   0.0000   0.0000   0.0000   0.0000   0.0000   0.0000   0.0000
     0.0000   0.0000   0.0000   0.0000   0.0000   0.0000   0.0000   0.0000
     0.0000   0.0000   0.0000   0.0000   0.0000   0.0000   0.0000   0.0000
     0.0000   0.0000   0.0000   0.0000   0.0000   0.0000   0.0000   0.0000
     0.0000   0.0000   0.0000   0.0000   0.0000   0.0000   0.0000   0.0000
     0.0000   0.0000   0.0000   0.0000   0.0000   0.0000   0.0000   0.0000
     0.0000   0.0000   0.0000   0.0000   0.0000   0.0000   0.0000   0.0000
     0.0000   0.0000   0.0000   0.0000   0.0000   0.0000   0.0000   0.0000
     0.0000   0.0000   0.0000   0.0000   0.0000   0.0000   0.0000   0.0000
     0.0000   0.0000   0.0000   0.0000   0.0000   0.0000   0.0000   0.0000
     0.0000   0.0000   0.0000   0.0000

          k =-0.5000-0.2887 0.0000 (170366 PWs)   bands (ev):

   -41.3743 -41.3742 -41.3742 -41.3610 -41.3610 -41.3609 -41.3608 -41.3607
   -41.3606 -41.3195 -41.3195 -41.3194 -41.3190 -41.3189 -41.3189 -41.1776
   -41.1775 -41.1773 -41.1769 -41.1769 -41.1767 -41.1639 -41.1638 -41.1637
   -41.1636 -41.1636 -41.1633 -41.1598 -41.1597 -41.1595 -41.0849 -41.0848
   -41.0846 -41.0846 -41.0845 -41.0845 -41.0842 -41.0841 -41.0839 -41.0838
   -41.0838 -41.0837 -41.0773 -41.0772 -41.0770 -41.0770 -41.0769 -41.0769
   -41.0743 -41.0742 -41.0740 -41.0740 -41.0739 -41.0739 -41.0732 -41.0730
   -41.0728 -41.0728 -41.0728 -41.0727 -40.9852 -40.9852 -40.9850 -40.9846
   -40.9846 -40.9632 -40.9630 -40.9630 -40.9629 -40.9627 -40.9626 -40.9612
   -40.9611 -40.9609 -40.9608 -40.9608 -40.9608 -40.9604 -40.9601 -40.9601
   -40.9522 -40.9522 -40.9504 -40.9504 -40.9499 -40.7834 -40.7831 -40.7830
   -40.7813 -40.7811 -40.7742 -40.7741 -40.7740 -40.7732 -40.7731 -40.7729
   -40.7729 -40.7728 -40.7727 -40.7708 -40.7707 -40.7706 -40.7703 -40.7701
   -40.7700 -40.7484 -40.7484 -40.7483 -40.7483 -40.7483 -40.7482 -40.7481
   -40.7481 -40.7481 -40.7481 -40.7481 -40.7480 -40.7479 -40.7479 -40.7478
   -40.7478 -40.7478 -40.7477 -40.7477 -40.7476 -40.7476 -40.7476 -40.7476
   -40.7476 -40.7475 -40.7475 -40.7474 -40.7474 -40.7473 -40.7473 -40.7466
   -40.7465 -40.7461 -40.7459 -40.7459 -40.7429 -40.7428 -40.7423 -40.7423
   -40.7422 -40.7422 -40.7422 -40.7422 -40.7422 -40.7421 -40.7421 -40.7419
   -40.7419 -40.7418 -40.7416 -40.7416 -40.7416 -40.7415 -40.7415 -40.7415
   -40.7391 -40.7391 -40.7390 -40.7390 -40.7389 -40.7389 -40.7386 -40.7385
   -40.7385 -40.7385 -40.7384 -40.7384 -40.7383 -40.7382 -40.7382 -13.6700
   -13.6664 -13.6663 -13.6417 -13.6409 -13.6408 -13.6372 -13.6372 -13.6363
   -13.5966 -13.5965 -13.5894 -13.5826 -13.5813 -13.5813 -13.2437 -13.2437
   -13.2356 -13.2306 -13.2268 -13.2255 -13.2254 -13.2197 -13.2193 -13.2158
   -13.2144 -13.2143 -13.2109 -13.2108 -13.2096 -13.1519 -13.1451 -13.1450
   -13.1406 -13.1405 -13.1373 -13.1327 -13.1313 -13.1312 -13.1286 -13.1278
   -13.1278 -13.1272 -13.1271 -13.1263 -12.9181 -12.9143 -12.9137 -12.9124
   -12.9121 -12.9080 -12.9075 -12.9029 -12.9020 -12.8977 -12.8973 -12.8972
   -12.8967 -12.8960 -12.8955 -12.8950 -12.8942 -12.8940 -12.8929 -12.8928
   -12.8923 -12.8919 -12.8915 -12.8912 -12.8906 -12.8902 -12.8902 -12.8892
   -12.8891 -12.8888 -12.8880 -12.8878 -12.8874 -12.8866 -12.8865 -12.8856
   -12.8849 -12.8847 -12.8843 -12.8836 -12.8835 -12.8826 -12.8819 -12.8816
   -12.8805  -8.3425  -8.2771  -8.1921  -8.1136  -8.0306  -8.0165  -7.9618
    -7.9353  -7.9330  -7.9214  -7.9129  -7.8799  -7.8497  -7.8321  -7.8204
    -7.7901  -7.7813  -7.7793  -7.7221  -7.7215  -7.7072  -7.5996  -7.5934
    -7.5861  -7.5824  -7.5785  -7.5620  -7.5555  -7.5047  -7.5021  -7.4792
    -7.4705  -7.4688  -7.4613  -7.4599  -4.1508  -4.1293  -4.1267  -3.9102
    -3.8916  -3.7778  -3.7168  -3.6166  -3.5990  -3.5913  -3.5911  -3.5902
    -3.5900  -3.5220  -3.3962  -3.3959  -3.2283  -3.2266   0.6833   0.8334
     0.8475   0.8792   0.8838   1.0782   1.2233   1.2250   1.2261   1.2286
     1.2471   1.2725   1.3110   1.3208   1.3504   1.3855   1.4078   1.4221
     1.5399   1.5420   1.5556   1.5773   1.5885   1.6329   1.6370   1.6427
     1.6644   1.6724   1.6806   1.6988   1.7225   1.7647   1.8031   1.8214
     1.9024   1.9079   1.9103   1.9239   1.9747   1.9812   2.0135   2.0253
     2.0412   2.0775   2.1073   2.1272   2.1459   2.2061   2.2626   2.2787
     2.2917   2.3201   2.3252   2.3326   2.3792   2.3902   2.3921   2.4033
     2.4477   2.4706   2.4752   2.4940   2.4997   2.5050   2.5152   2.5172
     2.5216   2.5451   2.5988   2.6771   2.6778   2.6884   2.7067   2.7147
     2.7276   2.7420   2.7478   2.7653   2.7856   2.7903   2.8588   2.8709
     2.8773   2.9151   2.9152   2.9273   2.9384   2.9524   2.9589   2.9889
     2.9969   3.0041   3.0491   3.0651   3.0990   3.1213   3.1333   3.2419
     3.2422   3.2477   3.2487   3.3711   3.3746   3.3806   3.3815   4.9252
     5.7886   5.9820   6.1597   6.2852   6.4005   6.4504   6.4820   6.5172
     6.5704   6.6209   6.6673   6.7079   6.7170   6.7487   6.7716   6.7955
     6.8027   6.8249   6.8450   6.9302   6.9531   6.9692   6.9910   7.0172
     7.0348   7.0456   7.0597   7.0672   7.0748   7.0771   7.0860   7.1125
     7.1242   7.1533   7.1769   7.2101   7.2242   7.2816   7.3094   7.3432
     7.3527   7.3597   7.3621   7.3848   7.3961   7.4551   7.4568   7.4839
     7.7237   7.7347   7.7632   7.7751   7.8766   8.7882   9.1071   9.4302
     9.4795   9.5534   9.5761   9.6615   9.8543   9.8776  10.0309  10.0683
    10.1053  10.1113  10.1216  10.1316  10.1378  10.1471  10.1714  10.1953
    10.3009  10.3463  10.4053  10.4897  10.6337  10.6669  10.7346  10.7472
    10.7874  10.7914  10.8261  10.8307

     occupation numbers 
     1.0000   1.0000   1.0000   1.0000   1.0000   1.0000   1.0000   1.0000
     1.0000   1.0000   1.0000   1.0000   1.0000   1.0000   1.0000   1.0000
     1.0000   1.0000   1.0000   1.0000   1.0000   1.0000   1.0000   1.0000
     1.0000   1.0000   1.0000   1.0000   1.0000   1.0000   1.0000   1.0000
     1.0000   1.0000   1.0000   1.0000   1.0000   1.0000   1.0000   1.0000
     1.0000   1.0000   1.0000   1.0000   1.0000   1.0000   1.0000   1.0000
     1.0000   1.0000   1.0000   1.0000   1.0000   1.0000   1.0000   1.0000
     1.0000   1.0000   1.0000   1.0000   1.0000   1.0000   1.0000   1.0000
     1.0000   1.0000   1.0000   1.0000   1.0000   1.0000   1.0000   1.0000
     1.0000   1.0000   1.0000   1.0000   1.0000   1.0000   1.0000   1.0000
     1.0000   1.0000   1.0000   1.0000   1.0000   1.0000   1.0000   1.0000
     1.0000   1.0000   1.0000   1.0000   1.0000   1.0000   1.0000   1.0000
     1.0000   1.0000   1.0000   1.0000   1.0000   1.0000   1.0000   1.0000
     1.0000   1.0000   1.0000   1.0000   1.0000   1.0000   1.0000   1.0000
     1.0000   1.0000   1.0000   1.0000   1.0000   1.0000   1.0000   1.0000
     1.0000   1.0000   1.0000   1.0000   1.0000   1.0000   1.0000   1.0000
     1.0000   1.0000   1.0000   1.0000   1.0000   1.0000   1.0000   1.0000
     1.0000   1.0000   1.0000   1.0000   1.0000   1.0000   1.0000   1.0000
     1.0000   1.0000   1.0000   1.0000   1.0000   1.0000   1.0000   1.0000
     1.0000   1.0000   1.0000   1.0000   1.0000   1.0000   1.0000   1.0000
     1.0000   1.0000   1.0000   1.0000   1.0000   1.0000   1.0000   1.0000
     1.0000   1.0000   1.0000   1.0000   1.0000   1.0000   1.0000   1.0000
     1.0000   1.0000   1.0000   1.0000   1.0000   1.0000   1.0000   1.0000
     1.0000   1.0000   1.0000   1.0000   1.0000   1.0000   1.0000   1.0000
     1.0000   1.0000   1.0000   1.0000   1.0000   1.0000   1.0000   1.0000
     1.0000   1.0000   1.0000   1.0000   1.0000   1.0000   1.0000   1.0000
     1.0000   1.0000   1.0000   1.0000   1.0000   1.0000   1.0000   1.0000
     1.0000   1.0000   1.0000   1.0000   1.0000   1.0000   1.0000   1.0000
     1.0000   1.0000   1.0000   1.0000   1.0000   1.0000   1.0000   1.0000
     1.0000   1.0000   1.0000   1.0000   1.0000   1.0000   1.0000   1.0000
     1.0000   1.0000   1.0000   1.0000   1.0000   1.0000   1.0000   1.0000
     1.0000   1.0000   1.0000   1.0000   1.0000   1.0000   1.0000   1.0000
     1.0000   1.0000   1.0000   1.0000   1.0000   1.0000   1.0000   1.0000
     1.0000   1.0000   1.0000   1.0000   1.0000   1.0000   1.0000   1.0000
     1.0000   1.0000   1.0000   1.0000   1.0000   1.0000   1.0000   1.0000
     1.0000   1.0000   1.0000   1.0000   1.0000   1.0000   1.0000   1.0000
     1.0000   1.0000   1.0000   1.0000   1.0000   1.0000   1.0000   1.0000
     1.0000   1.0000   1.0000   1.0000   1.0000   1.0000   1.0000   1.0000
     1.0000   1.0000   1.0000   1.0000   1.0000   1.0000   1.0000   1.0000
     1.0000   1.0000   1.0000   1.0000   1.0000   1.0000   1.0000   1.0000
     1.0000   1.0000   1.0000   1.0000   1.0000   1.0000   1.0000   1.0000
     1.0000   1.0000   1.0000   1.0000   1.0000   1.0000   1.0000   1.0000
     1.0000   1.0000   1.0000   1.0000   1.0000   1.0000   1.0000   1.0000
     1.0000   1.0000   1.0000   1.0000   1.0000   1.0000   1.0000   1.0000
     1.0000   1.0000   1.0000   1.0000   1.0000   1.0000   1.0000   1.0000
     1.0000   1.0000   1.0000   1.0000   1.0000   1.0000   1.0000   1.0000
     1.0000   1.0000   1.0000   1.0000   1.0000   1.0000   1.0000   1.0000
     1.0000   1.0000   1.0000   1.0000   1.0000   1.0000   1.0000   1.0000
     1.0000   1.0000   1.0000   1.0000   1.0000   1.0000   1.0000   1.0000
     1.0000   1.0000   1.0000   1.0000   1.0000   1.0000   1.0000   1.0000
     1.0000   1.0000   1.0000   1.0000   1.0000   1.0000   1.0000   1.0000
     1.0000   1.0000   1.0000   1.0000   1.0000   1.0000   1.0000   1.0000
     1.0000   1.0000   1.0000   1.0000   1.0000   1.0000   1.0000   0.0000
     0.0000   0.0000   0.0000   0.0000   0.0000   0.0000   0.0000   0.0000
     0.0000   0.0000   0.0000   0.0000   0.0000   0.0000   0.0000   0.0000
     0.0000   0.0000   0.0000   0.0000   0.0000   0.0000   0.0000   0.0000
     0.0000   0.0000   0.0000   0.0000   0.0000   0.0000   0.0000   0.0000
     0.0000   0.0000   0.0000   0.0000   0.0000   0.0000   0.0000   0.0000
     0.0000   0.0000   0.0000   0.0000   0.0000   0.0000   0.0000   0.0000
     0.0000   0.0000   0.0000   0.0000   0.0000   0.0000   0.0000   0.0000
     0.0000   0.0000   0.0000   0.0000   0.0000   0.0000   0.0000   0.0000
     0.0000   0.0000   0.0000   0.0000   0.0000   0.0000   0.0000   0.0000
     0.0000   0.0000   0.0000   0.0000   0.0000   0.0000   0.0000   0.0000
     0.0000   0.0000   0.0000   0.0000

     the Fermi energy is     4.1759 ev

!    total energy              =  -35862.01490583 Ry
     total all-electron energy =  -1250800.861884 Ry
     estimated scf accuracy    <       0.00000009 Ry
     smearing contrib. (-TS)   =      -0.00000000 Ry
     internal energy E=F+TS    =  -35862.01490583 Ry

     The total energy is F=E-TS. E is the sum of the following terms:
     one-electron contribution =   -6706.11892527 Ry
     hartree contribution      =    3735.46649537 Ry
     xc contribution           =   -2496.98561261 Ry
     ewald contribution        =   -5363.78606132 Ry
     one-center paw contrib.   =  -25030.59080200 Ry
      -> PAW hartree energy AE =      95.82856401 Ry
      -> PAW hartree energy PS =     -96.06455129 Ry
      -> PAW xc energy AE      =    -798.42334232 Ry
      -> PAW xc energy PS      =      33.30385111 Ry
      -> total E_H with PAW    =    3735.23050809 Ry
      -> total E_XC with PAW   =   -3262.10510382 Ry

     convergence has been achieved in  13 iterations


     -----------------------------------------------
     Non-local corr. energy    =      25.33914311 Ry
     -----------------------------------------------


     Forces acting on atoms (cartesian axes, Ry/au):

     atom    1 type  1   force =    -0.00000083    0.00067650   -0.00050463
     atom    2 type  1   force =    -0.00000592    0.02233682    0.00826489
     atom    3 type  1   force =    -0.00073176   -0.00041828    0.00095563
     atom    4 type  1   force =    -0.00338701   -0.00196033   -0.00438532
     atom    5 type  1   force =     0.00057111   -0.00033077   -0.00048690
     atom    6 type  1   force =     0.01934497   -0.01116153    0.00826568
     atom    7 type  1   force =     0.00119990    0.00071246   -0.00036756
     atom    8 type  1   force =     0.00510768    0.00294233    0.00014023
     atom    9 type  1   force =     0.00074673   -0.00041175    0.00095909
     atom   10 type  1   force =     0.00339733   -0.00194262   -0.00438039
     atom   11 type  1   force =     0.00001167    0.00085714    0.00097621
     atom   12 type  1   force =     0.00001469    0.00392784   -0.00437121
     atom   13 type  1   force =    -0.00119734    0.00069920   -0.00038922
     atom   14 type  1   force =    -0.00508784    0.00294050    0.00013476
     atom   15 type  1   force =    -0.00001468   -0.00136494   -0.00038822
     atom   16 type  1   force =    -0.00000018   -0.00587597    0.00012898
     atom   17 type  1   force =    -0.00057728   -0.00033580   -0.00050154
     atom   18 type  1   force =    -0.01934286   -0.01116076    0.00826451
     atom   19 type  2   force =     0.00026055    0.00016245    0.00101415
     atom   20 type  2   force =     0.00383971   -0.00154301    0.00287212
     atom   21 type  2   force =     0.00027577   -0.00025946    0.00091219
     atom   22 type  2   force =     0.00056911    0.00408239    0.00288569
     atom   23 type  2   force =    -0.00006863    0.00032696    0.00090123
     atom   24 type  2   force =    -0.00318105   -0.00219553    0.00284610
     atom   25 type  2   force =    -0.00029668    0.00025734    0.00086715
     atom   26 type  2   force =    -0.00349597   -0.00164656    0.00284491
     atom   27 type  2   force =     0.00006399   -0.00033329    0.00087538
     atom   28 type  2   force =     0.00007401    0.00003911    0.00300188
     atom   29 type  2   force =     0.00007374    0.00004380   -0.00121431
     atom   30 type  2   force =     0.00292269   -0.00242156    0.00284439
     atom   31 type  2   force =     0.00001556    0.00000855    0.00089133
     atom   32 type  2   force =    -0.00032445   -0.00018949    0.00289569
     atom   33 type  2   force =    -0.00033748   -0.00017663    0.00172622
     atom   34 type  2   force =    -0.00063241    0.00374859    0.00286525
     atom   35 type  2   force =    -0.00000506    0.00001138    0.00088356
     atom   36 type  2   force =     0.00157073   -0.00060919    0.00124628
     atom   37 type  2   force =     0.00393301   -0.00196803   -0.00332309
     atom   38 type  2   force =     0.00062180    0.00034482   -0.00119966
     atom   39 type  2   force =     0.00110758    0.00064325   -0.00235638
     atom   40 type  2   force =     0.00028560    0.00160746    0.00127473
     atom   41 type  2   force =     0.00027365    0.00439768   -0.00331750
     atom   42 type  2   force =    -0.00156626   -0.00093180    0.00126374
     atom   43 type  2   force =    -0.00399179   -0.00231770   -0.00334132
     atom   44 type  2   force =    -0.00030698    0.00029836   -0.00143050
     atom   45 type  2   force =    -0.00032011   -0.01601964   -0.00695153
     atom   46 type  2   force =     0.00012889   -0.00043152   -0.00143352
     atom   47 type  2   force =    -0.01403543    0.00774896   -0.00694995
     atom   48 type  2   force =     0.00007617   -0.00037182   -0.00125467
     atom   49 type  2   force =     0.00006085   -0.00093414   -0.00240168
     atom   50 type  2   force =    -0.00026096    0.00022513   -0.00126774
     atom   51 type  2   force =    -0.00077602    0.00053309   -0.00239517
     atom   52 type  2   force =    -0.00038301   -0.00022383   -0.00143503
     atom   53 type  2   force =     0.01378051    0.00796385   -0.00695493
     The non-local contrib.  to forces
     atom    1 type  1   force =     0.00003457    0.00120255   -0.00077931
     atom    2 type  1   force =    -0.00001233    0.11932780    0.08120164
     atom    3 type  1   force =    -0.00128701   -0.00080279    0.00194716
     atom    4 type  1   force =    -0.00312559   -0.00181379   -0.00305263
     atom    5 type  1   force =     0.00109272   -0.00067212   -0.00081565
     atom    6 type  1   force =     0.10334919   -0.05969750    0.08117507
     atom    7 type  1   force =     0.00274151    0.00153378   -0.00121540
     atom    8 type  1   force =     0.00684193    0.00394359   -0.00045208
     atom    9 type  1   force =     0.00136591   -0.00080052    0.00195074
     atom   10 type  1   force =     0.00311784   -0.00179980   -0.00304585
     atom   11 type  1   force =     0.00003062    0.00147881    0.00191940
     atom   12 type  1   force =    -0.00000757    0.00359344   -0.00308174
     atom   13 type  1   force =    -0.00267339    0.00151187   -0.00119356
     atom   14 type  1   force =    -0.00684358    0.00393120   -0.00042070
     atom   15 type  1   force =     0.00002274   -0.00316861   -0.00119853
     atom   16 type  1   force =    -0.00000849   -0.00791582   -0.00043059
     atom   17 type  1   force =    -0.00104884   -0.00068778   -0.00078854
     atom   18 type  1   force =    -0.10334561   -0.05968581    0.08118199
     atom   19 type  2   force =     0.00014106    0.00007535    0.23460393
     atom   20 type  2   force =     0.01177966   -0.00931552    0.25797604
     atom   21 type  2   force =     0.00208949   -0.00059497    0.23445222
     atom   22 type  2   force =    -0.00219395    0.01486917    0.25798560
     atom   23 type  2   force =     0.00051318    0.00213734    0.23445023
     atom   24 type  2   force =    -0.01392792   -0.00536649    0.25797254
     atom   25 type  2   force =    -0.00155541   -0.00132564    0.23443778
     atom   26 type  2   force =    -0.01159607   -0.00938106    0.25797144
     atom   27 type  2   force =    -0.00193444   -0.00063940    0.23444128
     atom   28 type  2   force =     0.00003417    0.00003978    0.25718773
     atom   29 type  2   force =     0.00002336    0.00005159    0.21944897
     atom   30 type  2   force =     0.01379209   -0.00547936    0.25796025
     atom   31 type  2   force =     0.00138571   -0.00145711    0.23444313
     atom   32 type  2   force =    -0.00017316   -0.00009012    0.25817907
     atom   33 type  2   force =    -0.00019374   -0.00007411    0.24143916
     atom   34 type  2   force =     0.00216357    0.01469685    0.25798066
     atom   35 type  2   force =    -0.00058354    0.00196612    0.23444731
     atom   36 type  2   force =     0.00740005   -0.00411634   -0.22147468
     atom   37 type  2   force =     0.00844669   -0.00472025   -0.25538638
     atom   38 type  2   force =     0.00139955    0.00082849   -0.23734335
     atom   39 type  2   force =     0.00420915    0.00243238   -0.25590468
     atom   40 type  2   force =     0.00011540    0.00850630   -0.22147334
     atom   41 type  2   force =     0.00012736    0.00968763   -0.25538200
     atom   42 type  2   force =    -0.00747073   -0.00428393   -0.22146790
     atom   43 type  2   force =    -0.00848947   -0.00489211   -0.25539124
     atom   44 type  2   force =    -0.00016873   -0.00065369   -0.23804490
     atom   45 type  2   force =    -0.00015690   -0.03935768   -0.28483201
     atom   46 type  2   force =    -0.00066168    0.00020292   -0.23803448
     atom   47 type  2   force =    -0.03416515    0.01954595   -0.28482191
     atom   48 type  2   force =     0.00003118   -0.00143955   -0.23736101
     atom   49 type  2   force =     0.00003998   -0.00468492   -0.25591499
     atom   50 type  2   force =    -0.00127127    0.00078802   -0.23737935
     atom   51 type  2   force =    -0.00404860    0.00238786   -0.25592621
     atom   52 type  2   force =     0.00052715    0.00031966   -0.23803940
     atom   53 type  2   force =     0.03405369    0.01965617   -0.28481853
     The ionic contribution  to forces
     atom    1 type  1   force =    -0.00085069   -1.24062091    2.05627325
     atom    2 type  1   force =     0.00006409   -9.29001070   -6.69111398
     atom    3 type  1   force =    -0.12196360   -0.06919535    0.73866437
     atom    4 type  1   force =    -0.29517296   -0.17025633   -0.87464904
     atom    5 type  1   force =    -1.07517040    0.62155646    2.05637980
     atom    6 type  1   force =    -8.04550311    4.64590374   -6.69082410
     atom    7 type  1   force =    -0.65828115   -0.37927321    0.92641370
     atom    8 type  1   force =    -2.09453888   -1.20962043   -1.27762240
     atom    9 type  1   force =     0.12052621   -0.06906357    0.73888887
     atom   10 type  1   force =     0.29522587   -0.17020984   -0.87446265
     atom   11 type  1   force =    -0.00041294    0.14115777    0.73952064
     atom   12 type  1   force =     0.00025840    0.34135324   -0.87376842
     atom   13 type  1   force =     0.65707103   -0.37904275    0.92594546
     atom   14 type  1   force =     2.09472226   -1.20928936   -1.27813871
     atom   15 type  1   force =    -0.00059740    0.76050097    0.92557854
     atom   16 type  1   force =     0.00018673    2.41905619   -1.27833989
     atom   17 type  1   force =     1.07422235    0.62199185    2.05622269
     atom   18 type  1   force =     8.04508286    4.64558716   -6.69043579
     atom   19 type  2   force =    -0.00135048   -0.00001921  -14.07793424
     atom   20 type  2   force =     2.81647274   -4.88087020  -14.07679248
     atom   21 type  2   force =     0.38947007   -0.67730169  -14.07696634
     atom   22 type  2   force =    -2.81828367    4.87962285  -14.07690777
[...]
     atom   41 type  2   force =    -0.00002080    0.00020700    0.00512919
     atom   42 type  2   force =     0.00016180    0.00008544    0.00490446
     atom   43 type  2   force =    -0.00006505   -0.00004367    0.00510922
     atom   44 type  2   force =    -0.00012811    0.00002858    0.00505433
     atom   45 type  2   force =     0.00003461    0.00178521    0.00623409
     atom   46 type  2   force =    -0.00004285   -0.00012104    0.00505316
     atom   47 type  2   force =     0.00156675   -0.00086103    0.00623358
     atom   48 type  2   force =    -0.00000727    0.00000732    0.00512415
     atom   49 type  2   force =    -0.00001767   -0.00026204    0.00556537
     atom   50 type  2   force =     0.00000904   -0.00000760    0.00512407
     atom   51 type  2   force =    -0.00023028    0.00011791    0.00556562
     atom   52 type  2   force =    -0.00017592   -0.00009981    0.00504824
     atom   53 type  2   force =    -0.00141318   -0.00081346    0.00624183
     The Hubbard contrib.    to forces
     atom    1 type  1   force =     0.00000000    0.00000000    0.00000000
     atom    2 type  1   force =     0.00000000    0.00000000    0.00000000
     atom    3 type  1   force =     0.00000000    0.00000000    0.00000000
     atom    4 type  1   force =     0.00000000    0.00000000    0.00000000
     atom    5 type  1   force =     0.00000000    0.00000000    0.00000000
     atom    6 type  1   force =     0.00000000    0.00000000    0.00000000
     atom    7 type  1   force =     0.00000000    0.00000000    0.00000000
     atom    8 type  1   force =     0.00000000    0.00000000    0.00000000
     atom    9 type  1   force =     0.00000000    0.00000000    0.00000000
     atom   10 type  1   force =     0.00000000    0.00000000    0.00000000
     atom   11 type  1   force =     0.00000000    0.00000000    0.00000000
     atom   12 type  1   force =     0.00000000    0.00000000    0.00000000
     atom   13 type  1   force =     0.00000000    0.00000000    0.00000000
     atom   14 type  1   force =     0.00000000    0.00000000    0.00000000
     atom   15 type  1   force =     0.00000000    0.00000000    0.00000000
     atom   16 type  1   force =     0.00000000    0.00000000    0.00000000
     atom   17 type  1   force =     0.00000000    0.00000000    0.00000000
     atom   18 type  1   force =     0.00000000    0.00000000    0.00000000
     atom   19 type  2   force =     0.00000000    0.00000000    0.00000000
     atom   20 type  2   force =     0.00000000    0.00000000    0.00000000
     atom   21 type  2   force =     0.00000000    0.00000000    0.00000000
     atom   22 type  2   force =     0.00000000    0.00000000    0.00000000
     atom   23 type  2   force =     0.00000000    0.00000000    0.00000000
     atom   24 type  2   force =     0.00000000    0.00000000    0.00000000
     atom   25 type  2   force =     0.00000000    0.00000000    0.00000000
     atom   26 type  2   force =     0.00000000    0.00000000    0.00000000
     atom   27 type  2   force =     0.00000000    0.00000000    0.00000000
     atom   28 type  2   force =     0.00000000    0.00000000    0.00000000
     atom   29 type  2   force =     0.00000000    0.00000000    0.00000000
     atom   30 type  2   force =     0.00000000    0.00000000    0.00000000
     atom   31 type  2   force =     0.00000000    0.00000000    0.00000000
     atom   32 type  2   force =     0.00000000    0.00000000    0.00000000
     atom   33 type  2   force =     0.00000000    0.00000000    0.00000000
     atom   34 type  2   force =     0.00000000    0.00000000    0.00000000
     atom   35 type  2   force =     0.00000000    0.00000000    0.00000000
     atom   36 type  2   force =     0.00000000    0.00000000    0.00000000
     atom   37 type  2   force =     0.00000000    0.00000000    0.00000000
     atom   38 type  2   force =     0.00000000    0.00000000    0.00000000
     atom   39 type  2   force =     0.00000000    0.00000000    0.00000000
     atom   40 type  2   force =     0.00000000    0.00000000    0.00000000
     atom   41 type  2   force =     0.00000000    0.00000000    0.00000000
     atom   42 type  2   force =     0.00000000    0.00000000    0.00000000
     atom   43 type  2   force =     0.00000000    0.00000000    0.00000000
     atom   44 type  2   force =     0.00000000    0.00000000    0.00000000
     atom   45 type  2   force =     0.00000000    0.00000000    0.00000000
     atom   46 type  2   force =     0.00000000    0.00000000    0.00000000
     atom   47 type  2   force =     0.00000000    0.00000000    0.00000000
     atom   48 type  2   force =     0.00000000    0.00000000    0.00000000
     atom   49 type  2   force =     0.00000000    0.00000000    0.00000000
     atom   50 type  2   force =     0.00000000    0.00000000    0.00000000
     atom   51 type  2   force =     0.00000000    0.00000000    0.00000000
     atom   52 type  2   force =     0.00000000    0.00000000    0.00000000
     atom   53 type  2   force =     0.00000000    0.00000000    0.00000000
     The SCF correction term to forces
     atom    1 type  1   force =    -0.00000036    0.00000540    0.00001230
     atom    2 type  1   force =     0.00000651    0.00000256    0.00000355
     atom    3 type  1   force =    -0.00000739   -0.00000406    0.00000182
     atom    4 type  1   force =    -0.00000893   -0.00000511   -0.00000160
     atom    5 type  1   force =     0.00000412   -0.00000334    0.00001240
     atom    6 type  1   force =     0.00000542    0.00000427    0.00000358
     atom    7 type  1   force =     0.00000768    0.00000454    0.00000495
     atom    8 type  1   force =     0.00000598    0.00000344    0.00001111
     atom    9 type  1   force =     0.00000902   -0.00000325    0.00000210
     atom   10 type  1   force =     0.00001479   -0.00000740    0.00000159
     atom   11 type  1   force =     0.00000151    0.00000919    0.00000194
     atom   12 type  1   force =     0.00000087    0.00001643    0.00000167
     atom   13 type  1   force =    -0.00000697    0.00000309    0.00000892
     atom   14 type  1   force =    -0.00001198   -0.00000032    0.00000530
     atom   15 type  1   force =    -0.00000095   -0.00000708    0.00000906
     atom   16 type  1   force =    -0.00000633   -0.00000998    0.00000520
     atom   17 type  1   force =    -0.00000591   -0.00000399    0.00001477
     atom   18 type  1   force =    -0.00000642   -0.00000383   -0.00000096
     atom   19 type  2   force =     0.00000077    0.00000002    0.00000490
     atom   20 type  2   force =    -0.00000650   -0.00000569    0.00000494
     atom   21 type  2   force =    -0.00001451    0.00000662    0.00000033
     atom   22 type  2   force =    -0.00000856   -0.00000268    0.00000493
     atom   23 type  2   force =    -0.00000154   -0.00001580    0.00000043
     atom   24 type  2   force =     0.00000625    0.00000939    0.00001462
     atom   25 type  2   force =     0.00001564    0.00001132   -0.00000692
     atom   26 type  2   force =     0.00001133    0.00000071    0.00001463
     atom   27 type  2   force =     0.00001778    0.00000779   -0.00000684
     atom   28 type  2   force =     0.00000750    0.00000439   -0.00000986
     atom   29 type  2   force =     0.00000200    0.00000132    0.00000509
     atom   30 type  2   force =    -0.00000339    0.00000272    0.00000814
     atom   31 type  2   force =    -0.00001594    0.00000762   -0.00000204
     atom   32 type  2   force =    -0.00000441   -0.00000238    0.00001099
     atom   33 type  2   force =    -0.00000283   -0.00000138   -0.00001122
     atom   34 type  2   force =     0.00000107   -0.00000424    0.00000783
     atom   35 type  2   force =    -0.00000086   -0.00001769   -0.00000155
     atom   36 type  2   force =    -0.00001860    0.00000875    0.00000052
     atom   37 type  2   force =    -0.00001847    0.00000754   -0.00001098
     atom   38 type  2   force =    -0.00000883   -0.00000463   -0.00000529
     atom   39 type  2   force =    -0.00001918   -0.00001092   -0.00000200
     atom   40 type  2   force =    -0.00000180   -0.00002036    0.00000122
     atom   41 type  2   force =    -0.00000262   -0.00001984   -0.00001100
     atom   42 type  2   force =     0.00001713    0.00000985   -0.00000301
     atom   43 type  2   force =     0.00002467    0.00001409   -0.00001282
     atom   44 type  2   force =     0.00000162    0.00000002    0.00000224
     atom   45 type  2   force =     0.00001126   -0.00001431   -0.00000657
     atom   46 type  2   force =     0.00000054    0.00000122    0.00000213
     atom   47 type  2   force =    -0.00000687    0.00001691   -0.00000658
     atom   48 type  2   force =     0.00000195    0.00000710   -0.00000436
     atom   49 type  2   force =    -0.00000733    0.00001259   -0.00000765
     atom   50 type  2   force =     0.00000730   -0.00000141   -0.00000444
     atom   51 type  2   force =     0.00000748   -0.00001253   -0.00000763
     atom   52 type  2   force =     0.00000230    0.00000108    0.00000535
     atom   53 type  2   force =     0.00000900    0.00000517   -0.00000971

     Total force =     0.003715     Total SCF correction =     0.000108


     Computing stress (Cartesian axis) and pressure



     -----------------------------------------------
     Non-local corr. energy    =      25.33578372 Ry
     -----------------------------------------------

          total   stress  (Ry/bohr**3)                   (kbar)     P=       -4.90
  -0.00003250   0.00000006  -0.00000000           -4.78        0.01       -0.00
   0.00000006  -0.00003257   0.00000000            0.01       -4.79        0.00
  -0.00000000   0.00000000  -0.00003496           -0.00        0.00       -5.14

     kinetic stress (kbar)  14753.58      0.01      0.00
                                0.01  14753.57      0.00
                                0.00      0.00  14765.37

     local   stress (kbar)  -8008.57      1.34     -0.73
                                1.34  -8010.17     -0.44
                               -0.73     -0.44   1244.51

     nonloc. stress (kbar)  -1119.31      0.00     -0.00
                                0.00  -1119.31     -0.00
                               -0.00     -0.00  -1124.45

     hartree stress (kbar)  12077.00     -0.66      0.37
                               -0.66  12077.79      0.22
                                0.37      0.22   7905.62

     exc-cor stress (kbar)   6797.83     -0.00     -0.00
                               -0.00   6797.83     -0.00
                               -0.00     -0.00   6796.68

     corecor stress (kbar) -11069.94      0.00      0.00
                                0.00 -11069.94      0.00
                                0.00      0.00 -11069.87

     ewald   stress (kbar) -13516.82     -0.67      0.36
                               -0.67 -13516.01      0.22
                                0.36      0.22 -18605.82

     hubbard stress (kbar)      0.00      0.00      0.00
                                0.00      0.00      0.00
                                0.00      0.00      0.00

     DFT-D   stress (kbar)      0.00      0.00      0.00
                                0.00      0.00      0.00
                                0.00      0.00      0.00

     XDM     stress (kbar)      0.00      0.00      0.00
                                0.00      0.00      0.00
                                0.00      0.00      0.00

     dft-nl  stress (kbar)     81.44     -0.00     -0.00
                               -0.00     81.44     -0.00
                               -0.00     -0.00     82.82

     TS-vdW  stress (kbar)      0.00      0.00      0.00
                                0.00      0.00      0.00
                                0.00      0.00      0.00

     MDB     stress (kbar)      0.00      0.00      0.00
                                0.00      0.00      0.00
                                0.00      0.00      0.00

     3D-RISM stress (kbar)      0.00      0.00      0.00
                                0.00      0.00      0.00
                                0.00      0.00      0.00

     Energy error            =      8.5E-05 Ry
     Gradient error          =      9.8E-04 Ry/Bohr

     bfgs converged in  16 scf cycles and  15 bfgs steps
     (criteria: energy <  1.0E-04 Ry, force <  1.0E-03 Ry/Bohr)

     End of BFGS Geometry Optimization

     Final energy             =  -35862.0362916977 Ry

     File ./PbI2.bfgs deleted, as requested
Begin final coordinates

ATOMIC_POSITIONS (angstrom)
Pb            2.3561693475        4.0785358960       14.7578016475
Pb            2.3566035845        4.2204262549        7.4576230351
Pb           -0.0013559764        8.1590235219       14.7533411565
Pb           -0.0494109632        8.1313504218        7.2973095306
Pb           -2.3564499174       12.2408780469       14.7576808627
Pb           -2.2333708292       12.1704161971        7.4575247921
Pb            7.0638398271        4.0779814459       14.7616983713
Pb            7.0900135429        4.0931271804        7.3964810876
Pb            4.7113707728        8.1578487606       14.7553395299
Pb            4.7613270604        8.1302811528        7.2984094663
Pb            2.3539816436       12.2409241425       14.7552911357
Pb            2.3550443611       12.2980347539        7.2983754570
Pb           11.7800095389        4.0789438639       14.7598622609
Pb           11.7540187604        4.0933776283        7.3944768960
Pb            9.4227510091        8.1617855441       14.7597708360
Pb            9.4222289251        8.1321390988        7.3943980343
Pb            7.0682982348       12.2406116809       14.7575169283
Pb            6.9457528829       12.1699419256        7.4557673017
I             2.3586200798        1.3614909781       12.8730793135
I             0.0072432921        5.4540531322        5.4866595912
I            -0.0035957813        5.4327893993       12.8705900757
I            -2.3396698583        9.5188962002        5.4865803291
I            -2.3635696239        9.5200084158       12.8704714457
I             7.0791913326        1.3538523385        5.4868345005
I             7.0641640365        1.3692285399       12.8714082681
I             4.7123524806        5.4533708436        5.4868733128
I             4.7180893915        5.4327828188       12.8714373950
I             2.3568195624        9.5203953129        5.5176259208
I             2.3573481019        9.5205992847       12.8359096582
I            11.7648416264        1.3496651183        5.4867923791
I            11.7769482622        1.3664591910       12.8725547928
I             9.4186507160        5.4375784789        5.4951148883
I             9.4181026101        5.4372461402       12.8798394786
I             7.0515679647        9.5131893919        5.4867545139
I             7.0720477069        9.5152574079       12.8724611930
I             0.0165086920        2.7112356747        1.9119548224
I             0.0211037663        2.7074849209        9.2263717641
I            -2.3491028782        6.8036397284        1.8862953369
I            -2.3504995933        6.8028606349        9.2553498657
I            -4.7101770068       10.8981547542        1.9119642017
I            -4.7111988276       10.9040896670        9.2263666327
I             4.6939483508        2.7094721625        1.9139507276
I             4.6919240638        2.7084090949        9.2279864141
I             2.3509029066        6.8069864855        1.8807582090
I             2.3562303543        6.6990641862        9.2672988023
I             0.0037943595       10.8722962270        1.8806727240
I            -0.0869094634       10.9308759006        9.2672375451
I             9.4237717909        2.7148923140        1.8867878841
I             9.4237870897        2.7152542165        9.2565809748
I             7.0635166696        6.8032731033        1.8868217461
I             7.0637786637        6.8031733085        9.2565978821
I             4.7021559447       10.8746949979        1.8797035247
I             4.8020038085       10.9323876490        9.2672579776
End final coordinates



     Writing all to output data dir ./PbI2.save/
 
     init_run     :      9.36s CPU      9.81s WALL (       1 calls)
     electrons    :  16442.33s CPU  16635.97s WALL (      16 calls)
     update_pot   :     23.31s CPU     23.59s WALL (      15 calls)
     forces       :     91.88s CPU     93.92s WALL (      16 calls)
     stress       :   1142.47s CPU   1151.68s WALL (      16 calls)

     Called by init_run:
     wfcinit      :      6.58s CPU      6.82s WALL (       1 calls)
     wfcinit:atom :      0.05s CPU      0.08s WALL (       2 calls)
     wfcinit:wfcr :      6.41s CPU      6.55s WALL (       2 calls)
     potinit      :      1.28s CPU      1.37s WALL (       1 calls)
     hinit0       :      0.45s CPU      0.46s WALL (       1 calls)

     Called by electrons:
     c_bands      :  15881.98s CPU  16059.76s WALL (     168 calls)
     sum_band     :    409.22s CPU    417.99s WALL (     168 calls)
     v_of_rho     :    100.49s CPU    102.18s WALL (     171 calls)
     v_h          :      1.12s CPU      1.14s WALL (     171 calls)
     v_xc         :    117.05s CPU    119.33s WALL (     203 calls)
     newd         :     30.11s CPU     31.32s WALL (     171 calls)
     PAW_pot      :     30.71s CPU     31.18s WALL (     186 calls)
     mix_rho      :      3.67s CPU      3.88s WALL (     168 calls)
     vdW_kernel   :      0.25s CPU      0.25s WALL (       1 calls)

     Called by c_bands:
     init_us_2    :     31.09s CPU     31.59s WALL (     768 calls)
     init_us_2:cp :     31.08s CPU     31.58s WALL (     768 calls)
     cegterg      :  15444.77s CPU  15616.29s WALL (     336 calls)

     Called by sum_band:
     sum_band:wei :      0.15s CPU      0.16s WALL (     168 calls)
     sum_band:loo :    365.12s CPU    370.92s WALL (     168 calls)
     sum_band:buf :      9.25s CPU      9.35s WALL (     336 calls)
     sum_band:ini :     13.76s CPU     13.96s WALL (     336 calls)
     sum_band:cal :    148.44s CPU    150.92s WALL (     366 calls)
     sum_band:bec :      2.18s CPU      2.22s WALL (     366 calls)
     addusdens    :     36.35s CPU     38.07s WALL (     168 calls)
     addusd:skk   :      0.90s CPU      0.93s WALL (     336 calls)
     addusd:dgemm :     22.14s CPU     23.66s WALL (     336 calls)
     addusd:qvan2 :     11.69s CPU     11.81s WALL (     336 calls)

     Called by *egterg:
     cdiaghg      :  10608.63s CPU  10666.60s WALL (    5520 calls)
     cegterg:over :   1022.89s CPU   1046.47s WALL (    5240 calls)
     cegterg:upda :    647.79s CPU    663.04s WALL (    5240 calls)
     cegterg:last :    229.11s CPU    230.99s WALL (     350 calls)
     h_psi        :   2139.62s CPU   2177.31s WALL (    5578 calls)
     s_psi        :    452.68s CPU    456.35s WALL (    5578 calls)
     g_psi        :      3.05s CPU      3.09s WALL (    5240 calls)

     Called by h_psi:
     h_psi:calbec :    500.35s CPU    504.69s WALL (    5578 calls)
     vloc_psi     :   1168.25s CPU   1182.83s WALL (    5578 calls)
     add_vuspsi   :    451.26s CPU    455.26s WALL (    5578 calls)

     General routines
     calbec       :    737.28s CPU    744.76s WALL (    6104 calls)
     fft          :     61.93s CPU     62.74s WALL (   13473 calls)
     ffts         :      2.10s CPU      2.12s WALL (     339 calls)
     fftw         :   1276.60s CPU   1292.28s WALL ( 1191806 calls)
     interpolate  :      1.38s CPU      1.41s WALL (     171 calls)
 
     Parallel routines

     PAW routines
     PAW_pot      :     30.71s CPU     31.18s WALL (     186 calls)
 
     PWSCF        :      4h55m CPU      4h59m WALL

 
   This run was terminated on:  20:39:21  20Mar2024            

=------------------------------------------------------------------------------=
   JOB DONE.
=------------------------------------------------------------------------------=
