
     Program PWSCF v.7.2 starts on 27Mar2024 at 21:37:30 

     This program is part of the open-source Quantum ESPRESSO suite
     for quantum simulation of materials; please cite
         "P. Giannozzi et al., J. Phys.:Condens. Matter 21 395502 (2009);
         "P. Giannozzi et al., J. Phys.:Condens. Matter 29 465901 (2017);
         "P. Giannozzi et al., J. Chem. Phys. 152 154105 (2020);
          URL http://www.quantum-espresso.org", 
     in publications or presentations arising from this work. More details at
     http://www.quantum-espresso.org/quote

     Parallel version (MPI & OpenMP), running on      10 processor cores
     Number of MPI processes:                10
     Threads/MPI process:                     1

     MPI processes distributed on     2 nodes
     1969285 MiB available memory on the printing compute node when the environment starts
 
     Reading input from espresso.pwi
Warning: card &CELL ignored
Warning: card    CELL_DYNAMICS    = 'BFGS' ignored
Warning: card / ignored

     Current dimensions of program PWSCF are:
     Max number of different atomic species (ntypx) = 10
     Max number of k-points (npk) =  40000
     Max angular momentum in pseudopotentials (lmaxx) =  4
     file C.pbe-n-kjpaw_psl.1.0.0.UPF: wavefunction(s)  2S 2P renormalized

     **************************************************************************
     Initializing libbeef V0.1.2 with the BEEF-vdW functional.
     Citation: Wellendorff et al., PRB 85, 235149 (2012).
     **************************************************************************


     IMPORTANT: XC functional enforced from input :
     Exchange-correlation= BEEF-VDW
                           (   1   4  43  14   2   0   0)
     Any further DFT definition will be discarded
     Please, verify this is what you really want

 
     R & G space division:  proc/nbgrp/npool/nimage =      10
     Subspace diagonalization in iterative solution of the eigenvalue problem:
     a serial algorithm will be used

 
     Parallelization info
     --------------------
     sticks:   dense  smooth     PW     G-vecs:    dense   smooth      PW
     Min         127     100     29                 3404     2428     395
     Max         129     101     31                 3405     2431     398
     Sum        1273    1005    301                34049    24303    3959
 
     Using Slab Decomposition
 


     bravais-lattice index     =            1
     lattice parameter (alat)  =       6.7507  a.u.
     unit-cell volume          =     307.6390 (a.u.)^3
     number of atoms/cell      =            7
     number of atomic types    =            1
     number of electrons       =        30.00
     number of Kohn-Sham states=           19
     kinetic-energy cutoff     =      70.0000  Ry
     charge density cutoff     =     350.0000  Ry
     scf convergence threshold =      1.0E-07
     mixing beta               =       0.7000
     number of iterations used =            8  plain     mixing
     energy convergence thresh.=      1.0E-04
     force convergence thresh. =      1.0E-03
     Exchange-correlation= BEEF-VDW
                           (   1   4  43  14   2   0   0)
     nstep                     =           50


     celldm(1)=   6.750674  celldm(2)=   0.000000  celldm(3)=   0.000000
     celldm(4)=   0.000000  celldm(5)=   0.000000  celldm(6)=   0.000000

     crystal axes: (cart. coord. in units of alat)
               a(1) = (   1.000000   0.000000   0.000000 )  
               a(2) = (   0.000000   1.000000   0.000000 )  
               a(3) = (   0.000000   0.000000   1.000000 )  

     reciprocal axes: (cart. coord. in units 2 pi/alat)
               b(1) = (  1.000000  0.000000  0.000000 )  
               b(2) = (  0.000000  1.000000  0.000000 )  
               b(3) = (  0.000000  0.000000  1.000000 )  


     PseudoPot. # 1 for C  read from file:
     /trace/group/acmegroup/atimmins/packages/espresso/pseudo/psl_1.0.0/pslibrary.1.0.0/pbe/PSEUDOPOTENTIALS/C.pbe-n-kjpaw_psl.1.0.0.UPF
     MD5 check sum: 5459cf7f2c8c37df2f7cde8914797f4d
     Pseudo is Projector augmented-wave + core cor, Zval =  4.0
     Generated using 'atomic' code by A. Dal Corso  v.7.1
     Shape of augmentation charge: PSQ
     Using radial grid of 1073 points,  4 beta functions with: 
                l(1) =   0
                l(2) =   0
                l(3) =   1
                l(4) =   1
     Q(r) pseudized with 0 coefficients 


     atomic species   valence    mass     pseudopotential
        C              4.00    12.01100     C ( 1.00)

      6 Sym. Ops. (no inversion) found


                                    s                        frac. trans.

      isym =  1     identity                                     

 cryst.   s( 1) = (     1          0          0      )
                  (     0          1          0      )
                  (     0          0          1      )

 cart.    s( 1) = (  1.0000000  0.0000000  0.0000000 )
                  (  0.0000000  1.0000000  0.0000000 )
                  (  0.0000000  0.0000000  1.0000000 )


      isym =  2     120 deg rotation - cart. axis [1,-1,1]       

 cryst.   s( 2) = (     0          0          1      )
                  (    -1          0          0      )
                  (     0         -1          0      )

 cart.    s( 2) = (  0.0000000 -1.0000000  0.0000000 )
                  (  0.0000000  0.0000000 -1.0000000 )
                  (  1.0000000  0.0000000  0.0000000 )


      isym =  3     120 deg rotation - cart. axis [-1,1,-1]      

 cryst.   s( 3) = (     0         -1          0      )
                  (     0          0         -1      )
                  (     1          0          0      )

 cart.    s( 3) = (  0.0000000  0.0000000  1.0000000 )
                  ( -1.0000000  0.0000000  0.0000000 )
                  (  0.0000000 -1.0000000  0.0000000 )


      isym =  4     inv. 180 deg rotation - cart. axis [1,1,0]   

 cryst.   s( 4) = (     0         -1          0      )
                  (    -1          0          0      )
                  (     0          0          1      )

 cart.    s( 4) = (  0.0000000 -1.0000000  0.0000000 )
                  ( -1.0000000  0.0000000  0.0000000 )
                  (  0.0000000  0.0000000  1.0000000 )


      isym =  5     inv. 180 deg rotation - cart. axis [-1,0,1]  

 cryst.   s( 5) = (     0          0          1      )
                  (     0          1          0      )
                  (     1          0          0      )

 cart.    s( 5) = (  0.0000000  0.0000000  1.0000000 )
                  (  0.0000000  1.0000000  0.0000000 )
                  (  1.0000000  0.0000000  0.0000000 )


      isym =  6     inv. 180 deg rotation - cart. axis [0,1,1]   

 cryst.   s( 6) = (     1          0          0      )
                  (     0          0         -1      )
                  (     0         -1          0      )

 cart.    s( 6) = (  1.0000000  0.0000000  0.0000000 )
                  (  0.0000000  0.0000000 -1.0000000 )
                  (  0.0000000 -1.0000000  0.0000000 )


     point group C_3v (3m)  
     there are  3 classes
     the character table:

       E     2C3   3s_v 
A_1    1.00  1.00  1.00
A_2    1.00  1.00 -1.00
E      2.00 -1.00  0.00

     the symmetry operations in each class and the name of the first element:

     E        1
          identity                                               
     2C3      2    3
          120 deg rotation - cart. axis [1,-1,1]                 
     3s_v     4    5    6
          inv. 180 deg rotation - cart. axis [1,1,0]             

   Cartesian axes

     site n.     atom                  positions (alat units)
         1           C   tau(   1) = (   0.0000000   0.0000000   0.5000000  )
         2           C   tau(   2) = (   0.2500061   0.2500061   0.7499939  )
         3           C   tau(   3) = (   0.0000000   0.5000000   0.0000000  )
         4           C   tau(   4) = (   0.7499939   0.7499939   0.7499939  )
         5           C   tau(   5) = (   0.5000000   0.0000000   0.0000000  )
         6           C   tau(   6) = (   0.7499939   0.2500061   0.2500061  )
         7           C   tau(   7) = (   0.5000000   0.5000000   0.5000000  )

   Crystallographic axes

     site n.     atom                  positions (cryst. coord.)
         1           C   tau(   1) = (  0.0000000  0.0000000  0.5000000  )
         2           C   tau(   2) = (  0.2500061  0.2500061  0.7499939  )
         3           C   tau(   3) = (  0.0000000  0.5000000  0.0000000  )
         4           C   tau(   4) = (  0.7499939  0.7499939  0.7499939  )
         5           C   tau(   5) = (  0.5000000  0.0000000  0.0000000  )
         6           C   tau(   6) = (  0.7499939  0.2500061  0.2500061  )
         7           C   tau(   7) = (  0.5000000  0.5000000  0.5000000  )

     number of k points=    13  Gaussian smearing, width (Ry)=  0.0100
                       cart. coord. in units 2pi/alat
        k(    1) = (   0.0000000   0.0000000   0.0000000), wk =   0.0312500
        k(    2) = (   0.0000000   0.0000000   0.2500000), wk =   0.1875000
        k(    3) = (   0.0000000   0.0000000  -0.5000000), wk =   0.0937500
        k(    4) = (   0.0000000   0.2500000   0.2500000), wk =   0.1875000
        k(    5) = (   0.0000000   0.2500000  -0.5000000), wk =   0.3750000
        k(    6) = (   0.0000000  -0.5000000  -0.5000000), wk =   0.0937500
        k(    7) = (   0.2500000   0.2500000   0.2500000), wk =   0.1875000
        k(    8) = (   0.2500000   0.2500000  -0.5000000), wk =   0.1875000
        k(    9) = (   0.2500000  -0.5000000  -0.5000000), wk =   0.1875000
        k(   10) = (  -0.5000000  -0.5000000  -0.5000000), wk =   0.0312500
        k(   11) = (   0.2500000   0.0000000   0.2500000), wk =   0.1875000
        k(   12) = (   0.2500000  -0.2500000   0.2500000), wk =   0.0625000
        k(   13) = (   0.2500000  -0.2500000  -0.5000000), wk =   0.1875000

                       cryst. coord.
        k(    1) = (   0.0000000   0.0000000   0.0000000), wk =   0.0312500
        k(    2) = (   0.0000000   0.0000000   0.2500000), wk =   0.1875000
        k(    3) = (   0.0000000   0.0000000  -0.5000000), wk =   0.0937500
        k(    4) = (   0.0000000   0.2500000   0.2500000), wk =   0.1875000
        k(    5) = (   0.0000000   0.2500000  -0.5000000), wk =   0.3750000
        k(    6) = (   0.0000000  -0.5000000  -0.5000000), wk =   0.0937500
        k(    7) = (   0.2500000   0.2500000   0.2500000), wk =   0.1875000
        k(    8) = (   0.2500000   0.2500000  -0.5000000), wk =   0.1875000
        k(    9) = (   0.2500000  -0.5000000  -0.5000000), wk =   0.1875000
        k(   10) = (  -0.5000000  -0.5000000  -0.5000000), wk =   0.0312500
        k(   11) = (   0.2500000   0.0000000   0.2500000), wk =   0.1875000
        k(   12) = (   0.2500000  -0.2500000   0.2500000), wk =   0.0625000
        k(   13) = (   0.2500000  -0.2500000  -0.5000000), wk =   0.1875000

     Dense  grid:    34049 G-vectors     FFT dimensions: (  45,  45,  45)

     Smooth grid:    24303 G-vectors     FFT dimensions: (  36,  36,  36)

     Dynamical RAM for                 wfc:       0.09 MB

     Dynamical RAM for     wfc (w. buffer):       1.23 MB

     Dynamical RAM for           str. fact:       0.05 MB

     Dynamical RAM for           local pot:       0.00 MB

     Dynamical RAM for          nlocal pot:       0.26 MB

     Dynamical RAM for                qrad:       0.43 MB

     Dynamical RAM for          rho,v,vnew:       0.39 MB

     Dynamical RAM for               rhoin:       0.13 MB

     Dynamical RAM for            rho*nmix:       0.83 MB

     Dynamical RAM for           G-vectors:       0.21 MB

     Dynamical RAM for          h,s,v(r/c):       0.26 MB

     Dynamical RAM for          <psi|beta>:       0.02 MB

     Dynamical RAM for                 psi:       0.35 MB

     Dynamical RAM for                hpsi:       0.35 MB

     Dynamical RAM for                spsi:       0.35 MB

     Dynamical RAM for      wfcinit/wfcrot:       0.28 MB

     Dynamical RAM for           addusdens:       2.60 MB

     Dynamical RAM for          addusforce:       3.25 MB

     Dynamical RAM for         addusstress:       2.60 MB

     Estimated static dynamical RAM per process >       3.19 MB

     Estimated max dynamical RAM per process >       7.28 MB

     Estimated total dynamical RAM >      72.79 MB

     Check: negative core charge=   -0.000014

     Initial potential from superposition of free atoms

     starting charge      27.9997, renormalised to      30.0000


     %%%%%%%%%%%%%%%%%%%%%%%%%%%%%%%%%%%%%%%%%%%%%%%%%%%%%%%%%%%%%%%%%%%%%%%%
     %                                                                      %
     % You are using vdW-DF, which was implemented by the Thonhauser group. %
     % Please cite the following two papers that made this development      %
     % possible and the two reviews that describe the various versions:     %
     %                                                                      %
     %   T. Thonhauser et al., PRL 115, 136402 (2015).                      %
     %   T. Thonhauser et al., PRB 76, 125112 (2007).                       %
     %   K. Berland et al., Rep. Prog. Phys. 78, 066501 (2015).             %
     %   D.C. Langreth et al., J. Phys.: Condens. Matter 21, 084203 (2009). %
     %                                                                      %
     % If you are calculating stress with vdW-DF, please also cite:         %
     %                                                                      %
     %   R. Sabatini et al., J. Phys.: Condens. Matter 24, 424209 (2012).   %
     %                                                                      %
     %%%%%%%%%%%%%%%%%%%%%%%%%%%%%%%%%%%%%%%%%%%%%%%%%%%%%%%%%%%%%%%%%%%%%%%%

     %%%%%%%%%%%%%%%%%%%%%%%%%%%%%%%%%%%%%%%%%%%%%%%%%%%%%%%%%%%%%%%%%%%%%%%%
     %                                                                      %
     %  vdW-DF NEWS:                                                        %
     %                                                                      %
     %  * vdW-DF3 is now available. DOI: 10.1021/acs.jctc.0c00471           %
     %    use with input_dft = 'vdW-DF3-opt1' or 'vdW-DF3-opt2'             %
     %                                                                      %
     %  * Unscreened and range-separated hybrid vdW-DF-cx functionals       %
     %    DOI: 10.1063/1.4986522 and 10.1088/1361-648X/ac2ad2               %
     %    use with input_dft = 'vdW-DF-cx0'    and 'vdW-DF-ahcx'            %
     %  * Unscreened and range-separated hybrid vdW-DF2-b86r functionals    %
     %    DOI: 10.1063/1.4986522 and DOI: 10.1103/PhysRevX.12.041003        %
     %    use with input_dft = 'vdW-DF2-br0' and 'vdW-DF2-ahbr'             %
     %                                                                      %
     %%%%%%%%%%%%%%%%%%%%%%%%%%%%%%%%%%%%%%%%%%%%%%%%%%%%%%%%%%%%%%%%%%%%%%%%


     Carrying out vdW-DF run using the following parameters:
     Nqs    =  20  Npoints =  1024  r_max =  100.000
     q_mesh =  0.00001000  0.04494208  0.09755937  0.15916263
               0.23128650  0.31572767  0.41458969  0.53033537
               0.66584808  0.82450364  1.01025438  1.22772762
               1.48234092  1.78043706  2.12944203  2.53805004
               3.01644009  3.57652955  4.23227104  5.00000000


     -----------------------------------------------
     Non-local corr. energy    =       0.20432708 Ry
     -----------------------------------------------

     Starting wfcs are   28 randomized atomic wfcs
     Checking if some PAW data can be deallocated... 

     total cpu time spent up to now is        2.6 secs

     Self-consistent Calculation

     iteration #  1     ecut=    70.00 Ry     beta= 0.70
     Davidson diagonalization with overlap

---- Real-time Memory Report at c_bands before calling an iterative solver
           215 MiB given to the printing process from OS
             0 MiB allocation reported by mallinfo(arena+hblkhd)
       1969082 MiB available memory on the node where the printing process lives
------------------
     ethr =  1.00E-02,  avg # of iterations =  2.8

     Threshold (ethr) on eigenvalues was too large:
     Diagonalizing with lowered threshold

     Davidson diagonalization with overlap

---- Real-time Memory Report at c_bands before calling an iterative solver
           218 MiB given to the printing process from OS
             0 MiB allocation reported by mallinfo(arena+hblkhd)
       1969073 MiB available memory on the node where the printing process lives
------------------
     ethr =  9.32E-04,  avg # of iterations =  5.0


     -----------------------------------------------
     Non-local corr. energy    =       0.23902194 Ry
     -----------------------------------------------


     total cpu time spent up to now is        3.1 secs

     total energy              =    -130.68898282 Ry
     estimated scf accuracy    <       0.27807132 Ry

     iteration #  2     ecut=    70.00 Ry     beta= 0.70
     Davidson diagonalization with overlap

---- Real-time Memory Report at c_bands before calling an iterative solver
           224 MiB given to the printing process from OS
             0 MiB allocation reported by mallinfo(arena+hblkhd)
       1969049 MiB available memory on the node where the printing process lives
------------------
     ethr =  9.27E-04,  avg # of iterations =  2.5


     -----------------------------------------------
     Non-local corr. energy    =       0.24384996 Ry
     -----------------------------------------------


     total cpu time spent up to now is        3.4 secs

     total energy              =    -130.71548667 Ry
     estimated scf accuracy    <       0.02887360 Ry

     iteration #  3     ecut=    70.00 Ry     beta= 0.70
     Davidson diagonalization with overlap

---- Real-time Memory Report at c_bands before calling an iterative solver
           226 MiB given to the printing process from OS
             0 MiB allocation reported by mallinfo(arena+hblkhd)
       1968309 MiB available memory on the node where the printing process lives
------------------
     ethr =  9.62E-05,  avg # of iterations =  4.0


     -----------------------------------------------
     Non-local corr. energy    =       0.24615155 Ry
     -----------------------------------------------


     total cpu time spent up to now is        3.7 secs

     total energy              =    -130.72314531 Ry
     estimated scf accuracy    <       0.00519874 Ry

     iteration #  4     ecut=    70.00 Ry     beta= 0.70
     Davidson diagonalization with overlap

---- Real-time Memory Report at c_bands before calling an iterative solver
           227 MiB given to the printing process from OS
             0 MiB allocation reported by mallinfo(arena+hblkhd)
       1968281 MiB available memory on the node where the printing process lives
------------------
     ethr =  1.73E-05,  avg # of iterations =  4.5


     -----------------------------------------------
     Non-local corr. energy    =       0.24665090 Ry
     -----------------------------------------------


     total cpu time spent up to now is        4.0 secs

     total energy              =    -130.72412235 Ry
     estimated scf accuracy    <       0.00029805 Ry

     iteration #  5     ecut=    70.00 Ry     beta= 0.70
     Davidson diagonalization with overlap

---- Real-time Memory Report at c_bands before calling an iterative solver
           228 MiB given to the printing process from OS
             0 MiB allocation reported by mallinfo(arena+hblkhd)
       1968236 MiB available memory on the node where the printing process lives
------------------
     ethr =  9.93E-07,  avg # of iterations =  7.2


     -----------------------------------------------
     Non-local corr. energy    =       0.24691262 Ry
     -----------------------------------------------


     total cpu time spent up to now is        4.3 secs

     total energy              =    -130.72418626 Ry
     estimated scf accuracy    <       0.00054219 Ry

     iteration #  6     ecut=    70.00 Ry     beta= 0.70
     Davidson diagonalization with overlap

---- Real-time Memory Report at c_bands before calling an iterative solver
           228 MiB given to the printing process from OS
             0 MiB allocation reported by mallinfo(arena+hblkhd)
       1967954 MiB available memory on the node where the printing process lives
------------------
     ethr =  9.93E-07,  avg # of iterations =  3.8


     -----------------------------------------------
     Non-local corr. energy    =       0.24695565 Ry
     -----------------------------------------------


     total cpu time spent up to now is        4.6 secs

     total energy              =    -130.72426594 Ry
     estimated scf accuracy    <       0.00000808 Ry

     iteration #  7     ecut=    70.00 Ry     beta= 0.70
     Davidson diagonalization with overlap

---- Real-time Memory Report at c_bands before calling an iterative solver
           228 MiB given to the printing process from OS
             0 MiB allocation reported by mallinfo(arena+hblkhd)
       1967927 MiB available memory on the node where the printing process lives
------------------
     ethr =  2.69E-08,  avg # of iterations =  5.2


     -----------------------------------------------
     Non-local corr. energy    =       0.24697858 Ry
     -----------------------------------------------


     total cpu time spent up to now is        5.0 secs

     total energy              =    -130.72426912 Ry
     estimated scf accuracy    <       0.00000029 Ry

     iteration #  8     ecut=    70.00 Ry     beta= 0.70
     Davidson diagonalization with overlap

---- Real-time Memory Report at c_bands before calling an iterative solver
           228 MiB given to the printing process from OS
             0 MiB allocation reported by mallinfo(arena+hblkhd)
       1968358 MiB available memory on the node where the printing process lives
------------------
     ethr =  9.63E-10,  avg # of iterations =  4.6


     -----------------------------------------------
     Non-local corr. energy    =       0.24699020 Ry
     -----------------------------------------------


     total cpu time spent up to now is        5.3 secs

     End of self-consistent calculation

          k = 0.0000 0.0000 0.0000 (  2969 PWs)   bands (ev):

    -9.9866  -2.2121  -2.2121  -1.3499  -1.3492  -1.3492   4.4326   4.4327
     4.4327   4.8548   7.0883   7.0883   7.0888  14.0240  14.0241  14.0241
    15.8041  15.8041  15.8049

     occupation numbers 
     1.0000   1.0000   1.0000   1.0000   1.0000   1.0000   1.0000   1.0000
     1.0000   1.0000   1.0000   1.0000   1.0000   0.0000   0.0000   0.0000
     0.0000   0.0000   0.0000

          k = 0.0000 0.0000 0.2500 (  3042 PWs)   bands (ev):

    -9.4657  -4.9419  -1.9291  -1.0658  -1.0653   1.1080   3.5569   4.0454
     4.0455   5.7308   6.3372   6.6685   6.6688  12.6888  12.8764  12.8764
    15.7594  17.1063  17.9266

     occupation numbers 
     1.0000   1.0000   1.0000   1.0000   1.0000   1.0000   1.0000   1.0000
     1.0000   1.0000   1.0000   1.0000   1.0000   0.6942   0.0746   0.0746
     0.0000   0.0000   0.0000

          k = 0.0000 0.0000-0.5000 (  3026 PWs)   bands (ev):

    -8.4291  -6.9261  -1.5743  -0.7110  -0.7105   2.7034   3.2889   3.4340
     3.4343   3.5926   6.5992   6.5994   8.9304  10.2686  11.9452  11.9452
    16.0137  17.0839  21.1686

     occupation numbers 
     1.0000   1.0000   1.0000   1.0000   1.0000   1.0000   1.0000   1.0000
     1.0000   1.0000   1.0000   1.0000   1.0000   1.0000   1.0000   1.0000
     0.0000   0.0000   0.0000

          k = 0.0000 0.2500 0.2500 (  3031 PWs)   bands (ev):

    -8.9456  -4.9127  -4.0485  -1.0660   0.1261   2.0974   2.1434   4.2128
     4.8508   5.0416   5.4766   7.1320   7.6010  10.8171  11.8824  13.4918
    17.1456  17.5231  18.4516

     occupation numbers 
     1.0000   1.0000   1.0000   1.0000   1.0000   1.0000   1.0000   1.0000
     1.0000   1.0000   1.0000   1.0000   1.0000   1.0000   1.0000   0.0000
     0.0000   0.0000   0.0000

          k = 0.0000 0.2500-0.5000 (  3016 PWs)   bands (ev):

    -7.8909  -6.5363  -3.8273  -1.4852   0.7995   1.5606   2.8472   3.2246
     4.8623   4.9680   6.3209   6.4150   8.7990   9.6347  11.9622  12.1700
    18.0516  18.7264  19.7434

     occupation numbers 
     1.0000   1.0000   1.0000   1.0000   1.0000   1.0000   1.0000   1.0000
     1.0000   1.0000   1.0000   1.0000   1.0000   1.0000   1.0000   1.0000
     0.0000   0.0000   0.0000

          k = 0.0000-0.5000-0.5000 (  3048 PWs)   bands (ev):

    -6.5773  -5.9780  -5.9778  -2.6411   2.0877   2.4865   2.4866   2.6236
     4.0467   4.0471   7.5043   7.8292   8.0668   8.9511  12.5908  12.5912
    18.9443  18.9444  20.5824

     occupation numbers 
     1.0000   1.0000   1.0000   1.0000   1.0000   1.0000   1.0000   1.0000
     1.0000   1.0000   1.0000   1.0000   1.0000   1.0000   0.9365   0.9360
     0.0000   0.0000   0.0000

          k = 0.2500 0.2500 0.2500 (  3058 PWs)   bands (ev):

    -8.4283  -4.5548  -4.5546  -2.4705   0.7771   0.7772   2.5531   4.0439
     4.0440   5.8483   7.3389   7.3427   7.3431   9.7761  13.0700  13.0700
    17.3808  17.3811  18.3297

     occupation numbers 
     1.0000   1.0000   1.0000   1.0000   1.0000   1.0000   1.0000   1.0000
     1.0000   1.0000   1.0000   1.0000   1.0000   1.0000   0.0003   0.0003
     0.0000   0.0000   0.0000

          k = 0.2500 0.2500-0.5000 (  3050 PWs)   bands (ev):

    -7.3626  -6.1515  -4.0610  -2.1988  -0.4407   0.2561   1.9368   4.3014
     6.2035   6.3297   6.5622   6.7501   7.1707  11.1623  12.2905  12.7161
    18.1362  19.4184  19.4962

     occupation numbers 
     1.0000   1.0000   1.0000   1.0000   1.0000   1.0000   1.0000   1.0000
     1.0000   1.0000   1.0000   1.0000   1.0000   1.0000   1.0000   0.5885
     0.0000   0.0000   0.0000

          k = 0.2500-0.5000-0.5000 (  3060 PWs)   bands (ev):

    -6.0677  -5.6029  -5.6027  -2.6438  -0.7197   0.1136   0.1137   5.3570
     5.9333   6.5043   6.5045   7.6237   7.8796  11.8758  12.9323  12.9326
    19.1021  19.1021  19.9028

     occupation numbers 
     1.0000   1.0000   1.0000   1.0000   1.0000   1.0000   1.0000   1.0000
     1.0000   1.0000   1.0000   1.0000   1.0000   1.0000   0.0215   0.0214
     0.0000   0.0000   0.0000

          k =-0.5000-0.5000-0.5000 (  3112 PWs)   bands (ev):

    -5.0774  -5.0770  -5.0770  -3.6597  -1.3449  -1.3449  -1.3448   4.0215
     7.7647   7.7647   7.9147   7.9149   7.9149  13.3955  13.3957  13.3957
    19.1847  19.1848  19.1848

     occupation numbers 
     1.0000   1.0000   1.0000   1.0000   1.0000   1.0000   1.0000   1.0000
     1.0000   1.0000   1.0000   1.0000   1.0000   0.0000   0.0000   0.0000
     0.0000   0.0000   0.0000

          k = 0.2500 0.0000 0.2500 (  3031 PWs)   bands (ev):

    -8.9456  -4.9126  -4.0487  -1.0660   0.1259   2.0975   2.1436   4.2126
     4.8511   5.0418   5.4768   7.1317   7.6006  10.8172  11.8824  13.4920
    17.1455  17.5228  18.4520

     occupation numbers 
     1.0000   1.0000   1.0000   1.0000   1.0000   1.0000   1.0000   1.0000
     1.0000   1.0000   1.0000   1.0000   1.0000   1.0000   1.0000   0.0000
     0.0000   0.0000   0.0000

          k = 0.2500-0.2500 0.2500 (  3058 PWs)   bands (ev):

    -8.4283  -4.5545  -4.5545  -2.4710   0.7771   0.7771   2.5535   4.0443
     4.0443   5.8482   7.3386   7.3426   7.3426   9.7760  13.0701  13.0701
    17.3807  17.3807  18.3303

     occupation numbers 
     1.0000   1.0000   1.0000   1.0000   1.0000   1.0000   1.0000   1.0000
     1.0000   1.0000   1.0000   1.0000   1.0000   1.0000   0.0003   0.0003
     0.0000   0.0000   0.0000

          k = 0.2500-0.2500-0.5000 (  3050 PWs)   bands (ev):

    -7.3627  -6.1515  -4.0607  -2.1992  -0.4408   0.2562   1.9370   4.3018
     6.2034   6.3295   6.5623   6.7501   7.1704  11.1624  12.2904  12.7162
    18.1362  19.4181  19.4957

     occupation numbers 
     1.0000   1.0000   1.0000   1.0000   1.0000   1.0000   1.0000   1.0000
     1.0000   1.0000   1.0000   1.0000   1.0000   1.0000   1.0000   0.5883
     0.0000   0.0000   0.0000

     the Fermi energy is    12.7376 ev

!    total energy              =    -130.72426922 Ry
     total all-electron energy =      -535.072949 Ry
     estimated scf accuracy    <       0.00000003 Ry
     smearing contrib. (-TS)   =      -0.00217587 Ry
     internal energy E=F+TS    =    -130.72209335 Ry

     The total energy is F=E-TS. E is the sum of the following terms:
     one-electron contribution =      24.86853243 Ry
     hartree contribution      =       9.22939345 Ry
     xc contribution           =     -35.64755239 Ry
     ewald contribution        =     -83.32936423 Ry
     one-center paw contrib.   =     -45.84310261 Ry
      -> PAW hartree energy AE =       9.05942163 Ry
      -> PAW hartree energy PS =      -9.05011007 Ry
      -> PAW xc energy AE      =     -11.14694399 Ry
      -> PAW xc energy PS      =       4.58550985 Ry
      -> total E_H with PAW    =       9.23870501 Ry
      -> total E_XC with PAW   =     -42.20898653 Ry

     convergence has been achieved in   8 iterations


     -----------------------------------------------
     Non-local corr. energy    =       0.24699020 Ry
     -----------------------------------------------


     Forces acting on atoms (cartesian axes, Ry/au):

     atom    1 type  1   force =    -0.03803828    0.03803828    0.03783279
     atom    2 type  1   force =     0.00015427   -0.00005617    0.00005617
     atom    3 type  1   force =    -0.03803828   -0.03783279   -0.03803828
     atom    4 type  1   force =     0.00005617   -0.00015427    0.00005617
     atom    5 type  1   force =     0.03783279    0.03803828   -0.03803828
     atom    6 type  1   force =     0.00005617   -0.00005617    0.00015427
     atom    7 type  1   force =     0.03797716   -0.03797716    0.03797716
     The non-local contrib.  to forces
     atom    1 type  1   force =    -0.41559251    0.41559251    0.41538886
     atom    2 type  1   force =     0.00017305    0.00017163   -0.00017163
     atom    3 type  1   force =    -0.41559251   -0.41538886   -0.41559251
     atom    4 type  1   force =    -0.00017163   -0.00017305   -0.00017163
     atom    5 type  1   force =     0.41538886    0.41559251   -0.41559251
     atom    6 type  1   force =    -0.00017163    0.00017163    0.00017305
     atom    7 type  1   force =     0.41529832   -0.41529832    0.41529832
     The ionic contribution  to forces
     atom    1 type  1   force =     1.65620340   -1.65620354   -1.65614792
     atom    2 type  1   force =    -0.00021943   -0.00014587    0.00014590
     atom    3 type  1   force =     1.65620343    1.65614802    1.65620343
     atom    4 type  1   force =     0.00014590    0.00021946    0.00014590
     atom    5 type  1   force =    -1.65614792   -1.65620354    1.65620340
     atom    6 type  1   force =     0.00014590   -0.00014587   -0.00021943
     atom    7 type  1   force =    -1.65633127    1.65633133   -1.65633127
     The local contribution  to forces
     atom    1 type  1   force =    -1.28420240    1.28420240    1.28432434
     atom    2 type  1   force =     0.00003240   -0.00002215    0.00002234
     atom    3 type  1   force =    -1.28420238   -1.28432417   -1.28420238
     atom    4 type  1   force =     0.00002234   -0.00003226    0.00002234
     atom    5 type  1   force =     1.28432434    1.28420240   -1.28420240
     atom    6 type  1   force =     0.00002234   -0.00002215    0.00003240
     atom    7 type  1   force =     1.28463333   -1.28463318    1.28463333
     The core correction contribution to forces
     atom    1 type  1   force =     0.00547527   -0.00547527   -0.00587525
     atom    2 type  1   force =     0.00013229    0.00010056   -0.00010057
     atom    3 type  1   force =     0.00547527    0.00587524    0.00547527
     atom    4 type  1   force =    -0.00010057   -0.00013230   -0.00010057
     atom    5 type  1   force =    -0.00587525   -0.00547527    0.00547527
     atom    6 type  1   force =    -0.00010057    0.00010056    0.00013229
     atom    7 type  1   force =    -0.00573473    0.00573473   -0.00573473
     The Hubbard contrib.    to forces
     atom    1 type  1   force =     0.00000000    0.00000000    0.00000000
     atom    2 type  1   force =     0.00000000    0.00000000    0.00000000
     atom    3 type  1   force =     0.00000000    0.00000000    0.00000000
     atom    4 type  1   force =     0.00000000    0.00000000    0.00000000
     atom    5 type  1   force =     0.00000000    0.00000000    0.00000000
     atom    6 type  1   force =     0.00000000    0.00000000    0.00000000
     atom    7 type  1   force =     0.00000000    0.00000000    0.00000000
     The SCF correction term to forces
     atom    1 type  1   force =    -0.00002893    0.00002893    0.00003602
     atom    2 type  1   force =    -0.00007081   -0.00005338    0.00005338
     atom    3 type  1   force =    -0.00002893   -0.00003602   -0.00002893
     atom    4 type  1   force =     0.00005338    0.00007081    0.00005338
     atom    5 type  1   force =     0.00003602    0.00002893   -0.00002893
     atom    6 type  1   force =     0.00005338   -0.00005338   -0.00007081
     atom    7 type  1   force =     0.00000476   -0.00000476    0.00000476

     Total force =     0.131538     Total SCF correction =     0.000203


     Computing stress (Cartesian axis) and pressure



     -----------------------------------------------
     Non-local corr. energy    =       0.24699020 Ry
     -----------------------------------------------

          total   stress  (Ry/bohr**3)                   (kbar)     P=     1048.40
   0.00712685  -0.00000048   0.00000048         1048.40       -0.07        0.07
  -0.00000048   0.00712685  -0.00000048           -0.07     1048.40       -0.07
   0.00000048  -0.00000048   0.00712685            0.07       -0.07     1048.40

     kinetic stress (kbar)  17481.91     -0.08      0.08
                               -0.08  17481.91     -0.08
                                0.08     -0.08  17481.91

     local   stress (kbar)  -4223.99     -0.15      0.15
                               -0.15  -4223.99     -0.15
                                0.15     -0.15  -4223.99

     nonloc. stress (kbar)   4051.70      0.00     -0.00
                                0.00   4051.70      0.00
                               -0.00      0.00   4051.70

     hartree stress (kbar)   1471.09      0.05     -0.05
                                0.05   1471.09      0.05
                               -0.05      0.05   1471.09

     exc-cor stress (kbar)   -580.26     -0.00      0.00
                               -0.00   -580.26     -0.00
                                0.00     -0.00   -580.26

     corecor stress (kbar)  -3893.72     -0.03      0.03
                               -0.03  -3893.72     -0.03
                                0.03     -0.03  -3893.72

     ewald   stress (kbar) -13281.99      0.14     -0.14
                                0.14 -13281.99      0.14
                               -0.14      0.14 -13281.99

     hubbard stress (kbar)      0.00      0.00      0.00
                                0.00      0.00      0.00
                                0.00      0.00      0.00

     DFT-D   stress (kbar)      0.00      0.00      0.00
                                0.00      0.00      0.00
                                0.00      0.00      0.00

     XDM     stress (kbar)      0.00      0.00      0.00
                                0.00      0.00      0.00
                                0.00      0.00      0.00

     dft-nl  stress (kbar)     23.66     -0.00      0.00
                               -0.00     23.66     -0.00
                                0.00     -0.00     23.66

     TS-vdW  stress (kbar)      0.00      0.00      0.00
                                0.00      0.00      0.00
                                0.00      0.00      0.00

     MDB     stress (kbar)      0.00      0.00      0.00
                                0.00      0.00      0.00
                                0.00      0.00      0.00

     3D-RISM stress (kbar)      0.00      0.00      0.00
                                0.00      0.00      0.00
                                0.00      0.00      0.00


     BFGS Geometry Optimization
     Energy error            =      0.0E+00 Ry
     Gradient error          =      3.8E-02 Ry/Bohr

     number of scf cycles    =   1
     number of bfgs steps    =   0

     energy             new  =    -130.7242692174 Ry

     new trust radius        =       0.0657783732 bohr
     new conv_thr            =       0.0000001000 Ry


ATOMIC_POSITIONS (angstrom)
C            -0.0201289924        0.0201289924        1.8061716594
C             0.8931792937        0.8930679319        2.6792348865
C            -0.0201289924        1.7661311590       -0.0201289924
C             2.6792348865        2.6791235247        2.6792348865
C             1.8061716594        0.0201289924       -0.0201289924
C             2.6792348865        0.8930679319        0.8931792937
C             1.8062480576        1.7660547608        1.8062480576



     Writing config-only to output data dir ./diamond.save/
     NEW-OLD atomic charge density approx. for the potential

     Check: negative core charge=   -0.000014


     -----------------------------------------------
     Non-local corr. energy    =       0.24762096 Ry
     -----------------------------------------------


     total cpu time spent up to now is        5.8 secs

     Self-consistent Calculation

     iteration #  1     ecut=    70.00 Ry     beta= 0.70
     Davidson diagonalization with overlap

---- Real-time Memory Report at c_bands before calling an iterative solver
           228 MiB given to the printing process from OS
             0 MiB allocation reported by mallinfo(arena+hblkhd)
       1968538 MiB available memory on the node where the printing process lives
------------------
     ethr =  1.00E-06,  avg # of iterations =  9.3


     -----------------------------------------------
     Non-local corr. energy    =       0.24901868 Ry
     -----------------------------------------------


     total cpu time spent up to now is        6.3 secs

     total energy              =    -130.73500395 Ry
     estimated scf accuracy    <       0.00246727 Ry

     iteration #  2     ecut=    70.00 Ry     beta= 0.70
     Davidson diagonalization with overlap

---- Real-time Memory Report at c_bands before calling an iterative solver
           228 MiB given to the printing process from OS
             0 MiB allocation reported by mallinfo(arena+hblkhd)
       1968301 MiB available memory on the node where the printing process lives
------------------
     ethr =  8.22E-06,  avg # of iterations =  3.5


     -----------------------------------------------
     Non-local corr. energy    =       0.24893813 Ry
     -----------------------------------------------


     total cpu time spent up to now is        6.6 secs

     total energy              =    -130.73564573 Ry
     estimated scf accuracy    <       0.00033077 Ry

     iteration #  3     ecut=    70.00 Ry     beta= 0.70
     Davidson diagonalization with overlap

---- Real-time Memory Report at c_bands before calling an iterative solver
           228 MiB given to the printing process from OS
             0 MiB allocation reported by mallinfo(arena+hblkhd)
       1968935 MiB available memory on the node where the printing process lives
------------------
     ethr =  1.10E-06,  avg # of iterations =  2.9


     -----------------------------------------------
     Non-local corr. energy    =       0.24893571 Ry
     -----------------------------------------------


     total cpu time spent up to now is        6.9 secs

     total energy              =    -130.73572458 Ry
     estimated scf accuracy    <       0.00001361 Ry

     iteration #  4     ecut=    70.00 Ry     beta= 0.70
     Davidson diagonalization with overlap

---- Real-time Memory Report at c_bands before calling an iterative solver
           228 MiB given to the printing process from OS
             0 MiB allocation reported by mallinfo(arena+hblkhd)
       1968428 MiB available memory on the node where the printing process lives
------------------
     ethr =  4.54E-08,  avg # of iterations =  5.8


     -----------------------------------------------
     Non-local corr. energy    =       0.24893132 Ry
     -----------------------------------------------


     total cpu time spent up to now is        7.2 secs

     total energy              =    -130.73572506 Ry
     estimated scf accuracy    <       0.00002341 Ry

     iteration #  5     ecut=    70.00 Ry     beta= 0.70
     Davidson diagonalization with overlap

---- Real-time Memory Report at c_bands before calling an iterative solver
           228 MiB given to the printing process from OS
             0 MiB allocation reported by mallinfo(arena+hblkhd)
       1968328 MiB available memory on the node where the printing process lives
------------------
     c_bands:  1 eigenvalues not converged
     ethr =  4.54E-08,  avg # of iterations =  5.2


     -----------------------------------------------
     Non-local corr. energy    =       0.24892546 Ry
     -----------------------------------------------


     total cpu time spent up to now is        7.5 secs

     total energy              =    -130.73572958 Ry
     estimated scf accuracy    <       0.00000381 Ry

     iteration #  6     ecut=    70.00 Ry     beta= 0.70
     Davidson diagonalization with overlap

---- Real-time Memory Report at c_bands before calling an iterative solver
           228 MiB given to the printing process from OS
             0 MiB allocation reported by mallinfo(arena+hblkhd)
       1968909 MiB available memory on the node where the printing process lives
------------------
     ethr =  1.27E-08,  avg # of iterations =  2.8


     -----------------------------------------------
     Non-local corr. energy    =       0.24891864 Ry
     -----------------------------------------------


     total cpu time spent up to now is        7.8 secs

     End of self-consistent calculation

          k = 0.0000 0.0000 0.0000 (  2969 PWs)   bands (ev):

   -10.1302  -2.3790  -2.3790  -1.4665  -1.4665  -1.4665   4.3317   4.3317
     4.3324   4.9453   6.8581   6.8592   6.8592  14.0041  14.0046  14.0046
    15.6906  15.6906  15.6938

     occupation numbers 
     1.0000   1.0000   1.0000   1.0000   1.0000   1.0000   1.0000   1.0000
     1.0000   1.0000   1.0000   1.0000   1.0000   0.0000   0.0000   0.0000
     0.0000   0.0000   0.0000

          k = 0.0000 0.0000 0.2500 (  3042 PWs)   bands (ev):

    -9.6178  -5.0633  -2.1118  -1.1807  -1.1807   0.9635   3.5005   3.9252
     3.9256   5.5846   6.3857   6.4426   6.4432  12.6806  12.9874  12.9875
    15.7100  17.2739  17.7779

     occupation numbers 
     1.0000   1.0000   1.0000   1.0000   1.0000   1.0000   1.0000   1.0000
     1.0000   1.0000   1.0000   1.0000   1.0000   0.9206   0.0376   0.0375
     0.0000   0.0000   0.0000

          k = 0.0000 0.0000-0.5000 (  3026 PWs)   bands (ev):

    -8.6270  -6.9953  -1.7831  -0.8225  -0.8225   2.6925   3.2672   3.2950
     3.2953   3.3149   6.3636   6.3642   9.1819  10.1050  12.1298  12.1299
    15.9235  17.3434  20.9804

     occupation numbers 
     1.0000   1.0000   1.0000   1.0000   1.0000   1.0000   1.0000   1.0000
     1.0000   1.0000   1.0000   1.0000   1.0000   1.0000   1.0000   1.0000
     0.0000   0.0000   0.0000

          k = 0.0000 0.2500 0.2500 (  3031 PWs)   bands (ev):

    -9.1052  -5.0414  -4.1930  -1.1426  -0.0372   1.9700   2.0279   4.1190
     4.7024   4.8205   5.3646   6.9477   7.6204  10.9424  12.0431  13.4915
    17.1532  17.4550  18.3477

     occupation numbers 
     1.0000   1.0000   1.0000   1.0000   1.0000   1.0000   1.0000   1.0000
     1.0000   1.0000   1.0000   1.0000   1.0000   1.0000   1.0000   0.0000
     0.0000   0.0000   0.0000

          k = 0.0000 0.2500-0.5000 (  3016 PWs)   bands (ev):

    -8.0932  -6.6217  -4.0057  -1.4819   0.6102   1.3943   2.6880   3.1807
     4.6957   4.7745   5.9990   6.3909   9.1057   9.6116  12.0547  12.2428
    17.9290  18.9378  19.7964

     occupation numbers 
     1.0000   1.0000   1.0000   1.0000   1.0000   1.0000   1.0000   1.0000
     1.0000   1.0000   1.0000   1.0000   1.0000   1.0000   1.0000   1.0000
     0.0000   0.0000   0.0000

          k = 0.0000-0.5000-0.5000 (  3048 PWs)   bands (ev):

    -6.8381  -6.0999  -6.0999  -2.5617   1.7410   2.2792   2.4007   2.4016
     4.0199   4.0200   7.0881   7.7863   8.4504   9.0292  12.6138  12.6142
    18.8495  18.8504  20.8802

     occupation numbers 
     1.0000   1.0000   1.0000   1.0000   1.0000   1.0000   1.0000   1.0000
     1.0000   1.0000   1.0000   1.0000   1.0000   1.0000   0.9823   0.9821
     0.0000   0.0000   0.0000

          k = 0.2500 0.2500 0.2500 (  3058 PWs)   bands (ev):

    -8.5941  -4.6960  -4.6959  -2.6088   0.7278   0.7285   2.3858   3.8444
     3.8446   5.7533   7.1289   7.1302   7.5344   9.8507  13.1292  13.1293
    17.3979  17.3999  18.1959

     occupation numbers 
     1.0000   1.0000   1.0000   1.0000   1.0000   1.0000   1.0000   1.0000
     1.0000   1.0000   1.0000   1.0000   1.0000   1.0000   0.0006   0.0006
     0.0000   0.0000   0.0000

          k = 0.2500 0.2500-0.5000 (  3050 PWs)   bands (ev):

    -7.5671  -6.2521  -4.2280  -2.3606  -0.4508   0.1951   1.7840   4.0798
     5.9683   6.2337   6.4942   6.9353   6.9506  11.1784  12.3273  12.8347
    18.0222  19.5523  19.6335

     occupation numbers 
     1.0000   1.0000   1.0000   1.0000   1.0000   1.0000   1.0000   1.0000
     1.0000   1.0000   1.0000   1.0000   1.0000   1.0000   1.0000   0.4236
     0.0000   0.0000   0.0000

          k = 0.2500-0.5000-0.5000 (  3060 PWs)   bands (ev):

    -6.3166  -5.7375  -5.7374  -2.7043  -0.9342   0.0799   0.0803   5.5116
     5.7228   6.4344   6.4353   7.2124   7.8174  11.9666  12.9472  12.9475
    18.9937  18.9950  19.7864

     occupation numbers 
     1.0000   1.0000   1.0000   1.0000   1.0000   1.0000   1.0000   1.0000
     1.0000   1.0000   1.0000   1.0000   1.0000   1.0000   0.0867   0.0862
     0.0000   0.0000   0.0000

          k =-0.5000-0.5000-0.5000 (  3112 PWs)   bands (ev):

    -5.2387  -5.2387  -5.2385  -4.0435  -1.3440  -1.3435  -1.3435   4.3829
     7.3531   7.3531   7.8366   7.8366   7.8388  13.3916  13.3918  13.3918
    19.0361  19.0412  19.0412

     occupation numbers 
     1.0000   1.0000   1.0000   1.0000   1.0000   1.0000   1.0000   1.0000
     1.0000   1.0000   1.0000   1.0000   1.0000   0.0000   0.0000   0.0000
     0.0000   0.0000   0.0000

          k = 0.2500 0.0000 0.2500 (  3031 PWs)   bands (ev):

    -9.1052  -5.0415  -4.1929  -1.1424  -0.0375   1.9696   2.0288   4.1187
     4.7023   4.8197   5.3651   6.9483   7.6198  10.9423  12.0431  13.4921
    17.1541  17.4537  18.3496

     occupation numbers 
     1.0000   1.0000   1.0000   1.0000   1.0000   1.0000   1.0000   1.0000
     1.0000   1.0000   1.0000   1.0000   1.0000   1.0000   1.0000   0.0000
     0.0000   0.0000   0.0000

          k = 0.2500-0.2500 0.2500 (  3058 PWs)   bands (ev):

    -8.5941  -4.6960  -4.6960  -2.6088   0.7287   0.7287   2.3856   3.8435
     3.8435   5.7543   7.1297   7.1297   7.5338   9.8508  13.1293  13.1293
    17.3991  17.3991  18.1980

     occupation numbers 
     1.0000   1.0000   1.0000   1.0000   1.0000   1.0000   1.0000   1.0000
     1.0000   1.0000   1.0000   1.0000   1.0000   1.0000   0.0006   0.0006
     0.0000   0.0000   0.0000

          k = 0.2500-0.2500-0.5000 (  3050 PWs)   bands (ev):

    -7.5671  -6.2521  -4.2281  -2.3607  -0.4503   0.1952   1.7838   4.0791
     5.9679   6.2346   6.4934   6.9353   6.9513  11.1787  12.3271  12.8346
    18.0236  19.5533  19.6340

     occupation numbers 
     1.0000   1.0000   1.0000   1.0000   1.0000   1.0000   1.0000   1.0000
     1.0000   1.0000   1.0000   1.0000   1.0000   1.0000   1.0000   0.4241
     0.0000   0.0000   0.0000

     the Fermi energy is    12.8162 ev

!    total energy              =    -130.73573018 Ry
     total all-electron energy =      -535.084410 Ry
     estimated scf accuracy    <       0.00000002 Ry
     smearing contrib. (-TS)   =      -0.00193454 Ry
     internal energy E=F+TS    =    -130.73379564 Ry

     The total energy is F=E-TS. E is the sum of the following terms:
     one-electron contribution =      23.54586516 Ry
     hartree contribution      =       9.83283522 Ry
     xc contribution           =     -35.72237505 Ry
     ewald contribution        =     -82.55230120 Ry
     one-center paw contrib.   =     -45.83781977 Ry
      -> PAW hartree energy AE =       9.21603764 Ry
      -> PAW hartree energy PS =      -9.20674800 Ry
      -> PAW xc energy AE      =     -11.18443678 Ry
      -> PAW xc energy PS      =       4.62408919 Ry
      -> total E_H with PAW    =       9.84212486 Ry
      -> total E_XC with PAW   =     -42.28272265 Ry

     convergence has been achieved in   6 iterations


     -----------------------------------------------
     Non-local corr. energy    =       0.24891864 Ry
     -----------------------------------------------


     Forces acting on atoms (cartesian axes, Ry/au):

     atom    1 type  1   force =    -0.01194046    0.01194046    0.01214240
     atom    2 type  1   force =    -0.00009234    0.00004671   -0.00004671
     atom    3 type  1   force =    -0.01194046   -0.01214240   -0.01194046
     atom    4 type  1   force =    -0.00004671    0.00009234   -0.00004671
     atom    5 type  1   force =     0.01214240    0.01194046   -0.01194046
     atom    6 type  1   force =    -0.00004671    0.00004671   -0.00009234
     atom    7 type  1   force =     0.01192429   -0.01192429    0.01192429
     The non-local contrib.  to forces
     atom    1 type  1   force =    -0.37481064    0.37481064    0.37466740
     atom    2 type  1   force =    -0.00013022    0.00021536   -0.00021536
     atom    3 type  1   force =    -0.37481064   -0.37466740   -0.37481064
     atom    4 type  1   force =    -0.00021536    0.00013022   -0.00021536
     atom    5 type  1   force =     0.37466740    0.37481064   -0.37481064
     atom    6 type  1   force =    -0.00021536    0.00021536   -0.00013022
     atom    7 type  1   force =     0.37452446   -0.37452446    0.37452446
     The ionic contribution  to forces
     atom    1 type  1   force =     1.75378778   -1.75378792   -1.75253079
     atom    2 type  1   force =    -0.00121055   -0.00002778    0.00002781
     atom    3 type  1   force =     1.75378782    1.75253089    1.75378782
     atom    4 type  1   force =     0.00002781    0.00121059    0.00002781
     atom    5 type  1   force =    -1.75253079   -1.75378792    1.75378778
     atom    6 type  1   force =     0.00002781   -0.00002778   -0.00121055
     atom    7 type  1   force =    -1.75388988    1.75388994   -1.75388988
     The local contribution  to forces
     atom    1 type  1   force =    -1.39590139    1.39590139    1.39504860
     atom    2 type  1   force =     0.00105505   -0.00018090    0.00018109
     atom    3 type  1   force =    -1.39590137   -1.39504843   -1.39590137
     atom    4 type  1   force =     0.00018109   -0.00105493    0.00018109
     atom    5 type  1   force =     1.39504860    1.39590139   -1.39590139
     atom    6 type  1   force =     0.00018109   -0.00018090    0.00105505
     atom    7 type  1   force =     1.39636446   -1.39636432    1.39636446
     The core correction contribution to forces
     atom    1 type  1   force =     0.00488551   -0.00488551   -0.00504798
     atom    2 type  1   force =     0.00014282    0.00009163   -0.00009164
     atom    3 type  1   force =     0.00488551    0.00504797    0.00488551
     atom    4 type  1   force =    -0.00009164   -0.00014283   -0.00009164
     atom    5 type  1   force =    -0.00504798   -0.00488551    0.00488551
     atom    6 type  1   force =    -0.00009164    0.00009163    0.00014282
     atom    7 type  1   force =    -0.00509357    0.00509356   -0.00509357
     The Hubbard contrib.    to forces
     atom    1 type  1   force =     0.00000000    0.00000000    0.00000000
     atom    2 type  1   force =     0.00000000    0.00000000    0.00000000
     atom    3 type  1   force =     0.00000000    0.00000000    0.00000000
     atom    4 type  1   force =     0.00000000    0.00000000    0.00000000
     atom    5 type  1   force =     0.00000000    0.00000000    0.00000000
     atom    6 type  1   force =     0.00000000    0.00000000    0.00000000
     atom    7 type  1   force =     0.00000000    0.00000000    0.00000000
     The SCF correction term to forces
     atom    1 type  1   force =     0.00004767   -0.00004767   -0.00004528
     atom    2 type  1   force =     0.00000007   -0.00000092    0.00000092
     atom    3 type  1   force =     0.00004767    0.00004528    0.00004767
     atom    4 type  1   force =     0.00000092   -0.00000007    0.00000092
     atom    5 type  1   force =    -0.00004528   -0.00004767    0.00004767
     atom    6 type  1   force =     0.00000092   -0.00000092    0.00000007
     atom    7 type  1   force =    -0.00003166    0.00003166   -0.00003166

     Total force =     0.041525     Total SCF correction =     0.000151


     Computing stress (Cartesian axis) and pressure



     -----------------------------------------------
     Non-local corr. energy    =       0.24891864 Ry
     -----------------------------------------------

          total   stress  (Ry/bohr**3)                   (kbar)     P=     1078.64
   0.00733241  -0.00000068   0.00000068         1078.64       -0.10        0.10
  -0.00000068   0.00733241  -0.00000068           -0.10     1078.64       -0.10
   0.00000068  -0.00000068   0.00733241            0.10       -0.10     1078.64

     kinetic stress (kbar)  17578.18      0.15     -0.15
                                0.15  17578.18      0.15
                               -0.15      0.15  17578.18

     local   stress (kbar)  -4463.60      1.65     -1.65
                                1.65  -4463.60      1.65
                               -1.65      1.65  -4463.60

     nonloc. stress (kbar)   4018.66     -0.03      0.03
                               -0.03   4018.66     -0.03
                                0.03     -0.03   4018.66

     hartree stress (kbar)   1567.27     -0.26      0.26
                               -0.26   1567.27     -0.26
                                0.26     -0.26   1567.27

     exc-cor stress (kbar)   -590.79      0.04     -0.04
                                0.04   -590.79      0.04
                               -0.04      0.04   -590.79

     corecor stress (kbar)  -3897.22     -0.06      0.06
                               -0.06  -3897.22     -0.06
                                0.06     -0.06  -3897.22

     ewald   stress (kbar) -13158.13     -1.59      1.59
                               -1.59 -13158.13     -1.59
                                1.59     -1.59 -13158.13

     hubbard stress (kbar)      0.00      0.00      0.00
                                0.00      0.00      0.00
                                0.00      0.00      0.00

     DFT-D   stress (kbar)      0.00      0.00      0.00
                                0.00      0.00      0.00
                                0.00      0.00      0.00

     XDM     stress (kbar)      0.00      0.00      0.00
                                0.00      0.00      0.00
                                0.00      0.00      0.00

     dft-nl  stress (kbar)     24.25      0.00     -0.00
                                0.00     24.25      0.00
                               -0.00      0.00     24.25

     TS-vdW  stress (kbar)      0.00      0.00      0.00
                                0.00      0.00      0.00
                                0.00      0.00      0.00

     MDB     stress (kbar)      0.00      0.00      0.00
                                0.00      0.00      0.00
                                0.00      0.00      0.00

     3D-RISM stress (kbar)      0.00      0.00      0.00
                                0.00      0.00      0.00
                                0.00      0.00      0.00

     Energy error            =      1.1E-02 Ry
     Gradient error          =      1.2E-02 Ry/Bohr

     number of scf cycles    =   2
     number of bfgs steps    =   1

     energy             old  =    -130.7242692174 Ry
     energy             new  =    -130.7357301759 Ry

     CASE: energy            _new < energy            _old

     new trust radius        =       0.0303947730 bohr
     new conv_thr            =       0.0000000121 Ry


ATOMIC_POSITIONS (angstrom)
C            -0.0293628797        0.0293628797        1.8155616979
C             0.8931078936        0.8931040528        2.6791987656
C            -0.0293628797        1.7567411205       -0.0293628797
C             2.6791987656        2.6791949248        2.6791987656
C             1.8155616979        0.0293628797       -0.0293628797
C             2.6791987656        0.8931040528        0.8931078936
C             1.8154694356        1.7568333828        1.8154694356



     Writing config-only to output data dir ./diamond.save/
     NEW-OLD atomic charge density approx. for the potential

     Check: negative core charge=   -0.000014


     -----------------------------------------------
     Non-local corr. energy    =       0.24919082 Ry
     -----------------------------------------------


     total cpu time spent up to now is        8.3 secs

     Self-consistent Calculation

     iteration #  1     ecut=    70.00 Ry     beta= 0.70
     Davidson diagonalization with overlap

---- Real-time Memory Report at c_bands before calling an iterative solver
           228 MiB given to the printing process from OS
             0 MiB allocation reported by mallinfo(arena+hblkhd)
       1968280 MiB available memory on the node where the printing process lives
------------------
     ethr =  1.00E-06,  avg # of iterations =  8.1


     -----------------------------------------------
     Non-local corr. energy    =       0.24977721 Ry
     -----------------------------------------------


     total cpu time spent up to now is        8.7 secs

     total energy              =    -130.73675722 Ry
     estimated scf accuracy    <       0.00056607 Ry

     iteration #  2     ecut=    70.00 Ry     beta= 0.70
     Davidson diagonalization with overlap

---- Real-time Memory Report at c_bands before calling an iterative solver
           228 MiB given to the printing process from OS
             0 MiB allocation reported by mallinfo(arena+hblkhd)
       1968980 MiB available memory on the node where the printing process lives
------------------
     ethr =  1.89E-06,  avg # of iterations =  3.4


     -----------------------------------------------
     Non-local corr. energy    =       0.24972932 Ry
     -----------------------------------------------


     total cpu time spent up to now is        9.0 secs

     total energy              =    -130.73690946 Ry
     estimated scf accuracy    <       0.00008580 Ry

     iteration #  3     ecut=    70.00 Ry     beta= 0.70
     Davidson diagonalization with overlap

---- Real-time Memory Report at c_bands before calling an iterative solver
           228 MiB given to the printing process from OS
             0 MiB allocation reported by mallinfo(arena+hblkhd)
       1968444 MiB available memory on the node where the printing process lives
------------------
     ethr =  2.86E-07,  avg # of iterations =  2.8


     -----------------------------------------------
     Non-local corr. energy    =       0.24972662 Ry
     -----------------------------------------------


     total cpu time spent up to now is        9.3 secs

     total energy              =    -130.73692995 Ry
     estimated scf accuracy    <       0.00000275 Ry

     iteration #  4     ecut=    70.00 Ry     beta= 0.70
     Davidson diagonalization with overlap

---- Real-time Memory Report at c_bands before calling an iterative solver
           228 MiB given to the printing process from OS
             0 MiB allocation reported by mallinfo(arena+hblkhd)
       1968376 MiB available memory on the node where the printing process lives
------------------
     ethr =  9.15E-09,  avg # of iterations =  4.6


     -----------------------------------------------
     Non-local corr. energy    =       0.24972445 Ry
     -----------------------------------------------


     total cpu time spent up to now is        9.6 secs

     total energy              =    -130.73693015 Ry
     estimated scf accuracy    <       0.00000343 Ry

     iteration #  5     ecut=    70.00 Ry     beta= 0.70
     Davidson diagonalization with overlap

---- Real-time Memory Report at c_bands before calling an iterative solver
           228 MiB given to the printing process from OS
             0 MiB allocation reported by mallinfo(arena+hblkhd)
       1968361 MiB available memory on the node where the printing process lives
------------------
     ethr =  9.15E-09,  avg # of iterations =  3.8


     -----------------------------------------------
     Non-local corr. energy    =       0.24972262 Ry
     -----------------------------------------------


     total cpu time spent up to now is        9.8 secs

     total energy              =    -130.73693081 Ry
     estimated scf accuracy    <       0.00000107 Ry

     iteration #  6     ecut=    70.00 Ry     beta= 0.70
     Davidson diagonalization with overlap

---- Real-time Memory Report at c_bands before calling an iterative solver
           228 MiB given to the printing process from OS
             0 MiB allocation reported by mallinfo(arena+hblkhd)
       1968359 MiB available memory on the node where the printing process lives
------------------
     ethr =  3.56E-09,  avg # of iterations =  2.5


     -----------------------------------------------
     Non-local corr. energy    =       0.24971963 Ry
     -----------------------------------------------


     total cpu time spent up to now is       10.1 secs

     End of self-consistent calculation

          k = 0.0000 0.0000 0.0000 (  2969 PWs)   bands (ev):

   -10.1977  -2.4537  -2.4537  -1.5207  -1.5205  -1.5205   4.2922   4.2927
     4.2927   4.9694   6.7516   6.7516   6.7523  14.0024  14.0024  14.0026
    15.6420  15.6420  15.6428

     occupation numbers 
     1.0000   1.0000   1.0000   1.0000   1.0000   1.0000   1.0000   1.0000
     1.0000   1.0000   1.0000   1.0000   1.0000   0.0000   0.0000   0.0000
     0.0000   0.0000   0.0000

          k = 0.0000 0.0000 0.2500 (  3042 PWs)   bands (ev):

    -9.6893  -5.1185  -2.1936  -1.2338  -1.2336   0.8942   3.4803   3.8733
     3.8737   5.5056   6.3422   6.3426   6.4061  12.6832  13.0441  13.0444
    15.6770  17.3608  17.7070

     occupation numbers 
     1.0000   1.0000   1.0000   1.0000   1.0000   1.0000   1.0000   1.0000
     1.0000   1.0000   1.0000   1.0000   1.0000   0.9644   0.0258   0.0256
     0.0000   0.0000   0.0000

          k = 0.0000 0.0000-0.5000 (  3026 PWs)   bands (ev):

    -8.7187  -7.0279  -1.8761  -0.8736  -0.8734   2.6919   3.1152   3.2310
     3.2315   3.3243   6.2637   6.2639   9.3006  10.0221  12.2182  12.2184
    15.8781  17.4619  20.8918

     occupation numbers 
     1.0000   1.0000   1.0000   1.0000   1.0000   1.0000   1.0000   1.0000
     1.0000   1.0000   1.0000   1.0000   1.0000   1.0000   1.0000   1.0000
     0.0000   0.0000   0.0000

          k = 0.0000 0.2500 0.2500 (  3031 PWs)   bands (ev):

    -9.1801  -5.0996  -4.2593  -1.1776  -0.1143   1.9118   1.9777   4.0758
     4.6387   4.7164   5.3136   6.8692   7.6229  11.0070  12.1203  13.4998
    17.1434  17.4081  18.2987

     occupation numbers 
     1.0000   1.0000   1.0000   1.0000   1.0000   1.0000   1.0000   1.0000
     1.0000   1.0000   1.0000   1.0000   1.0000   1.0000   1.0000   0.0000
     0.0000   0.0000   0.0000

          k = 0.0000 0.2500-0.5000 (  3016 PWs)   bands (ev):

    -8.1871  -6.6614  -4.0860  -1.4801   0.5208   1.3160   2.6174   3.1609
     4.6212   4.6931   5.8558   6.3829   9.2492   9.5903  12.1019  12.2836
    17.8671  19.0273  19.8088

     occupation numbers 
     1.0000   1.0000   1.0000   1.0000   1.0000   1.0000   1.0000   1.0000
     1.0000   1.0000   1.0000   1.0000   1.0000   1.0000   1.0000   1.0000
     0.0000   0.0000   0.0000

          k = 0.0000-0.5000-0.5000 (  3048 PWs)   bands (ev):

    -6.9585  -6.1550  -6.1550  -2.5256   1.5817   2.1202   2.3664   2.3664
     4.0116   4.0121   6.8966   7.7718   8.6259   9.0581  12.6299  12.6300
    18.8048  18.8051  20.8272

     occupation numbers 
     1.0000   1.0000   1.0000   1.0000   1.0000   1.0000   1.0000   1.0000
     1.0000   1.0000   1.0000   1.0000   1.0000   1.0000   0.9908   0.9908
     0.0000   0.0000   0.0000

          k = 0.2500 0.2500 0.2500 (  3058 PWs)   bands (ev):

    -8.6719  -4.7598  -4.7598  -2.6765   0.7096   0.7098   2.3103   3.7487
     3.7487   5.7171   7.0380   7.0387   7.6112   9.8912  13.1626  13.1627
    17.3951  17.3953  18.1329

     occupation numbers 
     1.0000   1.0000   1.0000   1.0000   1.0000   1.0000   1.0000   1.0000
     1.0000   1.0000   1.0000   1.0000   1.0000   1.0000   0.0007   0.0007
     0.0000   0.0000   0.0000

          k = 0.2500 0.2500-0.5000 (  3050 PWs)   bands (ev):

    -7.6622  -6.2984  -4.3032  -2.4399  -0.4518   0.1691   1.7208   3.9729
     5.8134   6.1947   6.4807   6.8619   7.0437  11.1860  12.3498  12.8930
    17.9670  19.5610  19.6830

     occupation numbers 
     1.0000   1.0000   1.0000   1.0000   1.0000   1.0000   1.0000   1.0000
     1.0000   1.0000   1.0000   1.0000   1.0000   1.0000   1.0000   0.3536
     0.0000   0.0000   0.0000

          k = 0.2500-0.5000-0.5000 (  3060 PWs)   bands (ev):

    -6.4320  -5.7982  -5.7982  -2.7439  -1.0199   0.0679   0.0681   5.3510
     5.8495   6.4088   6.4093   7.0215   7.7957  12.0085  12.9600  12.9600
    18.9431  18.9432  19.7275

     occupation numbers 
     1.0000   1.0000   1.0000   1.0000   1.0000   1.0000   1.0000   1.0000
     1.0000   1.0000   1.0000   1.0000   1.0000   1.0000   0.1419   0.1417
     0.0000   0.0000   0.0000

          k =-0.5000-0.5000-0.5000 (  3112 PWs)   bands (ev):

    -5.3113  -5.3112  -5.3112  -4.2228  -1.3407  -1.3407  -1.3404   4.5414
     7.1617   7.1617   7.8084   7.8092   7.8092  13.3967  13.3967  13.3967
    18.9733  18.9733  18.9738

     occupation numbers 
     1.0000   1.0000   1.0000   1.0000   1.0000   1.0000   1.0000   1.0000
     1.0000   1.0000   1.0000   1.0000   1.0000   0.0000   0.0000   0.0000
     0.0000   0.0000   0.0000

          k = 0.2500 0.0000 0.2500 (  3031 PWs)   bands (ev):

    -9.1801  -5.0996  -4.2593  -1.1776  -0.1142   1.9120   1.9777   4.0755
     4.6388   4.7169   5.3138   6.8687   7.6227  11.0071  12.1203  13.4997
    17.1435  17.4078  18.2990

     occupation numbers 
     1.0000   1.0000   1.0000   1.0000   1.0000   1.0000   1.0000   1.0000
     1.0000   1.0000   1.0000   1.0000   1.0000   1.0000   1.0000   0.0000
     0.0000   0.0000   0.0000

          k = 0.2500-0.2500 0.2500 (  3058 PWs)   bands (ev):

    -8.6719  -4.7598  -4.7598  -2.6766   0.7095   0.7095   2.3107   3.7491
     3.7491   5.7166   7.0381   7.0381   7.6111   9.8913  13.1626  13.1626
    17.3949  17.3949  18.1340

     occupation numbers 
     1.0000   1.0000   1.0000   1.0000   1.0000   1.0000   1.0000   1.0000
     1.0000   1.0000   1.0000   1.0000   1.0000   1.0000   0.0007   0.0007
     0.0000   0.0000   0.0000

          k = 0.2500-0.2500-0.5000 (  3050 PWs)   bands (ev):

    -7.6622  -6.2984  -4.3032  -2.4400  -0.4521   0.1692   1.7210   3.9732
     5.8136   6.1942   6.4807   6.8616   7.0438  11.1862  12.3496  12.8928
    17.9669  19.5604  19.6834

     occupation numbers 
     1.0000   1.0000   1.0000   1.0000   1.0000   1.0000   1.0000   1.0000
     1.0000   1.0000   1.0000   1.0000   1.0000   1.0000   1.0000   0.3542
     0.0000   0.0000   0.0000

     the Fermi energy is    12.8568 ev

!    total energy              =    -130.73693098 Ry
     total all-electron energy =      -535.085611 Ry
     estimated scf accuracy    <          5.3E-09 Ry
     smearing contrib. (-TS)   =      -0.00188570 Ry
     internal energy E=F+TS    =    -130.73504527 Ry

     The total energy is F=E-TS. E is the sum of the following terms:
     one-electron contribution =      22.91115447 Ry
     hartree contribution      =      10.12457062 Ry
     xc contribution           =     -35.75616473 Ry
     ewald contribution        =     -82.17916055 Ry
     one-center paw contrib.   =     -45.83544508 Ry
      -> PAW hartree energy AE =       9.28602508 Ry
      -> PAW hartree energy PS =      -9.27674506 Ry
      -> PAW xc energy AE      =     -11.20112740 Ry
      -> PAW xc energy PS      =       4.64126717 Ry
      -> total E_H with PAW    =      10.13385065 Ry
      -> total E_XC with PAW   =     -42.31602496 Ry

     convergence has been achieved in   6 iterations


     -----------------------------------------------
     Non-local corr. energy    =       0.24971963 Ry
     -----------------------------------------------


     Forces acting on atoms (cartesian axes, Ry/au):

     atom    1 type  1   force =     0.00066056   -0.00066056   -0.00065743
     atom    2 type  1   force =     0.00001017    0.00005719   -0.00005719
     atom    3 type  1   force =     0.00066056    0.00065743    0.00066056
     atom    4 type  1   force =    -0.00005719   -0.00001017   -0.00005719
     atom    5 type  1   force =    -0.00065743   -0.00066056    0.00066056
     atom    6 type  1   force =    -0.00005719    0.00005719    0.00001017
     atom    7 type  1   force =    -0.00055948    0.00055948   -0.00055948
     The non-local contrib.  to forces
     atom    1 type  1   force =    -0.35393914    0.35393914    0.35378577
     atom    2 type  1   force =     0.00011591    0.00014967   -0.00014967
     atom    3 type  1   force =    -0.35393914   -0.35378577   -0.35393914
     atom    4 type  1   force =    -0.00014967   -0.00011591   -0.00014967
     atom    5 type  1   force =     0.35378577    0.35393914   -0.35393914
     atom    6 type  1   force =    -0.00014967    0.00014967    0.00011591
     atom    7 type  1   force =     0.35361789   -0.35361789    0.35361789
     The ionic contribution  to forces
     atom    1 type  1   force =     1.79641665   -1.79641679   -1.79659176
     atom    2 type  1   force =     0.00006669   -0.00019278    0.00019280
     atom    3 type  1   force =     1.79641669    1.79659186    1.79641669
     atom    4 type  1   force =     0.00019280   -0.00006665    0.00019280
     atom    5 type  1   force =    -1.79659176   -1.79641679    1.79641665
     atom    6 type  1   force =     0.00019280   -0.00019278    0.00006669
     atom    7 type  1   force =    -1.79669387    1.79669393   -1.79669387
     The local contribution  to forces
     atom    1 type  1   force =    -1.44654539    1.44654539    1.44683945
     atom    2 type  1   force =    -0.00029276   -0.00003435    0.00003454
     atom    3 type  1   force =    -1.44654536   -1.44683927   -1.44654536
     atom    4 type  1   force =     0.00003454    0.00029288    0.00003454
     atom    5 type  1   force =     1.44683945    1.44654539   -1.44654539
     atom    6 type  1   force =     0.00003454   -0.00003435   -0.00029276
     atom    7 type  1   force =     1.44720239   -1.44720225    1.44720239
     The core correction contribution to forces
     atom    1 type  1   force =     0.00474142   -0.00474142   -0.00463757
     atom    2 type  1   force =     0.00013754    0.00008710   -0.00008711
     atom    3 type  1   force =     0.00474142    0.00463756    0.00474142
     atom    4 type  1   force =    -0.00008711   -0.00013755   -0.00008711
     atom    5 type  1   force =    -0.00463757   -0.00474142    0.00474142
     atom    6 type  1   force =    -0.00008711    0.00008710    0.00013754
     atom    7 type  1   force =    -0.00462496    0.00462495   -0.00462496
     The Hubbard contrib.    to forces
     atom    1 type  1   force =     0.00000000    0.00000000    0.00000000
     atom    2 type  1   force =     0.00000000    0.00000000    0.00000000
     atom    3 type  1   force =     0.00000000    0.00000000    0.00000000
     atom    4 type  1   force =     0.00000000    0.00000000    0.00000000
     atom    5 type  1   force =     0.00000000    0.00000000    0.00000000
     atom    6 type  1   force =     0.00000000    0.00000000    0.00000000
     atom    7 type  1   force =     0.00000000    0.00000000    0.00000000
     The SCF correction term to forces
     atom    1 type  1   force =     0.00001966   -0.00001966   -0.00002051
     atom    2 type  1   force =     0.00001556    0.00001496   -0.00001496
     atom    3 type  1   force =     0.00001966    0.00002051    0.00001966
     atom    4 type  1   force =    -0.00001496   -0.00001556   -0.00001496
     atom    5 type  1   force =    -0.00002051   -0.00001966    0.00001966
     atom    6 type  1   force =    -0.00001496    0.00001496    0.00001556
     atom    7 type  1   force =    -0.00002815    0.00002815   -0.00002815

     Total force =     0.002208     Total SCF correction =     0.000090


     Computing stress (Cartesian axis) and pressure



     -----------------------------------------------
     Non-local corr. energy    =       0.24971963 Ry
     -----------------------------------------------

          total   stress  (Ry/bohr**3)                   (kbar)     P=     1093.55
   0.00743381   0.00000008  -0.00000008         1093.55        0.01       -0.01
   0.00000008   0.00743381   0.00000008            0.01     1093.55        0.01
  -0.00000008   0.00000008   0.00743381           -0.01        0.01     1093.55

     kinetic stress (kbar)  17622.66      0.04     -0.04
                                0.04  17622.66      0.04
                               -0.04      0.04  17622.66

     local   stress (kbar)  -4578.26     -0.42      0.42
                               -0.42  -4578.26     -0.42
                                0.42     -0.42  -4578.26

     nonloc. stress (kbar)   4003.85      0.02     -0.02
                                0.02   4003.85      0.02
                               -0.02      0.02   4003.85

     hartree stress (kbar)   1613.77      0.06     -0.06
                                0.06   1613.77      0.06
                               -0.06      0.06   1613.77

     exc-cor stress (kbar)   -595.49      0.03     -0.03
                                0.03   -595.49      0.03
                               -0.03      0.03   -595.49

     corecor stress (kbar)  -3898.85     -0.06      0.06
                               -0.06  -3898.85     -0.06
                                0.06     -0.06  -3898.85

     ewald   stress (kbar) -13098.66      0.34     -0.34
                                0.34 -13098.66      0.34
                               -0.34      0.34 -13098.66

     hubbard stress (kbar)      0.00      0.00      0.00
                                0.00      0.00      0.00
                                0.00      0.00      0.00

     DFT-D   stress (kbar)      0.00      0.00      0.00
                                0.00      0.00      0.00
                                0.00      0.00      0.00

     XDM     stress (kbar)      0.00      0.00      0.00
                                0.00      0.00      0.00
                                0.00      0.00      0.00

     dft-nl  stress (kbar)     24.52     -0.00      0.00
                               -0.00     24.52     -0.00
                                0.00     -0.00     24.52

     TS-vdW  stress (kbar)      0.00      0.00      0.00
                                0.00      0.00      0.00
                                0.00      0.00      0.00

     MDB     stress (kbar)      0.00      0.00      0.00
                                0.00      0.00      0.00
                                0.00      0.00      0.00

     3D-RISM stress (kbar)      0.00      0.00      0.00
                                0.00      0.00      0.00
                                0.00      0.00      0.00

     Energy error            =      1.2E-03 Ry
     Gradient error          =      6.6E-04 Ry/Bohr

     number of scf cycles    =   3
     number of bfgs steps    =   2

     energy             old  =    -130.7357301759 Ry
     energy             new  =    -130.7369309788 Ry

     CASE: energy            _new < energy            _old

     new trust radius        =       0.0015668084 bohr
     new conv_thr            =       0.0000000010 Ry


ATOMIC_POSITIONS (angstrom)
C            -0.0288844884        0.0288844884        1.8150824042
C             0.8931141354        0.8931322200        2.6791705984
C            -0.0288844884        1.7572204142       -0.0288844884
C             2.6791705984        2.6791886830        2.6791705984
C             1.8150824042        0.0288844884       -0.0288844884
C             2.6791705984        0.8931322200        0.8931141354
C             1.8150420395        1.7572607789        1.8150420395



     Writing config-only to output data dir ./diamond.save/
     NEW-OLD atomic charge density approx. for the potential

     Check: negative core charge=   -0.000014


     -----------------------------------------------
     Non-local corr. energy    =       0.24970609 Ry
     -----------------------------------------------


     total cpu time spent up to now is       10.6 secs

     Self-consistent Calculation

     iteration #  1     ecut=    70.00 Ry     beta= 0.70
     Davidson diagonalization with overlap

---- Real-time Memory Report at c_bands before calling an iterative solver
           228 MiB given to the printing process from OS
             0 MiB allocation reported by mallinfo(arena+hblkhd)
       1968586 MiB available memory on the node where the printing process lives
------------------
     ethr =  1.00E-06,  avg # of iterations =  2.3

     Threshold (ethr) on eigenvalues was too large:
     Diagonalizing with lowered threshold

     Davidson diagonalization with overlap

---- Real-time Memory Report at c_bands before calling an iterative solver
           228 MiB given to the printing process from OS
             0 MiB allocation reported by mallinfo(arena+hblkhd)
       1968396 MiB available memory on the node where the printing process lives
------------------
     ethr =  4.66E-09,  avg # of iterations =  5.5


     -----------------------------------------------
     Non-local corr. energy    =       0.24967824 Ry
     -----------------------------------------------


     total cpu time spent up to now is       11.1 secs

     total energy              =    -130.73693376 Ry
     estimated scf accuracy    <       0.00000157 Ry

     iteration #  2     ecut=    70.00 Ry     beta= 0.70
     Davidson diagonalization with overlap

---- Real-time Memory Report at c_bands before calling an iterative solver
           228 MiB given to the printing process from OS
             0 MiB allocation reported by mallinfo(arena+hblkhd)
       1968368 MiB available memory on the node where the printing process lives
------------------
     ethr =  5.25E-09,  avg # of iterations =  3.5


     -----------------------------------------------
     Non-local corr. energy    =       0.24968081 Ry
     -----------------------------------------------


     total cpu time spent up to now is       11.4 secs

     total energy              =    -130.73693414 Ry
     estimated scf accuracy    <       0.00000038 Ry

     iteration #  3     ecut=    70.00 Ry     beta= 0.70
[...]
     Non-local corr. energy    =       0.24968113 Ry
     -----------------------------------------------


     total cpu time spent up to now is       11.9 secs

     total energy              =    -130.73693425 Ry
     estimated scf accuracy    <          6.6E-09 Ry

     iteration #  5     ecut=    70.00 Ry     beta= 0.70
     Davidson diagonalization with overlap

---- Real-time Memory Report at c_bands before calling an iterative solver
           228 MiB given to the printing process from OS
             0 MiB allocation reported by mallinfo(arena+hblkhd)
       1968591 MiB available memory on the node where the printing process lives
------------------
     ethr =  2.20E-11,  avg # of iterations =  5.8


     -----------------------------------------------
     Non-local corr. energy    =       0.24968155 Ry
     -----------------------------------------------


     total cpu time spent up to now is       12.2 secs

     End of self-consistent calculation

          k = 0.0000 0.0000 0.0000 (  2969 PWs)   bands (ev):

   -10.1943  -2.4500  -2.4500  -1.5183  -1.5176  -1.5176   4.2941   4.2945
     4.2945   4.9684   6.7568   6.7568   6.7580  14.0022  14.0022  14.0026
    15.6442  15.6442  15.6457

     occupation numbers 
     1.0000   1.0000   1.0000   1.0000   1.0000   1.0000   1.0000   1.0000
     1.0000   1.0000   1.0000   1.0000   1.0000   0.0000   0.0000   0.0000
     0.0000   0.0000   0.0000

          k = 0.0000 0.0000 0.2500 (  3042 PWs)   bands (ev):

    -9.6857  -5.1158  -2.1895  -1.2313  -1.2308   0.8977   3.4812   3.8759
     3.8762   5.5096   6.3470   6.3478   6.4051  12.6829  13.0411  13.0413
    15.6788  17.3563  17.7108

     occupation numbers 
     1.0000   1.0000   1.0000   1.0000   1.0000   1.0000   1.0000   1.0000
     1.0000   1.0000   1.0000   1.0000   1.0000   0.9629   0.0263   0.0262
     0.0000   0.0000   0.0000

          k = 0.0000 0.0000-0.5000 (  3026 PWs)   bands (ev):

    -8.7141  -7.0262  -1.8715  -0.8713  -0.8706   2.6918   3.1229   3.2342
     3.2347   3.3238   6.2683   6.2691   9.2945  10.0263  12.2136  12.2138
    15.8805  17.4559  20.8963

     occupation numbers 
     1.0000   1.0000   1.0000   1.0000   1.0000   1.0000   1.0000   1.0000
     1.0000   1.0000   1.0000   1.0000   1.0000   1.0000   1.0000   1.0000
     0.0000   0.0000   0.0000

          k = 0.0000 0.2500 0.2500 (  3031 PWs)   bands (ev):

    -9.1763  -5.0967  -4.2559  -1.1758  -0.1103   1.9146   1.9803   4.0780
     4.6415   4.7215   5.3161   6.8733   7.6229  11.0034  12.1163  13.4992
    17.1442  17.4108  18.3011

     occupation numbers 
     1.0000   1.0000   1.0000   1.0000   1.0000   1.0000   1.0000   1.0000
     1.0000   1.0000   1.0000   1.0000   1.0000   1.0000   1.0000   0.0000
     0.0000   0.0000   0.0000

          k = 0.0000 0.2500-0.5000 (  3016 PWs)   bands (ev):

    -8.1823  -6.6594  -4.0820  -1.4803   0.5253   1.3200   2.6209   3.1619
     4.6249   4.6970   5.8629   6.3832   9.2419   9.5914  12.0993  12.2813
    17.8703  19.0229  19.8083

     occupation numbers 
     1.0000   1.0000   1.0000   1.0000   1.0000   1.0000   1.0000   1.0000
     1.0000   1.0000   1.0000   1.0000   1.0000   1.0000   1.0000   1.0000
     0.0000   0.0000   0.0000

          k = 0.0000-0.5000-0.5000 (  3048 PWs)   bands (ev):

    -6.9524  -6.1523  -6.1522  -2.5275   1.5897   2.1282   2.3679   2.3682
     4.0119   4.0125   6.9062   7.7724   8.6170   9.0566  12.6288  12.6291
    18.8072  18.8072  20.8300

     occupation numbers 
     1.0000   1.0000   1.0000   1.0000   1.0000   1.0000   1.0000   1.0000
     1.0000   1.0000   1.0000   1.0000   1.0000   1.0000   0.9905   0.9905
     0.0000   0.0000   0.0000

          k = 0.2500 0.2500 0.2500 (  3058 PWs)   bands (ev):

    -8.6680  -4.7567  -4.7565  -2.6730   0.7104   0.7108   2.3139   3.7533
     3.7536   5.7188   7.0423   7.0435   7.6075   9.8890  13.1607  13.1608
    17.3955  17.3958  18.1360

     occupation numbers 
     1.0000   1.0000   1.0000   1.0000   1.0000   1.0000   1.0000   1.0000
     1.0000   1.0000   1.0000   1.0000   1.0000   1.0000   0.0007   0.0007
     0.0000   0.0000   0.0000

          k = 0.2500 0.2500-0.5000 (  3050 PWs)   bands (ev):

    -7.6574  -6.2961  -4.2996  -2.4357  -0.4517   0.1703   1.7237   3.9780
     5.8214   6.1967   6.4811   6.8665   7.0381  11.1854  12.3484  12.8898
    17.9700  19.5611  19.6814

     occupation numbers 
     1.0000   1.0000   1.0000   1.0000   1.0000   1.0000   1.0000   1.0000
     1.0000   1.0000   1.0000   1.0000   1.0000   1.0000   1.0000   0.3572
     0.0000   0.0000   0.0000

          k = 0.2500-0.5000-0.5000 (  3060 PWs)   bands (ev):

    -6.4262  -5.7953  -5.7951  -2.7417  -1.0158   0.0683   0.0687   5.3596
     5.8426   6.4099   6.4105   7.0311   7.7967  12.0063  12.9590  12.9593
    18.9456  18.9458  19.7305

     occupation numbers 
     1.0000   1.0000   1.0000   1.0000   1.0000   1.0000   1.0000   1.0000
     1.0000   1.0000   1.0000   1.0000   1.0000   1.0000   0.1389   0.1384
     0.0000   0.0000   0.0000

          k =-0.5000-0.5000-0.5000 (  3112 PWs)   bands (ev):

    -5.3078  -5.3075  -5.3075  -4.2137  -1.3411  -1.3411  -1.3404   4.5334
     7.1714   7.1714   7.8096   7.8106   7.8106  13.3962  13.3963  13.3963
    18.9764  18.9764  18.9776

     occupation numbers 
     1.0000   1.0000   1.0000   1.0000   1.0000   1.0000   1.0000   1.0000
     1.0000   1.0000   1.0000   1.0000   1.0000   0.0000   0.0000   0.0000
     0.0000   0.0000   0.0000

          k = 0.2500 0.0000 0.2500 (  3031 PWs)   bands (ev):

    -9.1763  -5.0966  -4.2561  -1.1759  -0.1104   1.9150   1.9801   4.0776
     4.6421   4.7221   5.3163   6.8723   7.6225  11.0037  12.1162  13.4991
    17.1441  17.4101  18.3017

     occupation numbers 
     1.0000   1.0000   1.0000   1.0000   1.0000   1.0000   1.0000   1.0000
     1.0000   1.0000   1.0000   1.0000   1.0000   1.0000   1.0000   0.0000
     0.0000   0.0000   0.0000

          k = 0.2500-0.2500 0.2500 (  3058 PWs)   bands (ev):

    -8.6680  -4.7565  -4.7565  -2.6735   0.7102   0.7102   2.3148   3.7543
     3.7543   5.7183   7.0422   7.0422   7.6073   9.8890  13.1608  13.1608
    17.3949  17.3949  18.1376

     occupation numbers 
     1.0000   1.0000   1.0000   1.0000   1.0000   1.0000   1.0000   1.0000
     1.0000   1.0000   1.0000   1.0000   1.0000   1.0000   0.0007   0.0007
     0.0000   0.0000   0.0000

          k = 0.2500-0.2500-0.5000 (  3050 PWs)   bands (ev):

    -7.6574  -6.2961  -4.2993  -2.4362  -0.4522   0.1706   1.7241   3.9789
     5.8216   6.1961   6.4812   6.8656   7.0382  11.1857  12.3483  12.8897
    17.9696  19.5599  19.6818

     occupation numbers 
     1.0000   1.0000   1.0000   1.0000   1.0000   1.0000   1.0000   1.0000
     1.0000   1.0000   1.0000   1.0000   1.0000   1.0000   1.0000   0.3576
     0.0000   0.0000   0.0000

     the Fermi energy is    12.8546 ev

!    total energy              =    -130.73693425 Ry
     total all-electron energy =      -535.085614 Ry
     estimated scf accuracy    <          5.8E-10 Ry
     smearing contrib. (-TS)   =      -0.00188754 Ry
     internal energy E=F+TS    =    -130.73504671 Ry

     The total energy is F=E-TS. E is the sum of the following terms:
     one-electron contribution =      22.94340237 Ry
     hartree contribution      =      10.10973867 Ry
     xc contribution           =     -35.75449499 Ry
     ewald contribution        =     -82.19812830 Ry
     one-center paw contrib.   =     -45.83556447 Ry
      -> PAW hartree energy AE =       9.28221564 Ry
      -> PAW hartree energy PS =      -9.27293522 Ry
      -> PAW xc energy AE      =     -11.20021841 Ry
      -> PAW xc energy PS      =       4.64033356 Ry
      -> total E_H with PAW    =      10.11901909 Ry
      -> total E_XC with PAW   =     -42.31437984 Ry

     convergence has been achieved in   5 iterations


     -----------------------------------------------
     Non-local corr. energy    =       0.24968155 Ry
     -----------------------------------------------


     Forces acting on atoms (cartesian axes, Ry/au):

     atom    1 type  1   force =    -0.00001142    0.00001142   -0.00001173
     atom    2 type  1   force =    -0.00001677    0.00000005   -0.00000005
     atom    3 type  1   force =    -0.00001142    0.00001173   -0.00001142
     atom    4 type  1   force =    -0.00000005    0.00001677   -0.00000005
     atom    5 type  1   force =    -0.00001173    0.00001142   -0.00001142
     atom    6 type  1   force =    -0.00000005    0.00000005   -0.00001677
     atom    7 type  1   force =     0.00005145   -0.00005145    0.00005145
     The non-local contrib.  to forces
     atom    1 type  1   force =    -0.35508172    0.35508172    0.35491750
     atom    2 type  1   force =     0.00010842    0.00010823   -0.00010823
     atom    3 type  1   force =    -0.35508172   -0.35491750   -0.35508172
     atom    4 type  1   force =    -0.00010823   -0.00010842   -0.00010823
     atom    5 type  1   force =     0.35491750    0.35508172   -0.35508172
     atom    6 type  1   force =    -0.00010823    0.00010823    0.00010842
     atom    7 type  1   force =     0.35462141   -0.35462141    0.35462141
     The ionic contribution  to forces
     atom    1 type  1   force =     1.79427529   -1.79427544   -1.79444806
     atom    2 type  1   force =    -0.00025006   -0.00035675    0.00035678
     atom    3 type  1   force =     1.79427533    1.79444816    1.79427533
     atom    4 type  1   force =     0.00035678    0.00025010    0.00035678
     atom    5 type  1   force =    -1.79444806   -1.79427544    1.79427529
     atom    6 type  1   force =     0.00035678   -0.00035675   -0.00025006
     atom    7 type  1   force =    -1.79456606    1.79456612   -1.79456606
     The local contribution  to forces
     atom    1 type  1   force =    -1.44393249    1.44393249    1.44421378
     atom    2 type  1   force =     0.00000991    0.00012676   -0.00012657
     atom    3 type  1   force =    -1.44393246   -1.44421361   -1.44393246
     atom    4 type  1   force =    -0.00012657   -0.00000979   -0.00012657
     atom    5 type  1   force =     1.44421378    1.44393249   -1.44393249
     atom    6 type  1   force =    -0.00012657    0.00012676    0.00000991
     atom    7 type  1   force =     1.44467926   -1.44467911    1.44467926
     The core correction contribution to forces
     atom    1 type  1   force =     0.00475092   -0.00475092   -0.00466035
     atom    2 type  1   force =     0.00013805    0.00008829   -0.00008830
     atom    3 type  1   force =     0.00475092    0.00466034    0.00475092
     atom    4 type  1   force =    -0.00008830   -0.00013806   -0.00008830
     atom    5 type  1   force =    -0.00466035   -0.00475092    0.00475092
     atom    6 type  1   force =    -0.00008830    0.00008829    0.00013805
     atom    7 type  1   force =    -0.00464949    0.00464948   -0.00464949
     The Hubbard contrib.    to forces
     atom    1 type  1   force =     0.00000000    0.00000000    0.00000000
     atom    2 type  1   force =     0.00000000    0.00000000    0.00000000
     atom    3 type  1   force =     0.00000000    0.00000000    0.00000000
     atom    4 type  1   force =     0.00000000    0.00000000    0.00000000
     atom    5 type  1   force =     0.00000000    0.00000000    0.00000000
     atom    6 type  1   force =     0.00000000    0.00000000    0.00000000
     atom    7 type  1   force =     0.00000000    0.00000000    0.00000000
     The SCF correction term to forces
     atom    1 type  1   force =     0.00000505   -0.00000505   -0.00000598
     atom    2 type  1   force =     0.00000550    0.00000513   -0.00000513
     atom    3 type  1   force =     0.00000505    0.00000598    0.00000505
     atom    4 type  1   force =    -0.00000513   -0.00000550   -0.00000513
     atom    5 type  1   force =    -0.00000598   -0.00000505    0.00000505
     atom    6 type  1   force =    -0.00000513    0.00000513    0.00000550
     atom    7 type  1   force =    -0.00000506    0.00000506   -0.00000506

     Total force =     0.000100     Total SCF correction =     0.000024
     SCF correction compared to forces is large: reduce conv_thr to get better values


     Computing stress (Cartesian axis) and pressure



     -----------------------------------------------
     Non-local corr. energy    =       0.24968155 Ry
     -----------------------------------------------

          total   stress  (Ry/bohr**3)                   (kbar)     P=     1092.81
   0.00742879  -0.00000010   0.00000010         1092.81       -0.01        0.01
  -0.00000010   0.00742879  -0.00000010           -0.01     1092.81       -0.01
   0.00000010  -0.00000010   0.00742879            0.01       -0.01     1092.81

     kinetic stress (kbar)  17620.46     -0.06      0.06
                               -0.06  17620.46     -0.06
                                0.06     -0.06  17620.46

     local   stress (kbar)  -4572.45     -0.94      0.94
                               -0.94  -4572.45     -0.94
                                0.94     -0.94  -4572.45

     nonloc. stress (kbar)   4004.60      0.04     -0.04
                                0.04   4004.60      0.04
                               -0.04      0.04   4004.60

     hartree stress (kbar)   1611.41      0.15     -0.15
                                0.15   1611.41      0.15
                               -0.15      0.15   1611.41

     exc-cor stress (kbar)   -595.25      0.04     -0.04
                                0.04   -595.25      0.04
                               -0.04      0.04   -595.25

     corecor stress (kbar)  -3898.77     -0.06      0.06
                               -0.06  -3898.77     -0.06
                                0.06     -0.06  -3898.77

     ewald   stress (kbar) -13101.68      0.82     -0.82
                                0.82 -13101.68      0.82
                               -0.82      0.82 -13101.68

     hubbard stress (kbar)      0.00      0.00      0.00
                                0.00      0.00      0.00
                                0.00      0.00      0.00

     DFT-D   stress (kbar)      0.00      0.00      0.00
                                0.00      0.00      0.00
                                0.00      0.00      0.00

     XDM     stress (kbar)      0.00      0.00      0.00
                                0.00      0.00      0.00
                                0.00      0.00      0.00

     dft-nl  stress (kbar)     24.51     -0.00      0.00
                               -0.00     24.51     -0.00
                                0.00     -0.00     24.51

     TS-vdW  stress (kbar)      0.00      0.00      0.00
                                0.00      0.00      0.00
                                0.00      0.00      0.00

     MDB     stress (kbar)      0.00      0.00      0.00
                                0.00      0.00      0.00
                                0.00      0.00      0.00

     3D-RISM stress (kbar)      0.00      0.00      0.00
                                0.00      0.00      0.00
                                0.00      0.00      0.00

     Energy error            =      3.3E-06 Ry
     Gradient error          =      5.1E-05 Ry/Bohr

     bfgs converged in   4 scf cycles and   3 bfgs steps
     (criteria: energy <  1.0E-04 Ry, force <  1.0E-03 Ry/Bohr)

     End of BFGS Geometry Optimization

     Final energy             =    -130.7369342519 Ry

     File ./diamond.bfgs deleted, as requested
Begin final coordinates

ATOMIC_POSITIONS (angstrom)
C            -0.0288844884        0.0288844884        1.8150824042
C             0.8931141354        0.8931322200        2.6791705984
C            -0.0288844884        1.7572204142       -0.0288844884
C             2.6791705984        2.6791886830        2.6791705984
C             1.8150824042        0.0288844884       -0.0288844884
C             2.6791705984        0.8931322200        0.8931141354
C             1.8150420395        1.7572607789        1.8150420395
End final coordinates



     Writing all to output data dir ./diamond.save/
 
     init_run     :      2.43s CPU      2.47s WALL (       1 calls)
     electrons    :      7.88s CPU      8.17s WALL (       4 calls)
     update_pot   :      0.28s CPU      0.29s WALL (       3 calls)
     forces       :      0.22s CPU      0.23s WALL (       4 calls)
     stress       :      0.93s CPU      0.95s WALL (       4 calls)

     Called by init_run:
     wfcinit      :      0.07s CPU      0.07s WALL (       1 calls)
     wfcinit:atom :      0.00s CPU      0.00s WALL (      13 calls)
     wfcinit:wfcr :      0.06s CPU      0.07s WALL (      13 calls)
     potinit      :      2.33s CPU      2.34s WALL (       1 calls)
     hinit0       :      0.01s CPU      0.01s WALL (       1 calls)

     Called by electrons:
     c_bands      :      5.01s CPU      5.11s WALL (      27 calls)
     sum_band     :      0.59s CPU      0.61s WALL (      27 calls)
     v_of_rho     :      3.15s CPU      3.22s WALL (      29 calls)
     v_h          :      0.01s CPU      0.01s WALL (      29 calls)
     v_xc         :      3.39s CPU      3.47s WALL (      37 calls)
     newd         :      0.06s CPU      0.06s WALL (      29 calls)
     PAW_pot      :      1.79s CPU      1.83s WALL (      32 calls)
     mix_rho      :      0.02s CPU      0.02s WALL (      27 calls)
     vdW_kernel   :      2.23s CPU      2.24s WALL (       1 calls)

     Called by c_bands:
     init_us_2    :      0.04s CPU      0.04s WALL (     858 calls)
     init_us_2:cp :      0.04s CPU      0.04s WALL (     858 calls)
     cegterg      :      4.87s CPU      4.97s WALL (     351 calls)

     Called by sum_band:
     sum_band:wei :      0.00s CPU      0.00s WALL (      27 calls)
     sum_band:loo :      0.52s CPU      0.53s WALL (      27 calls)
     sum_band:buf :      0.00s CPU      0.00s WALL (     351 calls)
     sum_band:ini :      0.02s CPU      0.02s WALL (     351 calls)
     sum_band:cal :      0.06s CPU      0.06s WALL (     390 calls)
     sum_band:bec :      0.00s CPU      0.00s WALL (     390 calls)
     addusdens    :      0.03s CPU      0.04s WALL (      27 calls)
                                        0.00s GPU  (      27 calls)
     addusd:skk   :      0.00s CPU      0.00s WALL (      27 calls)
                                        0.00s GPU  (      27 calls)

     Called by *egterg:
     cdiaghg      :      1.18s CPU      1.20s WALL (    1814 calls)
     cegterg:over :      0.35s CPU      0.36s WALL (    1528 calls)
     cegterg:upda :      0.09s CPU      0.09s WALL (    1528 calls)
     cegterg:last :      0.04s CPU      0.04s WALL (     380 calls)
     h_psi        :      2.97s CPU      3.04s WALL (    1892 calls)
     s_psi        :      0.10s CPU      0.11s WALL (    1892 calls)
     g_psi        :      0.01s CPU      0.01s WALL (    1528 calls)

     Called by h_psi:
     h_psi:calbec :      0.22s CPU      0.22s WALL (    1892 calls)
     vloc_psi     :      2.63s CPU      2.69s WALL (    1892 calls)
     add_vuspsi   :      0.11s CPU      0.11s WALL (    1892 calls)

     General routines
     calbec       :      0.32s CPU      0.33s WALL (    2542 calls)
     fft          :      0.51s CPU      0.52s WALL (    2500 calls)
     ffts         :      0.01s CPU      0.01s WALL (      56 calls)
     fftw         :      2.80s CPU      2.86s WALL (   48241 calls)
     interpolate  :      0.01s CPU      0.01s WALL (      29 calls)
 
     Parallel routines

     PAW routines
     PAW_pot      :      1.79s CPU      1.83s WALL (      32 calls)
     PAW_symme    :      0.00s CPU      0.00s WALL (      59 calls)
 
     PWSCF        :     12.15s CPU     12.75s WALL

 
   This run was terminated on:  21:37:42  27Mar2024            

=------------------------------------------------------------------------------=
   JOB DONE.
=------------------------------------------------------------------------------=
