
     Program PWSCF v.7.1 starts on 21Feb2024 at  8:40:37 

     This program is part of the open-source Quantum ESPRESSO suite
     for quantum simulation of materials; please cite
         "P. Giannozzi et al., J. Phys.:Condens. Matter 21 395502 (2009);
         "P. Giannozzi et al., J. Phys.:Condens. Matter 29 465901 (2017);
         "P. Giannozzi et al., J. Chem. Phys. 152 154105 (2020);
          URL http://www.quantum-espresso.org", 
     in publications or presentations arising from this work. More details at
     http://www.quantum-espresso.org/quote

     Parallel version (MPI & OpenMP), running on     128 processor cores
     Number of MPI processes:               128
     Threads/MPI process:                     1

     MPI processes distributed on     1 nodes
     1947917 MiB available memory on the printing compute node when the environment starts
 
     Reading input from espresso.pwi

     Current dimensions of program PWSCF are:
     Max number of different atomic species (ntypx) = 10
     Max number of k-points (npk) =  40000
     Max angular momentum in pseudopotentials (lmaxx) =  4
     file Ga.pbe-dn-kjpaw_psl.1.0.0.UPF: wavefunction(s)  4S renormalized

     **************************************************************************
     Initializing libbeef V0.1.2 with the BEEF-vdW functional.
     Citation: Wellendorff et al., PRB 85, 235149 (2012).
     **************************************************************************


     IMPORTANT: XC functional enforced from input :
     Exchange-correlation= BEEF-VDW
                           (   1   4  43  14   2   0   0)
     Any further DFT definition will be discarded
     Please, verify this is what you really want

     Found identity + (  0.5000  0.5000  0.0000) symmetry
     This is a supercell, fractional translations are disabled
 
     K-points division:     npool     =       8
     R & G space division:  proc/nbgrp/npool/nimage =      16
     Subspace diagonalization in iterative solution of the eigenvalue problem:
     a serial algorithm will be used

 
     Parallelization info
     --------------------
     sticks:   dense  smooth     PW     G-vecs:    dense   smooth      PW
     Min         208     167     47                 7153     5115     777
     Max         210     168     48                 7154     5118     780
     Sum        3345    2685    763               114451    81869   12455
 
     Using Slab Decomposition
 


     bravais-lattice index     =            8
     lattice parameter (alat)  =       8.3754  a.u.
     unit-cell volume          =    1035.2272 (a.u.)^3
     number of atoms/cell      =            8
     number of atomic types    =            1
     number of electrons       =       104.00
     number of Kohn-Sham states=           62
     kinetic-energy cutoff     =      70.0000  Ry
     charge density cutoff     =     350.0000  Ry
     scf convergence threshold =      1.0E-07
     mixing beta               =       0.7000
     number of iterations used =            8  plain     mixing
     energy convergence thresh.=      1.0E-04
     force convergence thresh. =      1.0E-03
     press convergence thresh. =      5.0E-01
     Exchange-correlation= BEEF-VDW
                           (   1   4  43  14   2   0   0)
     nstep                     =           50


     celldm(1)=   8.375354  celldm(2)=   1.714328  celldm(3)=   1.027855
     celldm(4)=   0.000000  celldm(5)=   0.000000  celldm(6)=   0.000000

     crystal axes: (cart. coord. in units of alat)
               a(1) = (   1.000000   0.000000   0.000000 )  
               a(2) = (   0.000000   1.714328   0.000000 )  
               a(3) = (   0.000000   0.000000   1.027855 )  

     reciprocal axes: (cart. coord. in units 2 pi/alat)
               b(1) = (  1.000000  0.000000  0.000000 )  
               b(2) = (  0.000000  0.583319  0.000000 )  
               b(3) = (  0.000000  0.000000  0.972899 )  


     PseudoPot. # 1 for Ga read from file:
     /trace/group/acmegroup/atimmins/packages/espresso/pseudo/psl_1.0.0/pslibrary.1.0.0/pbe/PSEUDOPOTENTIALS/Ga.pbe-dn-kjpaw_psl.1.0.0.UPF
     MD5 check sum: cd2a01e492f15b435d17032472d8505c
     Pseudo is Projector augmented-wave + core cor, Zval = 13.0
     Generated using 'atomic' code by A. Dal Corso  v.7.1
     Shape of augmentation charge: PSQ
     Using radial grid of 1205 points,  6 beta functions with: 
                l(1) =   0
                l(2) =   0
                l(3) =   1
                l(4) =   1
                l(5) =   2
                l(6) =   2
     Q(r) pseudized with 0 coefficients 


     atomic species   valence    mass     pseudopotential
        Ga            13.00    69.72300     Ga( 1.00)

      4 Sym. Ops., with inversion, found


                                    s                        frac. trans.

      isym =  1     identity                                     

 cryst.   s( 1) = (     1          0          0      )
                  (     0          1          0      )
                  (     0          0          1      )

 cart.    s( 1) = (  1.0000000  0.0000000  0.0000000 )
                  (  0.0000000  1.0000000  0.0000000 )
                  (  0.0000000  0.0000000  1.0000000 )


      isym =  2     180 deg rotation - cart. axis [1,0,0]        

 cryst.   s( 2) = (     1          0          0      )
                  (     0         -1          0      )
                  (     0          0         -1      )

 cart.    s( 2) = (  1.0000000  0.0000000  0.0000000 )
                  (  0.0000000 -1.0000000  0.0000000 )
                  (  0.0000000  0.0000000 -1.0000000 )


      isym =  3     inversion                                    

 cryst.   s( 3) = (    -1          0          0      )
                  (     0         -1          0      )
                  (     0          0         -1      )

 cart.    s( 3) = ( -1.0000000  0.0000000  0.0000000 )
                  (  0.0000000 -1.0000000  0.0000000 )
                  (  0.0000000  0.0000000 -1.0000000 )


      isym =  4     inv. 180 deg rotation - cart. axis [1,0,0]   

 cryst.   s( 4) = (    -1          0          0      )
                  (     0          1          0      )
                  (     0          0          1      )

 cart.    s( 4) = ( -1.0000000  0.0000000  0.0000000 )
                  (  0.0000000  1.0000000  0.0000000 )
                  (  0.0000000  0.0000000  1.0000000 )


     point group C_2h (2/m) 
     there are  4 classes
     the character table:

       E     C2    i     s_h  
A_g    1.00  1.00  1.00  1.00
B_g    1.00 -1.00  1.00 -1.00
A_u    1.00  1.00 -1.00 -1.00
B_u    1.00 -1.00 -1.00  1.00

     the symmetry operations in each class and the name of the first element:

     E        1
          identity                                               
     C2       2
          180 deg rotation - cart. axis [1,0,0]                  
     i        3
          inversion                                              
     s_h      4
          inv. 180 deg rotation - cart. axis [1,0,0]             

   Cartesian axes

     site n.     atom                  positions (alat units)
         1           Ga  tau(   1) = (   0.0000000   0.5902506   0.4269726  )
         2           Ga  tau(   2) = (   0.0000000   0.2669136   0.9409003  )
         3           Ga  tau(   3) = (   0.0000000   1.1240778   0.6008829  )
         4           Ga  tau(   4) = (   0.0000000   1.4474148   0.0869551  )
         5           Ga  tau(   5) = (   0.5000000   1.4474148   0.4269726  )
         6           Ga  tau(   6) = (   0.5000000   1.1240778   0.9409003  )
         7           Ga  tau(   7) = (   0.5000000   0.2669136   0.6008829  )
         8           Ga  tau(   8) = (   0.5000000   0.5902506   0.0869551  )

   Crystallographic axes

     site n.     atom                  positions (cryst. coord.)
         1           Ga  tau(   1) = (  0.0000000  0.3443043  0.4154014  )
         2           Ga  tau(   2) = (  0.0000000  0.1556957  0.9154014  )
         3           Ga  tau(   3) = (  0.0000000  0.6556957  0.5845986  )
         4           Ga  tau(   4) = (  0.0000000  0.8443043  0.0845986  )
         5           Ga  tau(   5) = (  0.5000000  0.8443043  0.4154014  )
         6           Ga  tau(   6) = (  0.5000000  0.6556957  0.9154014  )
         7           Ga  tau(   7) = (  0.5000000  0.1556957  0.5845986  )
         8           Ga  tau(   8) = (  0.5000000  0.3443043  0.0845986  )

     number of k points=    18  Gaussian smearing, width (Ry)=  0.0100
                       cart. coord. in units 2pi/alat
        k(    1) = (   0.0000000   0.0000000   0.0000000), wk =   0.0625000
        k(    2) = (   0.0000000   0.0000000   0.2432249), wk =   0.1250000
        k(    3) = (   0.0000000   0.0000000  -0.4864497), wk =   0.0625000
        k(    4) = (   0.0000000  -0.2916594   0.0000000), wk =   0.0625000
        k(    5) = (   0.0000000  -0.2916594   0.2432249), wk =   0.1250000
        k(    6) = (   0.0000000  -0.2916594  -0.4864497), wk =   0.0625000
        k(    7) = (   0.2500000   0.0000000   0.0000000), wk =   0.1250000
        k(    8) = (   0.2500000   0.0000000   0.2432249), wk =   0.2500000
        k(    9) = (   0.2500000   0.0000000  -0.4864497), wk =   0.1250000
        k(   10) = (   0.2500000  -0.2916594   0.0000000), wk =   0.1250000
        k(   11) = (   0.2500000  -0.2916594   0.2432249), wk =   0.2500000
        k(   12) = (   0.2500000  -0.2916594  -0.4864497), wk =   0.1250000
        k(   13) = (  -0.5000000   0.0000000   0.0000000), wk =   0.0625000
        k(   14) = (  -0.5000000   0.0000000   0.2432249), wk =   0.1250000
        k(   15) = (  -0.5000000   0.0000000  -0.4864497), wk =   0.0625000
        k(   16) = (  -0.5000000  -0.2916594   0.0000000), wk =   0.0625000
        k(   17) = (  -0.5000000  -0.2916594   0.2432249), wk =   0.1250000
        k(   18) = (  -0.5000000  -0.2916594  -0.4864497), wk =   0.0625000

                       cryst. coord.
        k(    1) = (   0.0000000   0.0000000   0.0000000), wk =   0.0625000
        k(    2) = (   0.0000000   0.0000000   0.2500000), wk =   0.1250000
        k(    3) = (   0.0000000   0.0000000  -0.5000000), wk =   0.0625000
        k(    4) = (   0.0000000  -0.5000000   0.0000000), wk =   0.0625000
        k(    5) = (   0.0000000  -0.5000000   0.2500000), wk =   0.1250000
        k(    6) = (   0.0000000  -0.5000000  -0.5000000), wk =   0.0625000
        k(    7) = (   0.2500000   0.0000000   0.0000000), wk =   0.1250000
        k(    8) = (   0.2500000   0.0000000   0.2500000), wk =   0.2500000
        k(    9) = (   0.2500000   0.0000000  -0.5000000), wk =   0.1250000
        k(   10) = (   0.2500000  -0.5000000   0.0000000), wk =   0.1250000
        k(   11) = (   0.2500000  -0.5000000   0.2500000), wk =   0.2500000
        k(   12) = (   0.2500000  -0.5000000  -0.5000000), wk =   0.1250000
        k(   13) = (  -0.5000000   0.0000000   0.0000000), wk =   0.0625000
        k(   14) = (  -0.5000000   0.0000000   0.2500000), wk =   0.1250000
        k(   15) = (  -0.5000000   0.0000000  -0.5000000), wk =   0.0625000
        k(   16) = (  -0.5000000  -0.5000000   0.0000000), wk =   0.0625000
        k(   17) = (  -0.5000000  -0.5000000   0.2500000), wk =   0.1250000
        k(   18) = (  -0.5000000  -0.5000000  -0.5000000), wk =   0.0625000

     Dense  grid:   114451 G-vectors     FFT dimensions: (  50,  90,  54)

     Smooth grid:    81869 G-vectors     FFT dimensions: (  45,  80,  45)

     Dynamical RAM for                 wfc:       0.60 MB

     Dynamical RAM for     wfc (w. buffer):       2.42 MB

     Dynamical RAM for           str. fact:       0.11 MB

     Dynamical RAM for           local pot:       0.00 MB

     Dynamical RAM for          nlocal pot:       1.40 MB

     Dynamical RAM for                qrad:       3.00 MB

     Dynamical RAM for          rho,v,vnew:       0.74 MB

     Dynamical RAM for               rhoin:       0.25 MB

     Dynamical RAM for            rho*nmix:       1.75 MB

     Dynamical RAM for           G-vectors:       0.45 MB

     Dynamical RAM for          h,s,v(r/c):       2.82 MB

     Dynamical RAM for          <psi|beta>:       0.14 MB

     Dynamical RAM for                 psi:       2.42 MB

     Dynamical RAM for                hpsi:       2.42 MB

     Dynamical RAM for                spsi:       2.42 MB

     Dynamical RAM for      wfcinit/wfcrot:       1.52 MB

     Dynamical RAM for           addusdens:       2.74 MB

     Dynamical RAM for          addusforce:       2.92 MB

     Dynamical RAM for         addusstress:       2.79 MB

     Estimated static dynamical RAM per process >       9.27 MB

     Estimated max dynamical RAM per process >      21.23 MB

     Estimated total dynamical RAM >       2.46 GB

     Initial potential from superposition of free atoms

     starting charge     103.9764, renormalised to     104.0000


     %%%%%%%%%%%%%%%%%%%%%%%%%%%%%%%%%%%%%%%%%%%%%%%%%%%%%%%%%%%%%%%%%%%%%%%%
     %                                                                      %
     % You are using vdW-DF, which was implemented by the Thonhauser group. %
     % Please cite the following two papers that made this development      %
     % possible and the two reviews that describe the various versions:     %
     %                                                                      %
     %   T. Thonhauser et al., PRL 115, 136402 (2015).                      %
     %   T. Thonhauser et al., PRB 76, 125112 (2007).                       %
     %   K. Berland et al., Rep. Prog. Phys. 78, 066501 (2015).             %
     %   D.C. Langreth et al., J. Phys.: Condens. Matter 21, 084203 (2009). %
     %                                                                      %
     % If you are calculating stress with vdW-DF, please also cite:         %
     %                                                                      %
     %   R. Sabatini et al., J. Phys.: Condens. Matter 24, 424209 (2012).   %
     %                                                                      %
     %%%%%%%%%%%%%%%%%%%%%%%%%%%%%%%%%%%%%%%%%%%%%%%%%%%%%%%%%%%%%%%%%%%%%%%%

     %%%%%%%%%%%%%%%%%%%%%%%%%%%%%%%%%%%%%%%%%%%%%%%%%%%%%%%%%%%%%%%%%%%%%%%%
     %                                                                      %
     %  vdW-DF NEWS:                                                        %
     %                                                                      %
     %  * vdW-DF3 is now available. DOI: 10.1021/acs.jctc.0c00471           %
     %    use with input_dft = 'vdW-DF3-opt1' or 'vdW-DF3-opt2'             %
     %                                                                      %
     %  * Unscreened and range-separated vdW-DF hybrid functionals          %
     %    DOI: 10.1063/1.4986522 and 10.1088/1361-648X/ac2ad2               %
     %    use with input_dft = 'vdW-DF-cx0' (etc) and 'vdW-DF-ahcx'         %
     %                                                                      %
     %%%%%%%%%%%%%%%%%%%%%%%%%%%%%%%%%%%%%%%%%%%%%%%%%%%%%%%%%%%%%%%%%%%%%%%%


     Carrying out vdW-DF run using the following parameters:
     Nqs    =  20  Npoints =  1024  r_max =  100.000
     q_mesh =  0.00001000  0.04494208  0.09755937  0.15916263
               0.23128650  0.31572767  0.41458969  0.53033537
               0.66584808  0.82450364  1.01025438  1.22772762
               1.48234092  1.78043706  2.12944203  2.53805004
               3.01644009  3.57652955  4.23227104  5.00000000


     -----------------------------------------------
     Non-local corr. energy    =       3.76209205 Ry
     -----------------------------------------------

     Starting wfcs are   72 randomized atomic wfcs
     Checking if some PAW data can be deallocated... 

     total cpu time spent up to now is        1.2 secs

     Self-consistent Calculation

     iteration #  1     ecut=    70.00 Ry     beta= 0.70
     Davidson diagonalization with overlap

---- Real-time Memory Report at c_bands before calling an iterative solver
           151 MiB given to the printing process from OS
             0 MiB allocation reported by mallinfo(arena+hblkhd)
       1942807 MiB available memory on the node where the printing process lives
------------------
     ethr =  1.00E-02,  avg # of iterations =  4.9

     Threshold (ethr) on eigenvalues was too large:
     Diagonalizing with lowered threshold

     Davidson diagonalization with overlap

---- Real-time Memory Report at c_bands before calling an iterative solver
           155 MiB given to the printing process from OS
             0 MiB allocation reported by mallinfo(arena+hblkhd)
       1942632 MiB available memory on the node where the printing process lives
------------------
     ethr =  4.36E-05,  avg # of iterations = 10.7


     -----------------------------------------------
     Non-local corr. energy    =       3.73697485 Ry
     -----------------------------------------------


     total cpu time spent up to now is        3.2 secs

     total energy              =   -2266.55253926 Ry
     estimated scf accuracy    <       0.08708867 Ry

     iteration #  2     ecut=    70.00 Ry     beta= 0.70
     Davidson diagonalization with overlap

---- Real-time Memory Report at c_bands before calling an iterative solver
           159 MiB given to the printing process from OS
             0 MiB allocation reported by mallinfo(arena+hblkhd)
       1942384 MiB available memory on the node where the printing process lives
------------------
     ethr =  8.37E-05,  avg # of iterations =  4.0


     -----------------------------------------------
     Non-local corr. energy    =       3.76073673 Ry
     -----------------------------------------------


     total cpu time spent up to now is        3.9 secs

     total energy              =   -2266.57319915 Ry
     estimated scf accuracy    <       0.03313176 Ry

     iteration #  3     ecut=    70.00 Ry     beta= 0.70
     Davidson diagonalization with overlap

---- Real-time Memory Report at c_bands before calling an iterative solver
           164 MiB given to the printing process from OS
             0 MiB allocation reported by mallinfo(arena+hblkhd)
       1942095 MiB available memory on the node where the printing process lives
------------------
     ethr =  3.19E-05,  avg # of iterations =  1.5


     -----------------------------------------------
     Non-local corr. energy    =       3.77826671 Ry
     -----------------------------------------------


     total cpu time spent up to now is        4.5 secs

     total energy              =   -2266.57484181 Ry
     estimated scf accuracy    <       0.00604061 Ry

     iteration #  4     ecut=    70.00 Ry     beta= 0.70
     Davidson diagonalization with overlap

---- Real-time Memory Report at c_bands before calling an iterative solver
           165 MiB given to the printing process from OS
             0 MiB allocation reported by mallinfo(arena+hblkhd)
       1942021 MiB available memory on the node where the printing process lives
------------------
     ethr =  5.81E-06,  avg # of iterations =  8.0


     -----------------------------------------------
     Non-local corr. energy    =       3.77763466 Ry
     -----------------------------------------------


     total cpu time spent up to now is        5.6 secs

     total energy              =   -2266.57782050 Ry
     estimated scf accuracy    <       0.01300877 Ry

     iteration #  5     ecut=    70.00 Ry     beta= 0.70
     Davidson diagonalization with overlap

---- Real-time Memory Report at c_bands before calling an iterative solver
           165 MiB given to the printing process from OS
             0 MiB allocation reported by mallinfo(arena+hblkhd)
       1942000 MiB available memory on the node where the printing process lives
------------------
     ethr =  5.81E-06,  avg # of iterations =  5.0


     -----------------------------------------------
     Non-local corr. energy    =       3.77456371 Ry
     -----------------------------------------------


     total cpu time spent up to now is        6.4 secs

     total energy              =   -2266.57867961 Ry
     estimated scf accuracy    <       0.00300026 Ry

     iteration #  6     ecut=    70.00 Ry     beta= 0.70
     Davidson diagonalization with overlap

---- Real-time Memory Report at c_bands before calling an iterative solver
           165 MiB given to the printing process from OS
             0 MiB allocation reported by mallinfo(arena+hblkhd)
       1941973 MiB available memory on the node where the printing process lives
------------------
     ethr =  2.88E-06,  avg # of iterations =  3.3


     -----------------------------------------------
     Non-local corr. energy    =       3.76949457 Ry
     -----------------------------------------------


     total cpu time spent up to now is        7.0 secs

     total energy              =   -2266.57831863 Ry
     estimated scf accuracy    <       0.00123753 Ry

     iteration #  7     ecut=    70.00 Ry     beta= 0.70
     Davidson diagonalization with overlap

---- Real-time Memory Report at c_bands before calling an iterative solver
           165 MiB given to the printing process from OS
             0 MiB allocation reported by mallinfo(arena+hblkhd)
       1941968 MiB available memory on the node where the printing process lives
------------------
     ethr =  1.19E-06,  avg # of iterations =  4.2


     -----------------------------------------------
     Non-local corr. energy    =       3.77131851 Ry
     -----------------------------------------------


     total cpu time spent up to now is        8.0 secs

     total energy              =   -2266.57880660 Ry
     estimated scf accuracy    <       0.00055418 Ry

     iteration #  8     ecut=    70.00 Ry     beta= 0.70
     Davidson diagonalization with overlap

---- Real-time Memory Report at c_bands before calling an iterative solver
           165 MiB given to the printing process from OS
             0 MiB allocation reported by mallinfo(arena+hblkhd)
       1941965 MiB available memory on the node where the printing process lives
------------------
     ethr =  5.33E-07,  avg # of iterations =  1.1


     -----------------------------------------------
     Non-local corr. energy    =       3.77238755 Ry
     -----------------------------------------------


     total cpu time spent up to now is        8.5 secs

     total energy              =   -2266.57878556 Ry
     estimated scf accuracy    <       0.00018104 Ry

     iteration #  9     ecut=    70.00 Ry     beta= 0.70
     Davidson diagonalization with overlap

---- Real-time Memory Report at c_bands before calling an iterative solver
           165 MiB given to the printing process from OS
             0 MiB allocation reported by mallinfo(arena+hblkhd)
       1941951 MiB available memory on the node where the printing process lives
------------------
     ethr =  1.74E-07,  avg # of iterations =  3.4


     -----------------------------------------------
     Non-local corr. energy    =       3.77262369 Ry
     -----------------------------------------------


     total cpu time spent up to now is        9.2 secs

     total energy              =   -2266.57882092 Ry
     estimated scf accuracy    <       0.00000232 Ry

     iteration # 10     ecut=    70.00 Ry     beta= 0.70
     Davidson diagonalization with overlap

---- Real-time Memory Report at c_bands before calling an iterative solver
           165 MiB given to the printing process from OS
             0 MiB allocation reported by mallinfo(arena+hblkhd)
       1941944 MiB available memory on the node where the printing process lives
------------------
     ethr =  2.24E-09,  avg # of iterations =  6.6


     -----------------------------------------------
     Non-local corr. energy    =       3.77254905 Ry
     -----------------------------------------------


     total cpu time spent up to now is       10.4 secs

     total energy              =   -2266.57882426 Ry
     estimated scf accuracy    <       0.00000194 Ry

     iteration # 11     ecut=    70.00 Ry     beta= 0.70
     Davidson diagonalization with overlap

---- Real-time Memory Report at c_bands before calling an iterative solver
           165 MiB given to the printing process from OS
             0 MiB allocation reported by mallinfo(arena+hblkhd)
       1941944 MiB available memory on the node where the printing process lives
------------------
     ethr =  1.86E-09,  avg # of iterations =  1.1


     -----------------------------------------------
     Non-local corr. energy    =       3.77244560 Ry
     -----------------------------------------------


     total cpu time spent up to now is       10.9 secs

     total energy              =   -2266.57882410 Ry
     estimated scf accuracy    <       0.00000060 Ry

     iteration # 12     ecut=    70.00 Ry     beta= 0.70
     Davidson diagonalization with overlap

---- Real-time Memory Report at c_bands before calling an iterative solver
           165 MiB given to the printing process from OS
             0 MiB allocation reported by mallinfo(arena+hblkhd)
       1941909 MiB available memory on the node where the printing process lives
------------------
     ethr =  5.78E-10,  avg # of iterations =  4.6


     -----------------------------------------------
     Non-local corr. energy    =       3.77250688 Ry
     -----------------------------------------------


     total cpu time spent up to now is       11.8 secs

     End of self-consistent calculation

          k = 0.0000 0.0000 0.0000 ( 10239 PWs)   bands (ev):

    -6.5027  -6.4606  -6.4561  -6.4433  -6.4403  -6.4027  -6.4025  -6.3938
    -6.3895  -6.3841  -6.3557  -6.3308  -6.2892  -6.2831  -6.2750  -6.2553
    -6.2492  -6.2412  -6.2069  -6.1855  -6.1853  -6.1830  -6.1737  -6.1675
    -6.1626  -6.1367  -6.0988  -6.0966  -6.0529  -6.0509  -6.0191  -6.0168
    -6.0022  -5.9977  -5.9936  -5.9700  -5.9622  -5.9558  -5.9527  -5.8810
    -1.9564  -0.2365   1.8884   4.8033   5.1953   5.2809   6.0357   7.2759
     7.5881   7.6086   7.7732   8.5007  10.3187  10.3569  10.3826  10.4033
    10.5081  12.6979  13.0753  13.6081  14.4540  14.7055

     occupation numbers 
     1.0000   1.0000   1.0000   1.0000   1.0000   1.0000   1.0000   1.0000
     1.0000   1.0000   1.0000   1.0000   1.0000   1.0000   1.0000   1.0000
     1.0000   1.0000   1.0000   1.0000   1.0000   1.0000   1.0000   1.0000
     1.0000   1.0000   1.0000   1.0000   1.0000   1.0000   1.0000   1.0000
     1.0000   1.0000   1.0000   1.0000   1.0000   1.0000   1.0000   1.0000
     1.0000   1.0000   1.0000   1.0000   1.0000   1.0000   1.0000   1.0000
     1.0000   1.0000   1.0000   1.0000   0.0000   0.0000   0.0000   0.0000
     0.0000   0.0000   0.0000   0.0000   0.0000   0.0000

          k = 0.0000 0.0000 0.2432 ( 10241 PWs)   bands (ev):

    -6.4983  -6.4489  -6.4287  -6.4247  -6.4232  -6.4229  -6.4152  -6.4056
    -6.4042  -6.3839  -6.3532  -6.3497  -6.3091  -6.3037  -6.2732  -6.2709
    -6.2684  -6.2478  -6.2307  -6.1797  -6.1591  -6.1490  -6.1471  -6.1458
    -6.1299  -6.1272  -6.0985  -6.0972  -6.0847  -6.0401  -6.0307  -6.0239
    -6.0194  -5.9974  -5.9927  -5.9632  -5.9612  -5.9610  -5.9291  -5.9036
    -1.5004   0.2188   2.0963   2.1829   4.3491   4.9169   6.5525   8.0589
     8.0699   8.1745   8.2808   8.7988  10.0255  10.1761  10.3874  10.4321
    11.0755  11.8334  12.9597  13.2953  13.6279  13.6729

     occupation numbers 
     1.0000   1.0000   1.0000   1.0000   1.0000   1.0000   1.0000   1.0000
     1.0000   1.0000   1.0000   1.0000   1.0000   1.0000   1.0000   1.0000
     1.0000   1.0000   1.0000   1.0000   1.0000   1.0000   1.0000   1.0000
     1.0000   1.0000   1.0000   1.0000   1.0000   1.0000   1.0000   1.0000
     1.0000   1.0000   1.0000   1.0000   1.0000   1.0000   1.0000   1.0000
     1.0000   1.0000   1.0000   1.0000   1.0000   1.0000   1.0000   1.0000
     1.0000   1.0000   1.0000   1.0000   0.0000   0.0000   0.0000   0.0000
     0.0000   0.0000   0.0000   0.0000   0.0000   0.0000

          k = 0.0000 0.0000-0.4864 ( 10242 PWs)   bands (ev):

    -6.4722  -6.4722  -6.4279  -6.4275  -6.4062  -6.4060  -6.3922  -6.3917
    -6.3767  -6.3762  -6.3615  -6.3612  -6.3427  -6.3426  -6.3409  -6.3408
    -6.2075  -6.2074  -6.2020  -6.2019  -6.1809  -6.1809  -6.1320  -6.1318
    -6.1171  -6.1169  -6.0791  -6.0790  -6.0765  -6.0765  -6.0051  -6.0050
    -5.9849  -5.9843  -5.9815  -5.9814  -5.9724  -5.9723  -5.9424  -5.9422
    -0.1348  -0.1347   1.5150   1.5151   3.8174   3.8175   8.0488   8.0488
     8.5347   8.5347   9.2549   9.2549   9.3114   9.3115   9.3667   9.3667
    11.3073  11.3073  13.5050  13.5051  13.8540  13.8540

     occupation numbers 
     1.0000   1.0000   1.0000   1.0000   1.0000   1.0000   1.0000   1.0000
     1.0000   1.0000   1.0000   1.0000   1.0000   1.0000   1.0000   1.0000
     1.0000   1.0000   1.0000   1.0000   1.0000   1.0000   1.0000   1.0000
     1.0000   1.0000   1.0000   1.0000   1.0000   1.0000   1.0000   1.0000
     1.0000   1.0000   1.0000   1.0000   1.0000   1.0000   1.0000   1.0000
     1.0000   1.0000   1.0000   1.0000   1.0000   1.0000   1.0000   1.0000
     1.0000   1.0000   0.5735   0.5735   0.3435   0.3434   0.1642   0.1642
     0.0000   0.0000   0.0000   0.0000   0.0000   0.0000

          k = 0.0000-0.2917 0.0000 ( 10234 PWs)   bands (ev):

    -6.4746  -6.4746  -6.4597  -6.4591  -6.3958  -6.3956  -6.3940  -6.3936
    -6.3886  -6.3882  -6.3660  -6.3660  -6.3194  -6.3192  -6.2620  -6.2618
    -6.2533  -6.2532  -6.2294  -6.2293  -6.1438  -6.1435  -6.1282  -6.1277
    -6.1255  -6.1254  -6.0984  -6.0981  -6.0485  -6.0482  -6.0455  -6.0453
    -6.0079  -6.0077  -6.0060  -6.0053  -5.9527  -5.9527  -5.9062  -5.9057
    -1.3646  -1.3646   4.0702   4.0702   5.0243   5.0243   6.6346   6.6346
     6.7992   6.7992   7.2730   7.2730  11.1741  11.1741  12.2495  12.2495
    12.4988  12.4988  13.2535  13.2536  13.6784  13.6784

     occupation numbers 
     1.0000   1.0000   1.0000   1.0000   1.0000   1.0000   1.0000   1.0000
     1.0000   1.0000   1.0000   1.0000   1.0000   1.0000   1.0000   1.0000
     1.0000   1.0000   1.0000   1.0000   1.0000   1.0000   1.0000   1.0000
     1.0000   1.0000   1.0000   1.0000   1.0000   1.0000   1.0000   1.0000
     1.0000   1.0000   1.0000   1.0000   1.0000   1.0000   1.0000   1.0000
     1.0000   1.0000   1.0000   1.0000   1.0000   1.0000   1.0000   1.0000
     1.0000   1.0000   1.0000   1.0000   0.0000   0.0000   0.0000   0.0000
     0.0000   0.0000   0.0000   0.0000   0.0000   0.0000

          k = 0.0000-0.2917 0.2432 ( 10226 PWs)   bands (ev):

    -6.4618  -6.4614  -6.4443  -6.4443  -6.4288  -6.4287  -6.3912  -6.3908
    -6.3807  -6.3804  -6.3763  -6.3762  -6.3060  -6.3058  -6.2791  -6.2787
    -6.2718  -6.2718  -6.2069  -6.2064  -6.1527  -6.1523  -6.1218  -6.1216
    -6.1197  -6.1192  -6.0902  -6.0900  -6.0803  -6.0801  -6.0146  -6.0144
    -6.0035  -6.0029  -5.9921  -5.9921  -5.9606  -5.9604  -5.9215  -5.9211
    -0.9073  -0.9073   2.5813   2.5813   5.0194   5.0195   6.5173   6.5174
     7.1327   7.1327   9.5553   9.5553  10.0075  10.0075  10.6878  10.6879
    11.1188  11.1189  13.7666  13.7666  14.0950  14.0950

     occupation numbers 
     1.0000   1.0000   1.0000   1.0000   1.0000   1.0000   1.0000   1.0000
     1.0000   1.0000   1.0000   1.0000   1.0000   1.0000   1.0000   1.0000
     1.0000   1.0000   1.0000   1.0000   1.0000   1.0000   1.0000   1.0000
     1.0000   1.0000   1.0000   1.0000   1.0000   1.0000   1.0000   1.0000
     1.0000   1.0000   1.0000   1.0000   1.0000   1.0000   1.0000   1.0000
     1.0000   1.0000   1.0000   1.0000   1.0000   1.0000   1.0000   1.0000
     1.0000   1.0000   0.0017   0.0017   0.0000   0.0000   0.0000   0.0000
     0.0000   0.0000   0.0000   0.0000   0.0000   0.0000

          k = 0.0000-0.2917-0.4864 ( 10248 PWs)   bands (ev):

    -6.4529  -6.4528  -6.4527  -6.4526  -6.3944  -6.3943  -6.3940  -6.3937
    -6.3750  -6.3749  -6.3745  -6.3743  -6.3354  -6.3353  -6.3350  -6.3347
    -6.2242  -6.2241  -6.2237  -6.2237  -6.1494  -6.1493  -6.1491  -6.1487
    -6.1004  -6.1002  -6.1000  -6.0999  -6.0217  -6.0217  -6.0214  -6.0213
    -5.9821  -5.9819  -5.9816  -5.9815  -5.9670  -5.9669  -5.9666  -5.9661
     0.4503   0.4503   0.4504   0.4504   5.9887   5.9887   5.9887   5.9888
     8.5632   8.5632   8.5632   8.5632   9.1835   9.1835   9.1836   9.1836
    13.2470  13.2470  13.2470  13.2470  15.4298  15.4298

     occupation numbers 
     1.0000   1.0000   1.0000   1.0000   1.0000   1.0000   1.0000   1.0000
     1.0000   1.0000   1.0000   1.0000   1.0000   1.0000   1.0000   1.0000
     1.0000   1.0000   1.0000   1.0000   1.0000   1.0000   1.0000   1.0000
     1.0000   1.0000   1.0000   1.0000   1.0000   1.0000   1.0000   1.0000
     1.0000   1.0000   1.0000   1.0000   1.0000   1.0000   1.0000   1.0000
     1.0000   1.0000   1.0000   1.0000   1.0000   1.0000   1.0000   1.0000
     1.0000   1.0000   1.0000   1.0000   0.8230   0.8230   0.8229   0.8228
     0.0000   0.0000   0.0000   0.0000   0.0000   0.0000

          k = 0.2500 0.0000 0.0000 ( 10242 PWs)   bands (ev):

    -6.5003  -6.4677  -6.4583  -6.4337  -6.4327  -6.4210  -6.4031  -6.3692
    -6.3597  -6.3478  -6.3476  -6.3302  -6.3259  -6.2938  -6.2847  -6.2778
    -6.2648  -6.2253  -6.1921  -6.1910  -6.1907  -6.1693  -6.1637  -6.1608
    -6.1448  -6.1443  -6.1165  -6.0853  -6.0822  -6.0619  -6.0238  -6.0196
    -6.0104  -5.9894  -5.9834  -5.9832  -5.9727  -5.9413  -5.9391  -5.8807
    -1.4724   0.2507   2.3364   2.3957   4.2240   4.6980   5.7912   7.7052
     7.8329   7.9207   8.5436   8.8274   9.8546  10.3993  10.7477  10.8880
    11.6114  11.9721  12.2908  12.4380  14.3326  14.6308

     occupation numbers 
     1.0000   1.0000   1.0000   1.0000   1.0000   1.0000   1.0000   1.0000
     1.0000   1.0000   1.0000   1.0000   1.0000   1.0000   1.0000   1.0000
     1.0000   1.0000   1.0000   1.0000   1.0000   1.0000   1.0000   1.0000
     1.0000   1.0000   1.0000   1.0000   1.0000   1.0000   1.0000   1.0000
     1.0000   1.0000   1.0000   1.0000   1.0000   1.0000   1.0000   1.0000
     1.0000   1.0000   1.0000   1.0000   1.0000   1.0000   1.0000   1.0000
     1.0000   1.0000   1.0000   1.0000   0.0000   0.0000   0.0000   0.0000
     0.0000   0.0000   0.0000   0.0000   0.0000   0.0000

          k = 0.2500 0.0000 0.2432 ( 10228 PWs)   bands (ev):

    -6.4974  -6.4679  -6.4524  -6.4398  -6.4310  -6.4303  -6.3848  -6.3770
    -6.3726  -6.3644  -6.3504  -6.3456  -6.3226  -6.3153  -6.2736  -6.2666
    -6.2571  -6.2468  -6.2211  -6.1956  -6.1790  -6.1711  -6.1700  -6.1483
    -6.1199  -6.1090  -6.1089  -6.0930  -6.0732  -6.0546  -6.0377  -6.0165
    -6.0096  -5.9961  -5.9827  -5.9789  -5.9772  -5.9393  -5.9158  -5.8926
    -1.0148   0.7054   2.5255   2.5945   2.7902   4.6764   4.7951   6.6883
     6.9755   7.1030   8.5034   8.8330   9.7572  11.1975  11.8928  12.0645
    12.3696  12.6311  13.4147  13.5660  13.5862  14.3565

     occupation numbers 
     1.0000   1.0000   1.0000   1.0000   1.0000   1.0000   1.0000   1.0000
     1.0000   1.0000   1.0000   1.0000   1.0000   1.0000   1.0000   1.0000
     1.0000   1.0000   1.0000   1.0000   1.0000   1.0000   1.0000   1.0000
     1.0000   1.0000   1.0000   1.0000   1.0000   1.0000   1.0000   1.0000
     1.0000   1.0000   1.0000   1.0000   1.0000   1.0000   1.0000   1.0000
     1.0000   1.0000   1.0000   1.0000   1.0000   1.0000   1.0000   1.0000
     1.0000   1.0000   1.0000   1.0000   0.0000   0.0000   0.0000   0.0000
     0.0000   0.0000   0.0000   0.0000   0.0000   0.0000

          k = 0.2500 0.0000-0.4864 ( 10222 PWs)   bands (ev):

    -6.4637  -6.4634  -6.4585  -6.4582  -6.4306  -6.4306  -6.4106  -6.4105
    -6.3532  -6.3529  -6.3520  -6.3517  -6.3216  -6.3213  -6.3058  -6.3057
    -6.2142  -6.2141  -6.2066  -6.2065  -6.1768  -6.1768  -6.1599  -6.1595
    -6.1435  -6.1435  -6.0873  -6.0873  -6.0594  -6.0593  -6.0103  -6.0101
    -5.9843  -5.9842  -5.9839  -5.9837  -5.9420  -5.9417  -5.9286  -5.9283
     0.3458   0.3459   1.9859   1.9859   3.5779   3.5780   5.6738   5.6738
     5.9536   5.9536   8.2265   8.2265  11.3793  11.3793  12.4282  12.4282
    12.4687  12.4687  14.3850  14.3850  15.1608  15.1608

     occupation numbers 
     1.0000   1.0000   1.0000   1.0000   1.0000   1.0000   1.0000   1.0000
     1.0000   1.0000   1.0000   1.0000   1.0000   1.0000   1.0000   1.0000
     1.0000   1.0000   1.0000   1.0000   1.0000   1.0000   1.0000   1.0000
     1.0000   1.0000   1.0000   1.0000   1.0000   1.0000   1.0000   1.0000
     1.0000   1.0000   1.0000   1.0000   1.0000   1.0000   1.0000   1.0000
     1.0000   1.0000   1.0000   1.0000   1.0000   1.0000   1.0000   1.0000
     1.0000   1.0000   1.0000   1.0000   0.0000   0.0000   0.0000   0.0000
     0.0000   0.0000   0.0000   0.0000   0.0000   0.0000

          k = 0.2500-0.2917 0.0000 ( 10276 PWs)   bands (ev):

    -6.4689  -6.4689  -6.4530  -6.4524  -6.3998  -6.3993  -6.3874  -6.3874
    -6.3861  -6.3859  -6.3279  -6.3278  -6.3232  -6.3231  -6.3016  -6.3013
    -6.2570  -6.2568  -6.2372  -6.2371  -6.1853  -6.1851  -6.1325  -6.1321
    -6.0890  -6.0889  -6.0679  -6.0677  -6.0370  -6.0369  -6.0362  -6.0358
    -6.0254  -6.0250  -5.9995  -5.9995  -5.9688  -5.9684  -5.9137  -5.9132
    -0.8799  -0.8799   2.9544   2.9545   4.5256   4.5256   6.1892   6.1892
     7.1881   7.1881   8.8589   8.8589  10.5935  10.5935  11.1800  11.1800
    11.6289  11.6289  13.0402  13.0402  13.9159  13.9159

     occupation numbers 
     1.0000   1.0000   1.0000   1.0000   1.0000   1.0000   1.0000   1.0000
     1.0000   1.0000   1.0000   1.0000   1.0000   1.0000   1.0000   1.0000
     1.0000   1.0000   1.0000   1.0000   1.0000   1.0000   1.0000   1.0000
     1.0000   1.0000   1.0000   1.0000   1.0000   1.0000   1.0000   1.0000
     1.0000   1.0000   1.0000   1.0000   1.0000   1.0000   1.0000   1.0000
     1.0000   1.0000   1.0000   1.0000   1.0000   1.0000   1.0000   1.0000
     1.0000   1.0000   1.0000   1.0000   0.0000   0.0000   0.0000   0.0000
     0.0000   0.0000   0.0000   0.0000   0.0000   0.0000

          k = 0.2500-0.2917 0.2432 ( 10248 PWs)   bands (ev):

    -6.4641  -6.4638  -6.4519  -6.4518  -6.4108  -6.4105  -6.3958  -6.3956
    -6.3803  -6.3802  -6.3521  -6.3518  -6.3212  -6.3210  -6.3062  -6.3060
    -6.2608  -6.2607  -6.2082  -6.2080  -6.1721  -6.1718  -6.1228  -6.1225
    -6.1145  -6.1142  -6.0736  -6.0735  -6.0607  -6.0605  -6.0168  -6.0166
    -6.0075  -6.0074  -6.0048  -6.0047  -5.9563  -5.9561  -5.9145  -5.9141
    -0.4230  -0.4230   2.8086   2.8086   3.8346   3.8346   5.3639   5.3639
     7.6173   7.6173   8.4489   8.4489  10.1576  10.1576  11.3986  11.3986
    12.4779  12.4779  13.6222  13.6222  14.4889  14.4889

     occupation numbers 
     1.0000   1.0000   1.0000   1.0000   1.0000   1.0000   1.0000   1.0000
     1.0000   1.0000   1.0000   1.0000   1.0000   1.0000   1.0000   1.0000
     1.0000   1.0000   1.0000   1.0000   1.0000   1.0000   1.0000   1.0000
     1.0000   1.0000   1.0000   1.0000   1.0000   1.0000   1.0000   1.0000
     1.0000   1.0000   1.0000   1.0000   1.0000   1.0000   1.0000   1.0000
     1.0000   1.0000   1.0000   1.0000   1.0000   1.0000   1.0000   1.0000
     1.0000   1.0000   1.0000   1.0000   0.0000   0.0000   0.0000   0.0000
     0.0000   0.0000   0.0000   0.0000   0.0000   0.0000

          k = 0.2500-0.2917-0.4864 ( 10228 PWs)   bands (ev):

    -6.4524  -6.4523  -6.4522  -6.4518  -6.4142  -6.4142  -6.4140  -6.4139
    -6.3579  -6.3577  -6.3577  -6.3576  -6.3416  -6.3415  -6.3414  -6.3411
    -6.2156  -6.2155  -6.2154  -6.2152  -6.1566  -6.1565  -6.1563  -6.1561
    -6.0901  -6.0900  -6.0899  -6.0898  -6.0376  -6.0375  -6.0373  -6.0372
    -5.9974  -5.9974  -5.9971  -5.9970  -5.9340  -5.9340  -5.9338  -5.9334
     0.9212   0.9212   0.9213   0.9213   4.7813   4.7813   4.7813   4.7813
     7.2158   7.2158   7.2158   7.2158  11.2593  11.2593  11.2594  11.2594
    13.0902  13.0902  13.0902  13.0903  16.0513  16.0514

     occupation numbers 
     1.0000   1.0000   1.0000   1.0000   1.0000   1.0000   1.0000   1.0000
     1.0000   1.0000   1.0000   1.0000   1.0000   1.0000   1.0000   1.0000
     1.0000   1.0000   1.0000   1.0000   1.0000   1.0000   1.0000   1.0000
     1.0000   1.0000   1.0000   1.0000   1.0000   1.0000   1.0000   1.0000
     1.0000   1.0000   1.0000   1.0000   1.0000   1.0000   1.0000   1.0000
     1.0000   1.0000   1.0000   1.0000   1.0000   1.0000   1.0000   1.0000
     1.0000   1.0000   1.0000   1.0000   0.0000   0.0000   0.0000   0.0000
     0.0000   0.0000   0.0000   0.0000   0.0000   0.0000

          k =-0.5000 0.0000 0.0000 ( 10294 PWs)   bands (ev):

    -6.4820  -6.4818  -6.4313  -6.4312  -6.4207  -6.4205  -6.4124  -6.4123
    -6.3843  -6.3840  -6.3060  -6.3057  -6.2864  -6.2863  -6.2692  -6.2692
    -6.2209  -6.2209  -6.2003  -6.2002  -6.1845  -6.1843  -6.1662  -6.1661
    -6.1473  -6.1470  -6.1151  -6.1149  -6.0783  -6.0783  -6.0643  -6.0642
    -6.0107  -6.0105  -5.9775  -5.9772  -5.9391  -5.9390  -5.8920  -5.8918
    -0.0113  -0.0113   1.7324   1.7324   3.5617   3.5618   7.2841   7.2841
     7.7483   7.7483   9.1007   9.1007   9.3213   9.3213  10.3130  10.3131
    12.3442  12.3442  12.7584  12.7584  13.2713  13.2713

     occupation numbers 
     1.0000   1.0000   1.0000   1.0000   1.0000   1.0000   1.0000   1.0000
     1.0000   1.0000   1.0000   1.0000   1.0000   1.0000   1.0000   1.0000
     1.0000   1.0000   1.0000   1.0000   1.0000   1.0000   1.0000   1.0000
     1.0000   1.0000   1.0000   1.0000   1.0000   1.0000   1.0000   1.0000
     1.0000   1.0000   1.0000   1.0000   1.0000   1.0000   1.0000   1.0000
     1.0000   1.0000   1.0000   1.0000   1.0000   1.0000   1.0000   1.0000
     1.0000   1.0000   0.9631   0.9631   0.3067   0.3066   0.0000   0.0000
     0.0000   0.0000   0.0000   0.0000   0.0000   0.0000

          k =-0.5000 0.0000 0.2432 ( 10268 PWs)   bands (ev):

    -6.4898  -6.4896  -6.4365  -6.4364  -6.4261  -6.4260  -6.4148  -6.4147
    -6.3369  -6.3368  -6.3344  -6.3341  -6.3279  -6.3278  -6.2657  -6.2656
    -6.2611  -6.2611  -6.1891  -6.1891  -6.1813  -6.1812  -6.1611  -6.1609
    -6.1046  -6.1046  -6.0972  -6.0969  -6.0897  -6.0897  -6.0677  -6.0674
    -6.0045  -6.0043  -5.9685  -5.9683  -5.9349  -5.9348  -5.8947  -5.8944
     0.4405   0.4405   2.1903   2.1904   3.3023   3.3023   5.1279   5.1279
     6.4384   6.4384   8.0675   8.0675  10.9399  10.9400  12.2063  12.2063
    13.2743  13.2743  13.9380  13.9380  14.7408  14.7408

     occupation numbers 
     1.0000   1.0000   1.0000   1.0000   1.0000   1.0000   1.0000   1.0000
     1.0000   1.0000   1.0000   1.0000   1.0000   1.0000   1.0000   1.0000
     1.0000   1.0000   1.0000   1.0000   1.0000   1.0000   1.0000   1.0000
     1.0000   1.0000   1.0000   1.0000   1.0000   1.0000   1.0000   1.0000
     1.0000   1.0000   1.0000   1.0000   1.0000   1.0000   1.0000   1.0000
     1.0000   1.0000   1.0000   1.0000   1.0000   1.0000   1.0000   1.0000
     1.0000   1.0000   1.0000   1.0000   0.0000   0.0000   0.0000   0.0000
     0.0000   0.0000   0.0000   0.0000   0.0000   0.0000

          k =-0.5000 0.0000-0.4864 ( 10184 PWs)   bands (ev):

    -6.4738  -6.4736  -6.4736  -6.4731  -6.3984  -6.3983  -6.3982  -6.3981
    -6.3785  -6.3784  -6.3782  -6.3780  -6.2952  -6.2951  -6.2949  -6.2949
    -6.2339  -6.2339  -6.2335  -6.2335  -6.1466  -6.1465  -6.1465  -6.1462
    -6.1071  -6.1071  -6.1070  -6.1069  -6.0674  -6.0673  -6.0672  -6.0670
    -5.9768  -5.9766  -5.9765  -5.9764  -5.9155  -5.9155  -5.9153  -5.9148
     1.7369   1.7370   1.7370   1.7370   3.5121   3.5122   3.5122   3.5122
     6.3541   6.3541   6.3541   6.3541  12.7525  12.7525  12.7525  12.7525
    13.8390  13.8390  13.8390  13.8390  16.5483  16.5484

     occupation numbers 
     1.0000   1.0000   1.0000   1.0000   1.0000   1.0000   1.0000   1.0000
     1.0000   1.0000   1.0000   1.0000   1.0000   1.0000   1.0000   1.0000
     1.0000   1.0000   1.0000   1.0000   1.0000   1.0000   1.0000   1.0000
     1.0000   1.0000   1.0000   1.0000   1.0000   1.0000   1.0000   1.0000
     1.0000   1.0000   1.0000   1.0000   1.0000   1.0000   1.0000   1.0000
     1.0000   1.0000   1.0000   1.0000   1.0000   1.0000   1.0000   1.0000
     1.0000   1.0000   1.0000   1.0000   0.0000   0.0000   0.0000   0.0000
     0.0000   0.0000   0.0000   0.0000   0.0000   0.0000

          k =-0.5000-0.2917 0.0000 ( 10196 PWs)   bands (ev):

    -6.4489  -6.4487  -6.4486  -6.4483  -6.4014  -6.4014  -6.4012  -6.4011
    -6.3680  -6.3678  -6.3676  -6.3676  -6.3023  -6.3023  -6.3022  -6.3019
    -6.2271  -6.2269  -6.2267  -6.2265  -6.1814  -6.1812  -6.1811  -6.1810
    -6.0833  -6.0831  -6.0830  -6.0825  -6.0288  -6.0287  -6.0287  -6.0283
    -6.0199  -6.0198  -6.0197  -6.0196  -5.9345  -5.9344  -5.9342  -5.9336
     0.5797   0.5798   0.5798   0.5798   5.7408   5.7408   5.7408   5.7408
     7.7361   7.7361   7.7362   7.7362  10.0058  10.0058  10.0058  10.0058
    13.4290  13.4290  13.4290  13.4290  14.6646  14.6646

     occupation numbers 
     1.0000   1.0000   1.0000   1.0000   1.0000   1.0000   1.0000   1.0000
     1.0000   1.0000   1.0000   1.0000   1.0000   1.0000   1.0000   1.0000
     1.0000   1.0000   1.0000   1.0000   1.0000   1.0000   1.0000   1.0000
     1.0000   1.0000   1.0000   1.0000   1.0000   1.0000   1.0000   1.0000
     1.0000   1.0000   1.0000   1.0000   1.0000   1.0000   1.0000   1.0000
     1.0000   1.0000   1.0000   1.0000   1.0000   1.0000   1.0000   1.0000
     1.0000   1.0000   1.0000   1.0000   0.0000   0.0000   0.0000   0.0000
     0.0000   0.0000   0.0000   0.0000   0.0000   0.0000

          k =-0.5000-0.2917 0.2432 ( 10268 PWs)   bands (ev):

    -6.4505  -6.4503  -6.4501  -6.4497  -6.4075  -6.4074  -6.4073  -6.4072
    -6.3739  -6.3738  -6.3735  -6.3734  -6.3203  -6.3202  -6.3201  -6.3195
    -6.2161  -6.2160  -6.2159  -6.2157  -6.1518  -6.1518  -6.1517  -6.1516
    -6.1072  -6.1072  -6.1069  -6.1066  -6.0468  -6.0465  -6.0464  -6.0463
    -5.9936  -5.9935  -5.9933  -5.9932  -5.9271  -5.9270  -5.9268  -5.9263
     1.0215   1.0215   1.0215   1.0215   4.5503   4.5503   4.5503   4.5503
     7.2704   7.2705   7.2705   7.2705  11.2042  11.2043  11.2043  11.2043
    12.9003  12.9003  12.9003  12.9004  16.6592  16.6592

     occupation numbers 
     1.0000   1.0000   1.0000   1.0000   1.0000   1.0000   1.0000   1.0000
     1.0000   1.0000   1.0000   1.0000   1.0000   1.0000   1.0000   1.0000
     1.0000   1.0000   1.0000   1.0000   1.0000   1.0000   1.0000   1.0000
     1.0000   1.0000   1.0000   1.0000   1.0000   1.0000   1.0000   1.0000
     1.0000   1.0000   1.0000   1.0000   1.0000   1.0000   1.0000   1.0000
     1.0000   1.0000   1.0000   1.0000   1.0000   1.0000   1.0000   1.0000
     1.0000   1.0000   1.0000   1.0000   0.0000   0.0000   0.0000   0.0000
     0.0000   0.0000   0.0000   0.0000   0.0000   0.0000

          k =-0.5000-0.2917-0.4864 ( 10232 PWs)   bands (ev):

    -6.4494  -6.4492  -6.4489  -6.4485  -6.4060  -6.4058  -6.4056  -6.4056
    -6.3677  -6.3677  -6.3674  -6.3672  -6.3672  -6.3670  -6.3670  -6.3666
    -6.1692  -6.1692  -6.1690  -6.1689  -6.1646  -6.1646  -6.1642  -6.1640
    -6.0870  -6.0869  -6.0868  -6.0865  -6.0848  -6.0847  -6.0846  -6.0844
    -5.9742  -5.9740  -5.9738  -5.9737  -5.9236  -5.9235  -5.9233  -5.9228
     1.9735   1.9736   1.9736   1.9736   2.9104   2.9104   2.9104   2.9104
     7.6901   7.6901   7.6901   7.6902   9.8869   9.8870   9.8870   9.8870
    16.6131  16.6131  16.6131  16.6132  16.8983  16.8983

     occupation numbers 
     1.0000   1.0000   1.0000   1.0000   1.0000   1.0000   1.0000   1.0000
     1.0000   1.0000   1.0000   1.0000   1.0000   1.0000   1.0000   1.0000
     1.0000   1.0000   1.0000   1.0000   1.0000   1.0000   1.0000   1.0000
     1.0000   1.0000   1.0000   1.0000   1.0000   1.0000   1.0000   1.0000
     1.0000   1.0000   1.0000   1.0000   1.0000   1.0000   1.0000   1.0000
     1.0000   1.0000   1.0000   1.0000   1.0000   1.0000   1.0000   1.0000
     1.0000   1.0000   1.0000   1.0000   0.0000   0.0000   0.0000   0.0000
     0.0000   0.0000   0.0000   0.0000   0.0000   0.0000

     the Fermi energy is     9.2727 ev

!    total energy              =   -2266.57882426 Ry
     total all-electron energy =    -31147.896113 Ry
     estimated scf accuracy    <       0.00000010 Ry
     smearing contrib. (-TS)   =      -0.00174078 Ry
     internal energy E=F+TS    =   -2266.57708348 Ry

     The total energy is F=E-TS. E is the sum of the following terms:
     one-electron contribution =    -792.47068763 Ry
     hartree contribution      =     506.63228056 Ry
     xc contribution           =    -314.54649157 Ry
     ewald contribution        =    -744.38944457 Ry
     one-center paw contrib.   =    -921.80274027 Ry
      -> PAW hartree energy AE =     142.62740882 Ry
      -> PAW hartree energy PS =    -140.51633272 Ry
      -> PAW xc energy AE      =    -156.77461609 Ry
      -> PAW xc energy PS      =      39.43813033 Ry
      -> total E_H with PAW    =     508.74335666 Ry
      -> total E_XC with PAW   =    -431.88297733 Ry

     convergence has been achieved in  12 iterations


     -----------------------------------------------
     Non-local corr. energy    =       3.77250688 Ry
     -----------------------------------------------


     Forces acting on atoms (cartesian axes, Ry/au):

     atom    1 type  1   force =     0.00000000    0.00005950    0.00136817
     atom    2 type  1   force =     0.00000000   -0.00011747    0.00141591
     atom    3 type  1   force =     0.00000000   -0.00005950   -0.00136817
     atom    4 type  1   force =     0.00000000    0.00011747   -0.00141591
     atom    5 type  1   force =     0.00000000    0.00013442    0.00135946
     atom    6 type  1   force =     0.00000000   -0.00013379    0.00145525
     atom    7 type  1   force =     0.00000000   -0.00013442   -0.00135946
     atom    8 type  1   force =     0.00000000    0.00013379   -0.00145525
     The non-local contrib.  to forces
     atom    1 type  1   force =     0.00000000   -0.16210397   -0.04303965
     atom    2 type  1   force =     0.00000000    0.16205030   -0.04302045
     atom    3 type  1   force =     0.00000000    0.16210397    0.04303965
     atom    4 type  1   force =     0.00000000   -0.16205030    0.04302045
     atom    5 type  1   force =     0.00000000   -0.16205403   -0.04304971
     atom    6 type  1   force =     0.00000000    0.16208143   -0.04299996
     atom    7 type  1   force =     0.00000000    0.16205403    0.04304971
     atom    8 type  1   force =     0.00000000   -0.16208143    0.04299996
     The ionic contribution  to forces
     atom    1 type  1   force =    -0.00000028    3.11003374    0.39226944
     atom    2 type  1   force =    -0.00000028   -3.11003497    0.39226984
     atom    3 type  1   force =    -0.00000028   -3.11003374   -0.39226944
     atom    4 type  1   force =    -0.00000028    3.11003497   -0.39226984
     atom    5 type  1   force =     0.00000028    3.11003494    0.39226960
     atom    6 type  1   force =     0.00000028   -3.11003377    0.39226968
     atom    7 type  1   force =     0.00000028   -3.11003494   -0.39226960
     atom    8 type  1   force =     0.00000028    3.11003377   -0.39226968
     The local contribution  to forces
     atom    1 type  1   force =    -0.00000000   -2.95137233   -0.34836262
     atom    2 type  1   force =    -0.00000000    2.95146443   -0.34839786
     atom    3 type  1   force =     0.00000000    2.95138478    0.34837003
     atom    4 type  1   force =    -0.00000000   -2.95145190    0.34840539
     atom    5 type  1   force =     0.00000360   -2.95145657   -0.34834186
     atom    6 type  1   force =     0.00000360    2.95141508   -0.34843722
     atom    7 type  1   force =     0.00000360    2.95146903    0.34834927
     atom    8 type  1   force =     0.00000360   -2.95140256    0.34844475
     The core correction contribution to forces
     atom    1 type  1   force =     0.00000000    0.00360634    0.00054838
     atom    2 type  1   force =     0.00000000   -0.00360566    0.00054783
     atom    3 type  1   force =     0.00000000   -0.00360542   -0.00054782
     atom    4 type  1   force =     0.00000000    0.00360658   -0.00054728
     atom    5 type  1   force =     0.00000027    0.00360620    0.00054908
     atom    6 type  1   force =     0.00000027   -0.00360508    0.00054726
     atom    7 type  1   force =     0.00000027   -0.00360529   -0.00054853
     atom    8 type  1   force =     0.00000027    0.00360600   -0.00054671
     The Hubbard contrib.    to forces
     atom    1 type  1   force =     0.00000000    0.00000000    0.00000000
     atom    2 type  1   force =     0.00000000    0.00000000    0.00000000
     atom    3 type  1   force =     0.00000000    0.00000000    0.00000000
     atom    4 type  1   force =     0.00000000    0.00000000    0.00000000
     atom    5 type  1   force =     0.00000000    0.00000000    0.00000000
     atom    6 type  1   force =     0.00000000    0.00000000    0.00000000
     atom    7 type  1   force =     0.00000000    0.00000000    0.00000000
     atom    8 type  1   force =     0.00000000    0.00000000    0.00000000
     The SCF correction term to forces
     atom    1 type  1   force =    -0.00000000   -0.00009759   -0.00004339
     atom    2 type  1   force =    -0.00000000    0.00001515    0.00002059
     atom    3 type  1   force =    -0.00000000    0.00009759    0.00004339
     atom    4 type  1   force =    -0.00000000   -0.00001515   -0.00002059
     atom    5 type  1   force =     0.00000000    0.00001057   -0.00006367
     atom    6 type  1   force =     0.00000000    0.00001527    0.00007953
     atom    7 type  1   force =     0.00000000   -0.00001057    0.00006367
     atom    8 type  1   force =     0.00000000   -0.00001527   -0.00007953

     Total force =     0.003974     Total SCF correction =     0.000213


     Computing stress (Cartesian axis) and pressure



     -----------------------------------------------
     Non-local corr. energy    =       3.77250688 Ry
     -----------------------------------------------

          total   stress  (Ry/bohr**3)                   (kbar)     P=       57.91
   0.00058833   0.00000000   0.00000000           86.55        0.00        0.00
   0.00000000   0.00033878   0.00000002            0.00       49.84        0.00
   0.00000000   0.00000002   0.00025384            0.00        0.00       37.34

     kinetic stress (kbar)  11629.18      0.00      0.00
                                0.00  11600.41     -0.00
                                0.00     -0.00  11569.28

     local   stress (kbar)    950.35      0.00     -0.00
                                0.00  11580.58      0.01
                               -0.00      0.01   4248.55

     nonloc. stress (kbar)   2996.41      0.00      0.00
                                0.00   3081.61      0.00
                                0.00      0.00   3032.12

     hartree stress (kbar)  25999.40      0.00      0.00
                                0.00  21356.48     -0.01
                                0.00     -0.01  24636.22

     exc-cor stress (kbar)   7885.69      0.00      0.00
                                0.00   7885.22     -0.00
                                0.00     -0.00   7881.99

     corecor stress (kbar) -16975.03     -0.00     -0.00
                               -0.00 -16977.07     -0.00
                               -0.00     -0.00 -16974.13

     ewald   stress (kbar) -32579.58     -0.00     -0.00
                               -0.00 -38659.63     -0.00
                               -0.00     -0.00 -34538.02

     hubbard stress (kbar)      0.00      0.00      0.00
                                0.00      0.00      0.00
                                0.00      0.00      0.00

     DFT-D   stress (kbar)      0.00      0.00      0.00
                                0.00      0.00      0.00
                                0.00      0.00      0.00

     XDM     stress (kbar)      0.00      0.00      0.00
                                0.00      0.00      0.00
                                0.00      0.00      0.00

     dft-nl  stress (kbar)    180.13     -0.00     -0.00
                               -0.00    182.24      0.00
                               -0.00      0.00    181.34

     TS-vdW  stress (kbar)      0.00      0.00      0.00
                                0.00      0.00      0.00
                                0.00      0.00      0.00

     MDB     stress (kbar)      0.00      0.00      0.00
                                0.00      0.00      0.00
                                0.00      0.00      0.00

     3D-RISM stress (kbar)      0.00      0.00      0.00
                                0.00      0.00      0.00
                                0.00      0.00      0.00


     BFGS Geometry Optimization
     Energy error            =      0.0E+00 Ry
     Gradient error          =      1.5E-03 Ry/Bohr
     Cell gradient error     =      8.7E+01 kbar

     number of scf cycles    =   1
     number of bfgs steps    =   0

     enthalpy           new  =   -2266.5788242586 Ry

     new trust radius        =       0.0946481703 bohr
     new conv_thr            =       0.0000001000 Ry

     new unit-cell volume =   1066.07332 a.u.^3 (   157.97577 Ang^3 )
     density =      5.86306 g/cm^3

CELL_PARAMETERS (alat=  8.37535440)
   1.014708365   0.000000000   0.000000000
   0.000000000   1.728848091   0.000000736
   0.000000000   0.000000441   1.034378348

ATOMIC_POSITIONS (angstrom)
Ga            0.0000000000        2.6382074421        1.9051012979
Ga            0.0000000000        1.1929319304        4.1973326562
Ga            0.0000000000        5.0241299207        2.6793150649
Ga            0.0000000000        6.4694054325        0.3870837066
Ga            2.2486174097        6.4694151290        1.9050982902
Ga            2.2486174097        5.0240909257        4.1973552335
Ga            2.2486174097        1.1929222338        2.6793180725
Ga            2.2486174097        2.6382464371        0.3870611292



     Writing config-only to output data dir ./PbI2.save/
     NEW-OLD atomic charge density approx. for the potential


     -----------------------------------------------
     Non-local corr. energy    =       3.88880731 Ry
     -----------------------------------------------

     extrapolated charge  107.00849, renormalised to  104.00000

     total cpu time spent up to now is       13.3 secs

     Self-consistent Calculation

     iteration #  1     ecut=    70.00 Ry     beta= 0.70
     Davidson diagonalization with overlap

---- Real-time Memory Report at c_bands before calling an iterative solver
           167 MiB given to the printing process from OS
             0 MiB allocation reported by mallinfo(arena+hblkhd)
       1941849 MiB available memory on the node where the printing process lives
------------------
     ethr =  1.00E-06,  avg # of iterations =  7.3


     -----------------------------------------------
     Non-local corr. energy    =       3.56242475 Ry
     -----------------------------------------------


     total cpu time spent up to now is       14.7 secs

     total energy              =   -2265.01886461 Ry
     estimated scf accuracy    <       1.34307418 Ry

     iteration #  2     ecut=    70.00 Ry     beta= 0.70
     Davidson diagonalization with overlap

---- Real-time Memory Report at c_bands before calling an iterative solver
           167 MiB given to the printing process from OS
             0 MiB allocation reported by mallinfo(arena+hblkhd)
       1941877 MiB available memory on the node where the printing process lives
------------------
     ethr =  1.29E-03,  avg # of iterations =  4.1


     -----------------------------------------------
     Non-local corr. energy    =       3.70167210 Ry
     -----------------------------------------------


     total cpu time spent up to now is       15.6 secs

     total energy              =   -2266.62017730 Ry
     estimated scf accuracy    <       3.67465161 Ry

     iteration #  3     ecut=    70.00 Ry     beta= 0.70
     Davidson diagonalization with overlap

---- Real-time Memory Report at c_bands before calling an iterative solver
           167 MiB given to the printing process from OS
             0 MiB allocation reported by mallinfo(arena+hblkhd)
       1941882 MiB available memory on the node where the printing process lives
------------------
     ethr =  1.29E-03,  avg # of iterations =  1.0


     -----------------------------------------------
     Non-local corr. energy    =       3.62766626 Ry
     -----------------------------------------------


     total cpu time spent up to now is       16.1 secs

     total energy              =   -2267.05733611 Ry
     estimated scf accuracy    <       1.45073143 Ry

     iteration #  4     ecut=    70.00 Ry     beta= 0.70
     Davidson diagonalization with overlap

---- Real-time Memory Report at c_bands before calling an iterative solver
           167 MiB given to the printing process from OS
             0 MiB allocation reported by mallinfo(arena+hblkhd)
       1941870 MiB available memory on the node where the printing process lives
------------------
     ethr =  1.29E-03,  avg # of iterations =  1.0


     -----------------------------------------------
     Non-local corr. energy    =       3.58529127 Ry
     -----------------------------------------------


     total cpu time spent up to now is       16.5 secs

     total energy              =   -2267.31405337 Ry
     estimated scf accuracy    <       2.31744685 Ry

     iteration #  5     ecut=    70.00 Ry     beta= 0.70
     Davidson diagonalization with overlap

---- Real-time Memory Report at c_bands before calling an iterative solver
           167 MiB given to the printing process from OS
             0 MiB allocation reported by mallinfo(arena+hblkhd)
       1941853 MiB available memory on the node where the printing process lives
------------------
     ethr =  1.29E-03,  avg # of iterations =  1.0


     -----------------------------------------------
     Non-local corr. energy    =       4.10680126 Ry
     -----------------------------------------------


     total cpu time spent up to now is       17.0 secs

     total energy              =   -2265.70214401 Ry
     estimated scf accuracy    <       2.84588432 Ry

     iteration #  6     ecut=    70.00 Ry     beta= 0.70
     Davidson diagonalization with overlap

---- Real-time Memory Report at c_bands before calling an iterative solver
           167 MiB given to the printing process from OS
             0 MiB allocation reported by mallinfo(arena+hblkhd)
       1941869 MiB available memory on the node where the printing process lives
------------------
     ethr =  1.29E-03,  avg # of iterations =  4.0


     -----------------------------------------------
     Non-local corr. energy    =       3.92581017 Ry
     -----------------------------------------------


     total cpu time spent up to now is       17.9 secs

     total energy              =   -2266.50921993 Ry
     estimated scf accuracy    <       3.95700080 Ry

     iteration #  7     ecut=    70.00 Ry     beta= 0.70
     Davidson diagonalization with overlap

---- Real-time Memory Report at c_bands before calling an iterative solver
           167 MiB given to the printing process from OS
             0 MiB allocation reported by mallinfo(arena+hblkhd)
       1941863 MiB available memory on the node where the printing process lives
------------------
     ethr =  1.29E-03,  avg # of iterations =  1.1


     -----------------------------------------------
     Non-local corr. energy    =       3.88493727 Ry
     -----------------------------------------------


     total cpu time spent up to now is       18.3 secs

     total energy              =   -2266.47531157 Ry
     estimated scf accuracy    <       1.47582075 Ry

     iteration #  8     ecut=    70.00 Ry     beta= 0.70
     Davidson diagonalization with overlap

---- Real-time Memory Report at c_bands before calling an iterative solver
           167 MiB given to the printing process from OS
             0 MiB allocation reported by mallinfo(arena+hblkhd)
       1941867 MiB available memory on the node where the printing process lives
------------------
     ethr =  1.29E-03,  avg # of iterations =  2.0


     -----------------------------------------------
     Non-local corr. energy    =       3.86689555 Ry
     -----------------------------------------------


     total cpu time spent up to now is       18.9 secs

     total energy              =   -2266.54677344 Ry
     estimated scf accuracy    <       0.57568860 Ry

     iteration #  9     ecut=    70.00 Ry     beta= 0.70
     Davidson diagonalization with overlap

---- Real-time Memory Report at c_bands before calling an iterative solver
           167 MiB given to the printing process from OS
             0 MiB allocation reported by mallinfo(arena+hblkhd)
       1941869 MiB available memory on the node where the printing process lives
------------------
     ethr =  5.54E-04,  avg # of iterations =  1.3


     -----------------------------------------------
     Non-local corr. energy    =       3.86021754 Ry
     -----------------------------------------------


     total cpu time spent up to now is       19.4 secs

     total energy              =   -2266.56659958 Ry
     estimated scf accuracy    <       0.47301047 Ry

     iteration # 10     ecut=    70.00 Ry     beta= 0.70
     Davidson diagonalization with overlap

---- Real-time Memory Report at c_bands before calling an iterative solver
           167 MiB given to the printing process from OS
             0 MiB allocation reported by mallinfo(arena+hblkhd)
       1941940 MiB available memory on the node where the printing process lives
------------------
     ethr =  4.55E-04,  avg # of iterations =  1.0


     -----------------------------------------------
     Non-local corr. energy    =       3.94793200 Ry
     -----------------------------------------------


     total cpu time spent up to now is       19.8 secs

     total energy              =   -2266.73826682 Ry
     estimated scf accuracy    <       0.36510251 Ry

     iteration # 11     ecut=    70.00 Ry     beta= 0.70
     Davidson diagonalization with overlap

---- Real-time Memory Report at c_bands before calling an iterative solver
           167 MiB given to the printing process from OS
             0 MiB allocation reported by mallinfo(arena+hblkhd)
       1941873 MiB available memory on the node where the printing process lives
------------------
     ethr =  3.51E-04,  avg # of iterations =  1.9


     -----------------------------------------------
     Non-local corr. energy    =       3.99232139 Ry
     -----------------------------------------------


     total cpu time spent up to now is       20.3 secs

     total energy              =   -2266.85682398 Ry
     estimated scf accuracy    <       0.91226097 Ry

     iteration # 12     ecut=    70.00 Ry     beta= 0.70
     Davidson diagonalization with overlap

---- Real-time Memory Report at c_bands before calling an iterative solver
           167 MiB given to the printing process from OS
             0 MiB allocation reported by mallinfo(arena+hblkhd)
       1941933 MiB available memory on the node where the printing process lives
------------------
     ethr =  3.51E-04,  avg # of iterations =  1.0


     -----------------------------------------------
     Non-local corr. energy    =       3.90364226 Ry
     -----------------------------------------------


     total cpu time spent up to now is       20.8 secs

     total energy              =   -2266.68309191 Ry
     estimated scf accuracy    <       1.30722958 Ry

     iteration # 13     ecut=    70.00 Ry     beta= 0.70
     Davidson diagonalization with overlap

---- Real-time Memory Report at c_bands before calling an iterative solver
           167 MiB given to the printing process from OS
             0 MiB allocation reported by mallinfo(arena+hblkhd)
       1941944 MiB available memory on the node where the printing process lives
------------------
     ethr =  3.51E-04,  avg # of iterations =  1.0


     -----------------------------------------------
     Non-local corr. energy    =       3.70093037 Ry
     -----------------------------------------------


     total cpu time spent up to now is       21.3 secs

     total energy              =   -2266.48997979 Ry
     estimated scf accuracy    <       0.65873055 Ry

     iteration # 14     ecut=    70.00 Ry     beta= 0.70
     Davidson diagonalization with overlap

---- Real-time Memory Report at c_bands before calling an iterative solver
           167 MiB given to the printing process from OS
             0 MiB allocation reported by mallinfo(arena+hblkhd)
       1941931 MiB available memory on the node where the printing process lives
------------------
     ethr =  3.51E-04,  avg # of iterations =  3.8


     -----------------------------------------------
     Non-local corr. energy    =       3.78676540 Ry
     -----------------------------------------------


     total cpu time spent up to now is       21.9 secs

     total energy              =   -2266.55802823 Ry
     estimated scf accuracy    <       0.01392774 Ry

     iteration # 15     ecut=    70.00 Ry     beta= 0.70
     Davidson diagonalization with overlap

---- Real-time Memory Report at c_bands before calling an iterative solver
           167 MiB given to the printing process from OS
             0 MiB allocation reported by mallinfo(arena+hblkhd)
       1941924 MiB available memory on the node where the printing process lives
------------------
     ethr =  1.34E-05,  avg # of iterations =  4.0


     -----------------------------------------------
     Non-local corr. energy    =       3.78691431 Ry
     -----------------------------------------------


     total cpu time spent up to now is       22.8 secs

     total energy              =   -2266.59270198 Ry
     estimated scf accuracy    <       0.01291386 Ry

     iteration # 16     ecut=    70.00 Ry     beta= 0.70
     Davidson diagonalization with overlap

---- Real-time Memory Report at c_bands before calling an iterative solver
           167 MiB given to the printing process from OS
             0 MiB allocation reported by mallinfo(arena+hblkhd)
       1941774 MiB available memory on the node where the printing process lives
------------------
     ethr =  1.24E-05,  avg # of iterations =  1.0


     -----------------------------------------------
     Non-local corr. energy    =       3.78029465 Ry
     -----------------------------------------------


     total cpu time spent up to now is       23.3 secs

     total energy              =   -2266.58916885 Ry
     estimated scf accuracy    <       0.01006143 Ry

     iteration # 17     ecut=    70.00 Ry     beta= 0.70
     Davidson diagonalization with overlap

---- Real-time Memory Report at c_bands before calling an iterative solver
           167 MiB given to the printing process from OS
             0 MiB allocation reported by mallinfo(arena+hblkhd)
       1941813 MiB available memory on the node where the printing process lives
------------------
     ethr =  9.67E-06,  avg # of iterations =  1.0


     -----------------------------------------------
     Non-local corr. energy    =       3.77572900 Ry
     -----------------------------------------------


     total cpu time spent up to now is       23.7 secs

     total energy              =   -2266.58903790 Ry
     estimated scf accuracy    <       0.00332310 Ry

     iteration # 18     ecut=    70.00 Ry     beta= 0.70
     Davidson diagonalization with overlap

---- Real-time Memory Report at c_bands before calling an iterative solver
           169 MiB given to the printing process from OS
             0 MiB allocation reported by mallinfo(arena+hblkhd)
       1941806 MiB available memory on the node where the printing process lives
------------------
     ethr =  3.20E-06,  avg # of iterations =  3.9


     -----------------------------------------------
     Non-local corr. energy    =       3.78685848 Ry
     -----------------------------------------------


     total cpu time spent up to now is       24.5 secs

     total energy              =   -2266.59079897 Ry
     estimated scf accuracy    <       0.00019326 Ry

     iteration # 19     ecut=    70.00 Ry     beta= 0.70
     Davidson diagonalization with overlap

---- Real-time Memory Report at c_bands before calling an iterative solver
           169 MiB given to the printing process from OS
             0 MiB allocation reported by mallinfo(arena+hblkhd)
       1941646 MiB available memory on the node where the printing process lives
------------------
     ethr =  1.86E-07,  avg # of iterations =  4.0


     -----------------------------------------------
     Non-local corr. energy    =       3.78842606 Ry
     -----------------------------------------------


     total cpu time spent up to now is       25.4 secs

     total energy              =   -2266.59138209 Ry
     estimated scf accuracy    <       0.00231665 Ry

     iteration # 20     ecut=    70.00 Ry     beta= 0.70
     Davidson diagonalization with overlap

---- Real-time Memory Report at c_bands before calling an iterative solver
           169 MiB given to the printing process from OS
             0 MiB allocation reported by mallinfo(arena+hblkhd)
       1941809 MiB available memory on the node where the printing process lives
------------------
     ethr =  1.86E-07,  avg # of iterations =  1.0


     -----------------------------------------------
     Non-local corr. energy    =       3.78419523 Ry
     -----------------------------------------------


     total cpu time spent up to now is       25.9 secs

     total energy              =   -2266.59094191 Ry
     estimated scf accuracy    <       0.00307216 Ry

     iteration # 21     ecut=    70.00 Ry     beta= 0.70
     Davidson diagonalization with overlap

---- Real-time Memory Report at c_bands before calling an iterative solver
           169 MiB given to the printing process from OS
             0 MiB allocation reported by mallinfo(arena+hblkhd)
       1941799 MiB available memory on the node where the printing process lives
------------------
     ethr =  1.86E-07,  avg # of iterations =  1.6


     -----------------------------------------------
     Non-local corr. energy    =       3.77971315 Ry
     -----------------------------------------------


     total cpu time spent up to now is       26.4 secs

     total energy              =   -2266.59050236 Ry
     estimated scf accuracy    <       0.00158230 Ry

     iteration # 22     ecut=    70.00 Ry     beta= 0.70
     Davidson diagonalization with overlap

---- Real-time Memory Report at c_bands before calling an iterative solver
           169 MiB given to the printing process from OS
             0 MiB allocation reported by mallinfo(arena+hblkhd)
       1941776 MiB available memory on the node where the printing process lives
------------------
     ethr =  1.86E-07,  avg # of iterations =  4.0


     -----------------------------------------------
     Non-local corr. energy    =       3.78023312 Ry
     -----------------------------------------------


     total cpu time spent up to now is       27.2 secs

     total energy              =   -2266.59064968 Ry
     estimated scf accuracy    <       0.00004843 Ry

     iteration # 23     ecut=    70.00 Ry     beta= 0.70
     Davidson diagonalization with overlap

---- Real-time Memory Report at c_bands before calling an iterative solver
           169 MiB given to the printing process from OS
             0 MiB allocation reported by mallinfo(arena+hblkhd)
       1941797 MiB available memory on the node where the printing process lives
------------------
     ethr =  4.66E-08,  avg # of iterations =  1.1


     -----------------------------------------------
     Non-local corr. energy    =       3.77913840 Ry
     -----------------------------------------------


     total cpu time spent up to now is       27.7 secs

     total energy              =   -2266.59063339 Ry
     estimated scf accuracy    <       0.00005983 Ry

     iteration # 24     ecut=    70.00 Ry     beta= 0.70
     Davidson diagonalization with overlap

---- Real-time Memory Report at c_bands before calling an iterative solver
           169 MiB given to the printing process from OS
             0 MiB allocation reported by mallinfo(arena+hblkhd)
       1941790 MiB available memory on the node where the printing process lives
------------------
     ethr =  4.66E-08,  avg # of iterations =  1.0


     -----------------------------------------------
     Non-local corr. energy    =       3.77869564 Ry
     -----------------------------------------------


     total cpu time spent up to now is       28.2 secs

     total energy              =   -2266.59063278 Ry
     estimated scf accuracy    <       0.00000954 Ry

     iteration # 25     ecut=    70.00 Ry     beta= 0.70
     Davidson diagonalization with overlap

---- Real-time Memory Report at c_bands before calling an iterative solver
           169 MiB given to the printing process from OS
             0 MiB allocation reported by mallinfo(arena+hblkhd)
       1941791 MiB available memory on the node where the printing process lives
------------------
     ethr =  9.17E-09,  avg # of iterations =  3.8


     -----------------------------------------------
     Non-local corr. energy    =       3.77878105 Ry
     -----------------------------------------------


     total cpu time spent up to now is       28.9 secs

     total energy              =   -2266.59064056 Ry
     estimated scf accuracy    <       0.00000555 Ry

     iteration # 26     ecut=    70.00 Ry     beta= 0.70
     Davidson diagonalization with overlap

---- Real-time Memory Report at c_bands before calling an iterative solver
           169 MiB given to the printing process from OS
             0 MiB allocation reported by mallinfo(arena+hblkhd)
       1941776 MiB available memory on the node where the printing process lives
------------------
     ethr =  5.34E-09,  avg # of iterations =  1.0


     -----------------------------------------------
     Non-local corr. energy    =       3.77908200 Ry
     -----------------------------------------------


     total cpu time spent up to now is       29.4 secs

     total energy              =   -2266.59063942 Ry
     estimated scf accuracy    <       0.00000403 Ry

     iteration # 27     ecut=    70.00 Ry     beta= 0.70
     Davidson diagonalization with overlap

---- Real-time Memory Report at c_bands before calling an iterative solver
           170 MiB given to the printing process from OS
             0 MiB allocation reported by mallinfo(arena+hblkhd)
       1941779 MiB available memory on the node where the printing process lives
------------------
     ethr =  3.87E-09,  avg # of iterations =  1.0


     -----------------------------------------------
     Non-local corr. energy    =       3.77916237 Ry
     -----------------------------------------------


     total cpu time spent up to now is       29.9 secs

     total energy              =   -2266.59063949 Ry
     estimated scf accuracy    <       0.00000053 Ry

     iteration # 28     ecut=    70.00 Ry     beta= 0.70
     Davidson diagonalization with overlap

---- Real-time Memory Report at c_bands before calling an iterative solver
           170 MiB given to the printing process from OS
             0 MiB allocation reported by mallinfo(arena+hblkhd)
       1941759 MiB available memory on the node where the printing process lives
------------------
[...]
    -7.4695  -7.4695  -7.4343  -7.4343  -7.4324  -7.4324  -7.4283  -7.4283
    -7.4006  -7.4006  -7.3763  -7.3763  -7.3496  -7.3496  -7.3468  -7.3468
    -7.3046  -7.3046  -7.2646  -7.2646  -7.2515  -7.2515  -7.2028  -7.2028
    -0.8400  -0.8400   0.7481   0.7481   2.5069   2.5069   6.1931   6.1931
     6.7705   6.7705   7.6222   7.6222   8.0822   8.0822   9.0018   9.0018
    11.1199  11.1199  11.3340  11.3340  11.5799  11.5799

     occupation numbers 
     1.0000   1.0000   1.0000   1.0000   1.0000   1.0000   1.0000   1.0000
     1.0000   1.0000   1.0000   1.0000   1.0000   1.0000   1.0000   1.0000
     1.0000   1.0000   1.0000   1.0000   1.0000   1.0000   1.0000   1.0000
     1.0000   1.0000   1.0000   1.0000   1.0000   1.0000   1.0000   1.0000
     1.0000   1.0000   1.0000   1.0000   1.0000   1.0000   1.0000   1.0000
     1.0000   1.0000   1.0000   1.0000   1.0000   1.0000   1.0000   1.0000
     1.0000   1.0000   0.9875   0.9875   0.0056   0.0056   0.0000   0.0000
     0.0000   0.0000   0.0000   0.0000   0.0000   0.0000

          k =-0.4702-0.0000 0.2390 ( 11414 PWs)   bands (ev):

    -7.6728  -7.6728  -7.6308  -7.6308  -7.6247  -7.6247  -7.6120  -7.6120
    -7.5633  -7.5633  -7.5516  -7.5516  -7.5475  -7.5475  -7.4941  -7.4941
    -7.4923  -7.4923  -7.4379  -7.4379  -7.4286  -7.4286  -7.4172  -7.4172
    -7.3668  -7.3668  -7.3628  -7.3628  -7.3598  -7.3598  -7.3479  -7.3479
    -7.2937  -7.2937  -7.2639  -7.2639  -7.2480  -7.2480  -7.2009  -7.2009
    -0.4174  -0.4174   1.1852   1.1852   2.2169   2.2169   4.1411   4.1412
     5.3957   5.3957   6.9646   6.9646   9.4647   9.4647  10.8351  10.8351
    11.8023  11.8023  12.5067  12.5068  12.9105  12.9105

     occupation numbers 
     1.0000   1.0000   1.0000   1.0000   1.0000   1.0000   1.0000   1.0000
     1.0000   1.0000   1.0000   1.0000   1.0000   1.0000   1.0000   1.0000
     1.0000   1.0000   1.0000   1.0000   1.0000   1.0000   1.0000   1.0000
     1.0000   1.0000   1.0000   1.0000   1.0000   1.0000   1.0000   1.0000
     1.0000   1.0000   1.0000   1.0000   1.0000   1.0000   1.0000   1.0000
     1.0000   1.0000   1.0000   1.0000   1.0000   1.0000   1.0000   1.0000
     1.0000   1.0000   1.0000   1.0000   0.0000   0.0000   0.0000   0.0000
     0.0000   0.0000   0.0000   0.0000   0.0000   0.0000

          k =-0.4702 0.0000-0.4780 ( 11468 PWs)   bands (ev):

    -7.6563  -7.6563  -7.6563  -7.6563  -7.6102  -7.6102  -7.6101  -7.6101
    -7.5903  -7.5903  -7.5903  -7.5903  -7.5144  -7.5144  -7.5144  -7.5144
    -7.4729  -7.4729  -7.4729  -7.4729  -7.4079  -7.4079  -7.4079  -7.4079
    -7.3657  -7.3657  -7.3657  -7.3657  -7.3461  -7.3461  -7.3461  -7.3461
    -7.2708  -7.2708  -7.2708  -7.2708  -7.2222  -7.2222  -7.2222  -7.2221
     0.7884   0.7884   0.7884   0.7884   2.4527   2.4527   2.4527   2.4527
     5.3866   5.3866   5.3866   5.3866  11.1785  11.1785  11.1785  11.1785
    12.3092  12.3092  12.3092  12.3092  14.3219  14.3219

     occupation numbers 
     1.0000   1.0000   1.0000   1.0000   1.0000   1.0000   1.0000   1.0000
     1.0000   1.0000   1.0000   1.0000   1.0000   1.0000   1.0000   1.0000
     1.0000   1.0000   1.0000   1.0000   1.0000   1.0000   1.0000   1.0000
     1.0000   1.0000   1.0000   1.0000   1.0000   1.0000   1.0000   1.0000
     1.0000   1.0000   1.0000   1.0000   1.0000   1.0000   1.0000   1.0000
     1.0000   1.0000   1.0000   1.0000   1.0000   1.0000   1.0000   1.0000
     1.0000   1.0000   1.0000   1.0000   0.0000   0.0000   0.0000   0.0000
     0.0000   0.0000   0.0000   0.0000   0.0000   0.0000

          k =-0.4702-0.2834 0.0000 ( 11384 PWs)   bands (ev):

    -7.6385  -7.6385  -7.6385  -7.6385  -7.6026  -7.6026  -7.6026  -7.6026
    -7.5803  -7.5803  -7.5803  -7.5803  -7.5270  -7.5270  -7.5270  -7.5270
    -7.4728  -7.4728  -7.4728  -7.4728  -7.4221  -7.4221  -7.4221  -7.4221
    -7.3623  -7.3623  -7.3623  -7.3623  -7.3131  -7.3131  -7.3131  -7.3131
    -7.3002  -7.3002  -7.3002  -7.3002  -7.2410  -7.2410  -7.2410  -7.2410
    -0.2976  -0.2976  -0.2976  -0.2976   4.5041   4.5041   4.5041   4.5041
     6.7429   6.7429   6.7429   6.7429   8.7614   8.7614   8.7614   8.7614
    11.7289  11.7289  11.7289  11.7289  13.1306  13.1306

     occupation numbers 
     1.0000   1.0000   1.0000   1.0000   1.0000   1.0000   1.0000   1.0000
     1.0000   1.0000   1.0000   1.0000   1.0000   1.0000   1.0000   1.0000
     1.0000   1.0000   1.0000   1.0000   1.0000   1.0000   1.0000   1.0000
     1.0000   1.0000   1.0000   1.0000   1.0000   1.0000   1.0000   1.0000
     1.0000   1.0000   1.0000   1.0000   1.0000   1.0000   1.0000   1.0000
     1.0000   1.0000   1.0000   1.0000   1.0000   1.0000   1.0000   1.0000
     1.0000   1.0000   1.0000   1.0000   0.0000   0.0000   0.0000   0.0000
     0.0000   0.0000   0.0000   0.0000   0.0000   0.0000

          k =-0.4702-0.2834 0.2390 ( 11408 PWs)   bands (ev):

    -7.6397  -7.6397  -7.6397  -7.6397  -7.6113  -7.6113  -7.6113  -7.6113
    -7.5839  -7.5839  -7.5839  -7.5839  -7.5393  -7.5393  -7.5393  -7.5393
    -7.4627  -7.4627  -7.4627  -7.4627  -7.4048  -7.4048  -7.4048  -7.4048
    -7.3726  -7.3726  -7.3726  -7.3726  -7.3285  -7.3285  -7.3285  -7.3285
    -7.2818  -7.2818  -7.2818  -7.2818  -7.2337  -7.2337  -7.2337  -7.2337
     0.1146   0.1146   0.1146   0.1146   3.4512   3.4512   3.4512   3.4512
     6.2175   6.2175   6.2176   6.2176   9.7901   9.7901   9.7902   9.7902
    11.5095  11.5095  11.5096  11.5096  14.2974  14.2974

     occupation numbers 
     1.0000   1.0000   1.0000   1.0000   1.0000   1.0000   1.0000   1.0000
     1.0000   1.0000   1.0000   1.0000   1.0000   1.0000   1.0000   1.0000
     1.0000   1.0000   1.0000   1.0000   1.0000   1.0000   1.0000   1.0000
     1.0000   1.0000   1.0000   1.0000   1.0000   1.0000   1.0000   1.0000
     1.0000   1.0000   1.0000   1.0000   1.0000   1.0000   1.0000   1.0000
     1.0000   1.0000   1.0000   1.0000   1.0000   1.0000   1.0000   1.0000
     1.0000   1.0000   1.0000   1.0000   0.0000   0.0000   0.0000   0.0000
     0.0000   0.0000   0.0000   0.0000   0.0000   0.0000

          k =-0.4702-0.2834-0.4780 ( 11400 PWs)   bands (ev):

    -7.6393  -7.6393  -7.6393  -7.6393  -7.6076  -7.6076  -7.6076  -7.6076
    -7.5830  -7.5830  -7.5830  -7.5830  -7.5782  -7.5782  -7.5782  -7.5782
    -7.4223  -7.4223  -7.4223  -7.4223  -7.4203  -7.4203  -7.4203  -7.4203
    -7.3559  -7.3559  -7.3559  -7.3559  -7.3517  -7.3517  -7.3517  -7.3517
    -7.2674  -7.2674  -7.2674  -7.2674  -7.2309  -7.2309  -7.2309  -7.2309
     0.9699   0.9699   0.9699   0.9699   1.9761   1.9761   1.9762   1.9762
     6.6049   6.6049   6.6049   6.6049   8.5377   8.5377   8.5377   8.5377
    14.3512  14.3512  14.3512  14.3512  15.2023  15.2023

     occupation numbers 
     1.0000   1.0000   1.0000   1.0000   1.0000   1.0000   1.0000   1.0000
     1.0000   1.0000   1.0000   1.0000   1.0000   1.0000   1.0000   1.0000
     1.0000   1.0000   1.0000   1.0000   1.0000   1.0000   1.0000   1.0000
     1.0000   1.0000   1.0000   1.0000   1.0000   1.0000   1.0000   1.0000
     1.0000   1.0000   1.0000   1.0000   1.0000   1.0000   1.0000   1.0000
     1.0000   1.0000   1.0000   1.0000   1.0000   1.0000   1.0000   1.0000
     1.0000   1.0000   1.0000   1.0000   0.0000   0.0000   0.0000   0.0000
     0.0000   0.0000   0.0000   0.0000   0.0000   0.0000

     the Fermi energy is     7.8379 ev

!    total energy              =   -2266.60636556 Ry
     total all-electron energy =    -31147.923654 Ry
     estimated scf accuracy    <          4.2E-10 Ry
     smearing contrib. (-TS)   =      -0.00079755 Ry
     internal energy E=F+TS    =   -2266.60556801 Ry

     The total energy is F=E-TS. E is the sum of the following terms:
     one-electron contribution =    -836.13291216 Ry
     hartree contribution      =     523.23161201 Ry
     xc contribution           =    -314.13159405 Ry
     ewald contribution        =    -718.08192002 Ry
     one-center paw contrib.   =    -921.49075379 Ry
      -> PAW hartree energy AE =     141.29566883 Ry
      -> PAW hartree energy PS =    -139.13912700 Ry
      -> PAW xc energy AE      =    -156.69006593 Ry
      -> PAW xc energy PS      =      39.34717971 Ry
      -> total E_H with PAW    =     525.38815384 Ry
      -> total E_XC with PAW   =    -431.47448027 Ry

     convergence has been achieved in  26 iterations


     -----------------------------------------------
     Non-local corr. energy    =       3.79614264 Ry
     -----------------------------------------------


     Forces acting on atoms (cartesian axes, Ry/au):

     atom    1 type  1   force =     0.00000000    0.00000494    0.00004004
     atom    2 type  1   force =     0.00000000   -0.00000248    0.00003892
     atom    3 type  1   force =     0.00000000   -0.00000494   -0.00004004
     atom    4 type  1   force =     0.00000000    0.00000248   -0.00003892
     atom    5 type  1   force =     0.00000000    0.00000128    0.00003861
     atom    6 type  1   force =    -0.00000000   -0.00000359    0.00003893
     atom    7 type  1   force =     0.00000000   -0.00000128   -0.00003861
     atom    8 type  1   force =    -0.00000000    0.00000359   -0.00003893
     The non-local contrib.  to forces
     atom    1 type  1   force =     0.00000000   -0.12191443   -0.03113489
     atom    2 type  1   force =     0.00000000    0.12191275   -0.03113505
     atom    3 type  1   force =     0.00000000    0.12191443    0.03113489
     atom    4 type  1   force =     0.00000000   -0.12191275    0.03113505
     atom    5 type  1   force =     0.00000000   -0.12191046   -0.03113546
     atom    6 type  1   force =     0.00000000    0.12191305   -0.03113374
     atom    7 type  1   force =     0.00000000    0.12191046    0.03113546
     atom    8 type  1   force =     0.00000000   -0.12191305    0.03113374
     The ionic contribution  to forces
     atom    1 type  1   force =    -0.00000028    3.00163779    0.14678692
     atom    2 type  1   force =    -0.00000028   -3.00119910    0.14673058
     atom    3 type  1   force =    -0.00000028   -3.00163779   -0.14678692
     atom    4 type  1   force =    -0.00000028    3.00119910   -0.14673058
     atom    5 type  1   force =     0.00000028    3.00114482    0.14671197
     atom    6 type  1   force =     0.00000028   -3.00155186    0.14676030
     atom    7 type  1   force =     0.00000028   -3.00114482   -0.14671197
     atom    8 type  1   force =     0.00000028    3.00155186   -0.14676030
     The local contribution  to forces
     atom    1 type  1   force =     0.00000000   -2.88200741   -0.11620232
     atom    2 type  1   force =    -0.00000000    2.88158428   -0.11614653
     atom    3 type  1   force =     0.00000000    2.88202029    0.11620989
     atom    4 type  1   force =     0.00000000   -2.88157133    0.11615422
     atom    5 type  1   force =     0.00000386   -2.88152080   -0.11612780
     atom    6 type  1   force =     0.00000386    2.88193702   -0.11617727
     atom    7 type  1   force =     0.00000386    2.88153368    0.11613537
     atom    8 type  1   force =     0.00000386   -2.88192407    0.11618496
     The core correction contribution to forces
     atom    1 type  1   force =     0.00000000    0.00229458    0.00059397
     atom    2 type  1   force =     0.00000000   -0.00229398    0.00059405
     atom    3 type  1   force =     0.00000000   -0.00229363   -0.00059341
     atom    4 type  1   force =     0.00000000    0.00229492   -0.00059349
     atom    5 type  1   force =     0.00000028    0.00229507    0.00059406
     atom    6 type  1   force =     0.00000028   -0.00229383    0.00059393
     atom    7 type  1   force =     0.00000028   -0.00229412   -0.00059350
     atom    8 type  1   force =     0.00000028    0.00229477   -0.00059337
     The Hubbard contrib.    to forces
     atom    1 type  1   force =     0.00000000    0.00000000    0.00000000
     atom    2 type  1   force =     0.00000000    0.00000000    0.00000000
     atom    3 type  1   force =     0.00000000    0.00000000    0.00000000
     atom    4 type  1   force =     0.00000000    0.00000000    0.00000000
     atom    5 type  1   force =     0.00000000    0.00000000    0.00000000
     atom    6 type  1   force =     0.00000000    0.00000000    0.00000000
     atom    7 type  1   force =     0.00000000    0.00000000    0.00000000
     atom    8 type  1   force =     0.00000000    0.00000000    0.00000000
     The SCF correction term to forces
     atom    1 type  1   force =     0.00000000    0.00000132    0.00000043
     atom    2 type  1   force =     0.00000000    0.00000051    0.00000000
     atom    3 type  1   force =     0.00000000   -0.00000132   -0.00000043
     atom    4 type  1   force =     0.00000000   -0.00000051   -0.00000000
     atom    5 type  1   force =    -0.00000000   -0.00000044   -0.00000008
     atom    6 type  1   force =    -0.00000000   -0.00000103   -0.00000017
     atom    7 type  1   force =    -0.00000000    0.00000044    0.00000008
     atom    8 type  1   force =    -0.00000000    0.00000103    0.00000017

     Total force =     0.000111     Total SCF correction =     0.000003


     Computing stress (Cartesian axis) and pressure



     -----------------------------------------------
     Non-local corr. energy    =       3.79614264 Ry
     -----------------------------------------------

          total   stress  (Ry/bohr**3)                   (kbar)     P=        0.29
  -0.00000437   0.00000000   0.00000000           -0.64        0.00        0.00
   0.00000000   0.00000512  -0.00000000            0.00        0.75       -0.00
   0.00000000  -0.00000000   0.00000515            0.00       -0.00        0.76

     kinetic stress (kbar)  10173.79      0.00      0.00
                                0.00  10196.23     -0.00
                                0.00     -0.00  10180.55

     local   stress (kbar)    -71.62      0.00     -0.00
                                0.00   8327.93     -0.02
                               -0.00     -0.02   1285.89

     nonloc. stress (kbar)   2880.91      0.00      0.00
                                0.00   2939.51     -0.00
                                0.00     -0.00   2905.03

     hartree stress (kbar)  23713.37      0.00      0.00
                                0.00  19944.93      0.01
                                0.00      0.01  23097.40

     exc-cor stress (kbar)   7092.73      0.00      0.00
                                0.00   7093.82      0.00
                                0.00      0.00   7092.47

     corecor stress (kbar) -15241.50     -0.00     -0.00
                               -0.00 -15243.49     -0.00
                               -0.00     -0.00 -15241.60

     ewald   stress (kbar) -28711.17     -0.00     -0.00
                               -0.00 -33422.31      0.01
                               -0.00      0.01 -29481.90

     hubbard stress (kbar)      0.00      0.00      0.00
                                0.00      0.00      0.00
                                0.00      0.00      0.00

     DFT-D   stress (kbar)      0.00      0.00      0.00
                                0.00      0.00      0.00
                                0.00      0.00      0.00

     XDM     stress (kbar)      0.00      0.00      0.00
                                0.00      0.00      0.00
                                0.00      0.00      0.00

     dft-nl  stress (kbar)    162.84     -0.00     -0.00
                               -0.00    164.12     -0.00
                               -0.00     -0.00    162.94

     TS-vdW  stress (kbar)      0.00      0.00      0.00
                                0.00      0.00      0.00
                                0.00      0.00      0.00

     MDB     stress (kbar)      0.00      0.00      0.00
                                0.00      0.00      0.00
                                0.00      0.00      0.00

     3D-RISM stress (kbar)      0.00      0.00      0.00
                                0.00      0.00      0.00
                                0.00      0.00      0.00


     Writing all to output data dir ./PbI2.save/
 
     init_run     :      1.32s CPU      1.43s WALL (       2 calls)
     electrons    :    179.86s CPU    186.84s WALL (      12 calls)
     update_pot   :      3.86s CPU      4.01s WALL (      10 calls)
     forces       :      3.13s CPU      3.30s WALL (      12 calls)
     stress       :      7.61s CPU      7.90s WALL (      12 calls)

     Called by init_run:
     wfcinit      :      0.27s CPU      0.28s WALL (       2 calls)
     wfcinit:atom :      0.00s CPU      0.00s WALL (       6 calls)
     wfcinit:wfcr :      0.25s CPU      0.25s WALL (       6 calls)
     potinit      :      0.69s CPU      0.75s WALL (       2 calls)
     hinit0       :      0.24s CPU      0.25s WALL (       2 calls)

     Called by electrons:
     c_bands      :    122.29s CPU    124.79s WALL (     278 calls)
     sum_band     :     15.74s CPU     16.09s WALL (     278 calls)
     v_of_rho     :     24.55s CPU     26.77s WALL (     287 calls)
     v_h          :      0.25s CPU      0.26s WALL (     287 calls)
     v_xc         :     26.29s CPU     28.67s WALL (     311 calls)
     newd         :      1.38s CPU      1.40s WALL (     287 calls)
     PAW_pot      :     15.77s CPU     16.83s WALL (     297 calls)
     mix_rho      :      1.24s CPU      1.27s WALL (     278 calls)
     vdW_kernel   :      0.27s CPU      0.27s WALL (       1 calls)

     Called by c_bands:
     init_us_2    :      1.71s CPU      1.78s WALL (    1776 calls)
     init_us_2:cp :      1.70s CPU      1.77s WALL (    1776 calls)
     cegterg      :    105.97s CPU    107.88s WALL (     834 calls)

     Called by sum_band:
     sum_band:wei :      0.26s CPU      0.28s WALL (     278 calls)
     sum_band:loo :     11.61s CPU     11.86s WALL (     278 calls)
     sum_band:buf :      0.33s CPU      0.34s WALL (     834 calls)
     sum_band:ini :      0.61s CPU      0.62s WALL (     834 calls)
     sum_band:cal :      1.99s CPU      2.02s WALL (     864 calls)
     sum_band:bec :      0.07s CPU      0.07s WALL (     864 calls)
     addusdens    :      1.67s CPU      1.71s WALL (     278 calls)
     addusd:skk   :      0.02s CPU      0.02s WALL (     278 calls)
     addusd:dgemm :      0.74s CPU      0.75s WALL (     278 calls)
     addusd:qvan2 :      0.43s CPU      0.44s WALL (     278 calls)

     Called by *egterg:
     cdiaghg      :     23.59s CPU     23.81s WALL (    3010 calls)
     cegterg:over :      7.31s CPU      7.47s WALL (    2215 calls)
     cegterg:upda :      4.34s CPU      4.40s WALL (    2215 calls)
     cegterg:last :      2.50s CPU      2.53s WALL (     945 calls)
     h_psi        :     58.90s CPU     60.11s WALL (    3055 calls)
     s_psi        :      4.35s CPU      4.42s WALL (    3055 calls)
     g_psi        :      0.13s CPU      0.13s WALL (    2215 calls)

     Called by h_psi:
     h_psi:calbec :      7.13s CPU      7.22s WALL (    3055 calls)
     vloc_psi     :     46.05s CPU     47.08s WALL (    3055 calls)
     add_vuspsi   :      4.89s CPU      4.95s WALL (    3055 calls)

     General routines
     calbec       :      9.54s CPU      9.67s WALL (    4099 calls)
     fft          :     11.98s CPU     12.20s WALL (   20098 calls)
     ffts         :      0.25s CPU      0.26s WALL (     565 calls)
     fftw         :     50.83s CPU     51.98s WALL (  332596 calls)
     interpolate  :      0.37s CPU      0.37s WALL (     287 calls)
 
     Parallel routines

     PAW routines
     PAW_pot      :     15.77s CPU     16.83s WALL (     297 calls)
     PAW_symme    :      0.31s CPU      0.31s WALL (     575 calls)
 
     PWSCF        :   3m17.00s CPU   3m25.77s WALL

 
   This run was terminated on:   8:44: 3  21Feb2024            

=------------------------------------------------------------------------------=
   JOB DONE.
=------------------------------------------------------------------------------=
