
     Program PWSCF v.7.1 starts on 28Mar2024 at 14:21:51 

     This program is part of the open-source Quantum ESPRESSO suite
     for quantum simulation of materials; please cite
         "P. Giannozzi et al., J. Phys.:Condens. Matter 21 395502 (2009);
         "P. Giannozzi et al., J. Phys.:Condens. Matter 29 465901 (2017);
         "P. Giannozzi et al., J. Chem. Phys. 152 154105 (2020);
          URL http://www.quantum-espresso.org", 
     in publications or presentations arising from this work. More details at
     http://www.quantum-espresso.org/quote

     Parallel version (MPI & OpenMP), running on      20 processor cores
     Number of MPI processes:                20
     Threads/MPI process:                     1

     MPI processes distributed on     1 nodes
     1892514 MiB available memory on the printing compute node when the environment starts
 
     Reading input from espresso.pwi
Warning: card &CELL ignored
Warning: card    CELL_DYNAMICS    = 'BFGS' ignored
Warning: card / ignored

     Current dimensions of program PWSCF are:
     Max number of different atomic species (ntypx) = 10
     Max number of k-points (npk) =  40000
     Max angular momentum in pseudopotentials (lmaxx) =  4
     file Pb.pbe-dn-kjpaw_psl.1.0.0.UPF: wavefunction(s)  6S 6P 5D renormalized
     file I.pbe-dn-kjpaw_psl.1.0.0.UPF: wavefunction(s)  5S 5P renormalized

     **************************************************************************
     Initializing libbeef V0.1.2 with the BEEF-vdW functional.
     Citation: Wellendorff et al., PRB 85, 235149 (2012).
     **************************************************************************


     IMPORTANT: XC functional enforced from input :
     Exchange-correlation= BEEF-VDW
                           (   1   4  43  14   2   0   0)
     Any further DFT definition will be discarded
     Please, verify this is what you really want

     Found identity + (  0.5000 -0.0000  0.0000) symmetry
     This is a supercell, fractional translations are disabled
 
     R & G space division:  proc/nbgrp/npool/nimage =      20
     Subspace diagonalization in iterative solution of the eigenvalue problem:
     a serial algorithm will be used

 
     Parallelization info
     --------------------
     sticks:   dense  smooth     PW     G-vecs:    dense   smooth      PW
     Min         381     306     80                42326    30292    4074
     Max         383     307     81                42331    30298    4079
     Sum        7639    6121   1615               846533   605897   81527
 
     Using Slab Decomposition
 


     bravais-lattice index     =            4
     lattice parameter (alat)  =      17.8060  a.u.
     unit-cell volume          =    7656.2263 (a.u.)^3
     number of atoms/cell      =           24
     number of atomic types    =            2
     number of electrons       =       384.00
     number of Kohn-Sham states=          230
     kinetic-energy cutoff     =      70.0000  Ry
     charge density cutoff     =     350.0000  Ry
     scf convergence threshold =      1.0E-07
     mixing beta               =       0.7000
     number of iterations used =            8  plain     mixing
     Exchange-correlation= BEEF-VDW
                           (   1   4  43  14   2   0   0)

     celldm(1)=  17.806016  celldm(2)=   0.000000  celldm(3)=   1.565971
     celldm(4)=   0.000000  celldm(5)=   0.000000  celldm(6)=   0.000000

     crystal axes: (cart. coord. in units of alat)
               a(1) = (   1.000000   0.000000   0.000000 )  
               a(2) = (  -0.500000   0.866025   0.000000 )  
               a(3) = (   0.000000   0.000000   1.565971 )  

     reciprocal axes: (cart. coord. in units 2 pi/alat)
               b(1) = (  1.000000  0.577350 -0.000000 )  
               b(2) = (  0.000000  1.154701  0.000000 )  
               b(3) = (  0.000000 -0.000000  0.638581 )  


     PseudoPot. # 1 for Pb read from file:
     /trace/group/acmegroup/atimmins/packages/espresso/pseudo/psl_1.0.0/pslibrary.1.0.0/pbe/PSEUDOPOTENTIALS/Pb.pbe-dn-kjpaw_psl.1.0.0.UPF
     MD5 check sum: 39ab5b8a6bbd56b7735ad9f188aac93a
     Pseudo is Projector augmented-wave + core cor, Zval = 14.0
     Generated using 'atomic' code by A. Dal Corso  v.7.1
     Shape of augmentation charge: PSQ
     Using radial grid of 1281 points,  6 beta functions with: 
                l(1) =   0
                l(2) =   0
                l(3) =   1
                l(4) =   1
                l(5) =   2
                l(6) =   2
     Q(r) pseudized with 0 coefficients 


     PseudoPot. # 2 for I  read from file:
     /trace/group/acmegroup/atimmins/packages/espresso/pseudo/psl_1.0.0/pslibrary.1.0.0/pbe/PSEUDOPOTENTIALS/I.pbe-dn-kjpaw_psl.1.0.0.UPF
     MD5 check sum: bfa8781bc1224d19af3f3980e3fab11e
     Pseudo is Projector augmented-wave + core cor, Zval = 17.0
     Generated using 'atomic' code by A. Dal Corso  v.7.1
     Shape of augmentation charge: PSQ
     Using radial grid of 1247 points,  6 beta functions with: 
                l(1) =   0
                l(2) =   0
                l(3) =   1
                l(4) =   1
                l(5) =   2
                l(6) =   2
     Q(r) pseudized with 0 coefficients 


     atomic species   valence    mass     pseudopotential
        Pb            14.00   207.20000     Pb( 1.00)
        I             17.00   126.90447     I ( 1.00)

     No symmetry found


                                    s                        frac. trans.

      isym =  1     identity                                     

 cryst.   s( 1) = (     1          0          0      )
                  (     0          1          0      )
                  (     0          0          1      )

 cart.    s( 1) = (  1.0000000  0.0000000  0.0000000 )
                  (  0.0000000  1.0000000  0.0000000 )
                  (  0.0000000  0.0000000  1.0000000 )


     point group C_1 (1)    
     there are  1 classes
     the character table:

       E    
A      1.00

     the symmetry operations in each class and the name of the first element:

     E        1
          identity                                               

   Cartesian axes

     site n.     atom                  positions (alat units)
         1           Pb  tau(   1) = (   0.2500170   0.4329745   1.5659650  )
         2           Pb  tau(   2) = (   0.2500068   0.4329836   0.7829793  )
         3           Pb  tau(   3) = (   0.0000153   0.8659852   1.5659567  )
         4           Pb  tau(   4) = (   0.0000051   0.8659943   0.7829710  )
         5           Pb  tau(   5) = (   0.7500170   0.4329726   1.5659715  )
         6           Pb  tau(   6) = (   0.7500068   0.4329816   0.7829858  )
         7           Pb  tau(   7) = (   0.5000153   0.8659833   1.5659633  )
         8           Pb  tau(   8) = (   0.5000051   0.8659923   0.7829776  )
         9           I   tau(   9) = (   0.2500107   0.1443099   0.5818649  )
        10           I   tau(  10) = (   0.2500209   0.1443009   1.3648506  )
        11           I   tau(  11) = (   0.0000091   0.5773207   0.5818567  )
        12           I   tau(  12) = (   0.0000193   0.5773116   1.3648424  )
        13           I   tau(  13) = (   0.7500107   0.1443080   0.5818714  )
        14           I   tau(  14) = (   0.7500209   0.1442990   1.3648571  )
        15           I   tau(  15) = (   0.5000091   0.5773187   0.5818632  )
        16           I   tau(  16) = (   0.5000193   0.5773097   1.3648489  )
        17           I   tau(  17) = (  -0.0000034   0.2886595   0.2011110  )
        18           I   tau(  18) = (   0.0000068   0.2886504   0.9840967  )
        19           I   tau(  19) = (  -0.2500051   0.7216702   0.2011027  )
        20           I   tau(  20) = (  -0.2499949   0.7216611   0.9840884  )
        21           I   tau(  21) = (   0.4999966   0.2886575   0.2011175  )
        22           I   tau(  22) = (   0.5000068   0.2886485   0.9841032  )
        23           I   tau(  23) = (   0.2499949   0.7216682   0.2011092  )
        24           I   tau(  24) = (   0.2500051   0.7216592   0.9840949  )

   Crystallographic axes

     site n.     atom                  positions (cryst. coord.)
         1           Pb  tau(   1) = (  0.4999949  0.4999559  0.9999959  )
         2           Pb  tau(   2) = (  0.4999900  0.4999663  0.4999959  )
         3           Pb  tau(   3) = (  0.4999921  0.9999536  0.9999906  )
         4           Pb  tau(   4) = (  0.4999871  0.9999640  0.4999906  )
         5           Pb  tau(   5) = (  0.9999938  0.4999537  1.0000001  )
         6           Pb  tau(   6) = (  0.9999888  0.4999641  0.5000001  )
         7           Pb  tau(   7) = (  0.9999910  0.9999514  0.9999948  )
         8           Pb  tau(   8) = (  0.9999860  0.9999618  0.4999948  )
         9           I   tau(   9) = (  0.3333281  0.1666348  0.3715680  )
        10           I   tau(  10) = (  0.3333331  0.1666243  0.8715680  )
        11           I   tau(  11) = (  0.3333253  0.6666325  0.3715628  )
        12           I   tau(  12) = (  0.3333303  0.6666220  0.8715628  )
        13           I   tau(  13) = (  0.8333270  0.1666326  0.3715722  )
        14           I   tau(  14) = (  0.8333320  0.1666221  0.8715722  )
        15           I   tau(  15) = (  0.8333242  0.6666303  0.3715669  )
        16           I   tau(  16) = (  0.8333292  0.6666198  0.8715669  )
        17           I   tau(  17) = (  0.1666542  0.3333152  0.1284257  )
        18           I   tau(  18) = (  0.1666592  0.3333048  0.6284257  )
        19           I   tau(  19) = (  0.1666514  0.8333129  0.1284204  )
        20           I   tau(  20) = (  0.1666564  0.8333025  0.6284204  )
        21           I   tau(  21) = (  0.6666531  0.3333130  0.1284299  )
        22           I   tau(  22) = (  0.6666581  0.3333026  0.6284299  )
        23           I   tau(  23) = (  0.6666503  0.8333107  0.1284246  )
        24           I   tau(  24) = (  0.6666553  0.8333003  0.6284246  )

     number of k points=     4  Gaussian smearing, width (Ry)=  0.0100
                       cart. coord. in units 2pi/alat
        k(    1) = (   0.0000000   0.0000000   0.0000000), wk =   0.5000000
        k(    2) = (   0.0000000  -0.5773503   0.0000000), wk =   0.5000000
        k(    3) = (   0.5000000  -0.2886751   0.0000000), wk =   0.5000000
        k(    4) = (  -0.5000000  -0.2886751   0.0000000), wk =   0.5000000

                       cryst. coord.
        k(    1) = (   0.0000000   0.0000000   0.0000000), wk =   0.5000000
        k(    2) = (   0.0000000  -0.5000000   0.0000000), wk =   0.5000000
        k(    3) = (   0.5000000  -0.5000000   0.0000000), wk =   0.5000000
        k(    4) = (  -0.5000000  -0.0000000   0.0000000), wk =   0.5000000

     Dense  grid:   846533 G-vectors     FFT dimensions: ( 108, 108, 180)

     Smooth grid:   605897 G-vectors     FFT dimensions: (  96,  96, 150)

     Dynamical RAM for                 wfc:      13.29 MB

     Dynamical RAM for     wfc (w. buffer):      66.44 MB

     Dynamical RAM for           str. fact:       1.29 MB

     Dynamical RAM for           local pot:       0.00 MB

     Dynamical RAM for          nlocal pot:      24.96 MB

     Dynamical RAM for                qrad:       3.00 MB

     Dynamical RAM for          rho,v,vnew:       4.34 MB

     Dynamical RAM for               rhoin:       1.45 MB

     Dynamical RAM for            rho*nmix:      10.33 MB

     Dynamical RAM for           G-vectors:       2.65 MB

     Dynamical RAM for          h,s,v(r/c):      38.75 MB

     Dynamical RAM for          <psi|beta>:       1.52 MB

     Dynamical RAM for                 psi:      53.15 MB

     Dynamical RAM for                hpsi:      53.15 MB

     Dynamical RAM for                spsi:      53.15 MB

     Dynamical RAM for      wfcinit/wfcrot:      27.79 MB

     Dynamical RAM for           addusdens:     130.48 MB

     Dynamical RAM for          addusforce:     150.24 MB

     Dynamical RAM for         addusstress:     129.83 MB

     Estimated static dynamical RAM per process >     110.07 MB

     Estimated max dynamical RAM per process >     320.11 MB

     Estimated total dynamical RAM >       6.25 GB

     Atomic positions and unit cell read from directory:
     ./PbI2.save/
     Atomic positions from file used, from input discarded
 

     Check: negative core charge=   -0.000001

     The initial density is read from file :
     ./PbI2.save/charge-density



     %%%%%%%%%%%%%%%%%%%%%%%%%%%%%%%%%%%%%%%%%%%%%%%%%%%%%%%%%%%%%%%%%%%%%%%%
     %                                                                      %
     % You are using vdW-DF, which was implemented by the Thonhauser group. %
     % Please cite the following two papers that made this development      %
     % possible and the two reviews that describe the various versions:     %
     %                                                                      %
     %   T. Thonhauser et al., PRL 115, 136402 (2015).                      %
     %   T. Thonhauser et al., PRB 76, 125112 (2007).                       %
     %   K. Berland et al., Rep. Prog. Phys. 78, 066501 (2015).             %
     %   D.C. Langreth et al., J. Phys.: Condens. Matter 21, 084203 (2009). %
     %                                                                      %
     % If you are calculating stress with vdW-DF, please also cite:         %
     %                                                                      %
     %   R. Sabatini et al., J. Phys.: Condens. Matter 24, 424209 (2012).   %
     %                                                                      %
     %%%%%%%%%%%%%%%%%%%%%%%%%%%%%%%%%%%%%%%%%%%%%%%%%%%%%%%%%%%%%%%%%%%%%%%%

     %%%%%%%%%%%%%%%%%%%%%%%%%%%%%%%%%%%%%%%%%%%%%%%%%%%%%%%%%%%%%%%%%%%%%%%%
     %                                                                      %
     %  vdW-DF NEWS:                                                        %
     %                                                                      %
     %  * vdW-DF3 is now available. DOI: 10.1021/acs.jctc.0c00471           %
     %    use with input_dft = 'vdW-DF3-opt1' or 'vdW-DF3-opt2'             %
     %                                                                      %
     %  * Unscreened and range-separated vdW-DF hybrid functionals          %
     %    DOI: 10.1063/1.4986522 and 10.1088/1361-648X/ac2ad2               %
     %    use with input_dft = 'vdW-DF-cx0' (etc) and 'vdW-DF-ahcx'         %
     %                                                                      %
     %%%%%%%%%%%%%%%%%%%%%%%%%%%%%%%%%%%%%%%%%%%%%%%%%%%%%%%%%%%%%%%%%%%%%%%%


     Carrying out vdW-DF run using the following parameters:
     Nqs    =  20  Npoints =  1024  r_max =  100.000
     q_mesh =  0.00001000  0.04494208  0.09755937  0.15916263
               0.23128650  0.31572767  0.41458969  0.53033537
               0.66584808  0.82450364  1.01025438  1.22772762
               1.48234092  1.78043706  2.12944203  2.53805004
               3.01644009  3.57652955  4.23227104  5.00000000


     -----------------------------------------------
     Non-local corr. energy    =      11.50682950 Ry
     -----------------------------------------------

     Starting wfcs from file
     Checking if some PAW data can be deallocated... 
       PAW data deallocated on   16 nodes for type:  1
       PAW data deallocated on    4 nodes for type:  2

     total cpu time spent up to now is        7.7 secs

     Self-consistent Calculation

     iteration #  1     ecut=    70.00 Ry     beta= 0.70
     Davidson diagonalization with overlap

---- Real-time Memory Report at c_bands before calling an iterative solver
           352 MiB given to the printing process from OS
             0 MiB allocation reported by mallinfo(arena+hblkhd)
       1888708 MiB available memory on the node where the printing process lives
------------------
     ethr =  1.00E-05,  avg # of iterations =  1.0

     Threshold (ethr) on eigenvalues was too large:
     Diagonalizing with lowered threshold

     Davidson diagonalization with overlap

---- Real-time Memory Report at c_bands before calling an iterative solver
           451 MiB given to the printing process from OS
             0 MiB allocation reported by mallinfo(arena+hblkhd)
       1888248 MiB available memory on the node where the printing process lives
------------------
     ethr =  2.03E-13,  avg # of iterations = 10.8


     -----------------------------------------------
     Non-local corr. energy    =      11.50682998 Ry
     -----------------------------------------------


     total cpu time spent up to now is       45.1 secs

     End of self-consistent calculation

          k = 0.0000 0.0000 0.0000 ( 75645 PWs)   bands (ev):

   -40.7658 -40.7658 -40.7658 -40.7658 -40.7657 -40.7657 -40.7657 -40.7657
   -40.7657 -40.7657 -40.7656 -40.7656 -40.7656 -40.7656 -40.7656 -40.7656
   -40.7656 -40.7655 -40.7655 -40.7655 -40.7655 -40.7655 -40.7655 -40.7654
   -40.7654 -40.7654 -40.7654 -40.7654 -40.7654 -40.7654 -40.7654 -40.7654
   -40.7654 -40.7653 -40.7653 -40.7653 -40.7653 -40.7653 -40.7653 -40.7653
   -40.7653 -40.7652 -40.7652 -40.7652 -40.7652 -40.7652 -40.7651 -40.7651
   -40.7650 -40.7650 -40.7649 -40.7649 -40.7649 -40.7649 -40.7649 -40.7649
   -40.7649 -40.7649 -40.7648 -40.7648 -40.7648 -40.7648 -40.7647 -40.7647
   -40.7646 -40.7646 -40.7646 -40.7646 -40.7646 -40.7646 -40.7646 -40.7646
   -40.7645 -40.7645 -40.7645 -40.7645 -40.7645 -40.7645 -40.7644 -40.7644
   -12.9433 -12.9433 -12.9433 -12.9432 -12.9432 -12.9432 -12.9226 -12.9226
   -12.9225 -12.9225 -12.9198 -12.9197 -12.9192 -12.9192 -12.9192 -12.9190
   -12.9190 -12.9190 -12.9190 -12.9190 -12.9190 -12.9189 -12.9189 -12.9189
   -12.9136 -12.9136 -12.9135 -12.9135 -12.9102 -12.9101 -12.9101 -12.9100
   -12.9100 -12.9100 -12.9059 -12.9059 -12.9059 -12.9058 -12.9058 -12.9058
    -8.0969  -8.0064  -7.6881  -7.6135  -7.6135  -7.6134  -7.5766  -7.5766
    -7.5765  -7.5709  -7.5156  -7.5156  -7.5155  -7.4805  -7.4805  -7.4805
    -3.6367  -3.6366  -3.6366  -3.6251  -3.6250  -3.6250  -3.1909  -3.1113
     0.8683   0.8683   0.8683   1.1366   1.1367   1.1367   1.7422   1.7423
     1.7423   1.9201   1.9201   1.9202   2.0464   2.0465   2.0465   2.1697
     2.1697   2.1698   2.1983   2.4668   2.4668   2.4669   2.6046   2.6046
     2.6047   2.6554   2.6995   2.6997   2.7586   2.7586   2.7586   2.7767
     2.7768   2.8929   2.8929   2.9678   2.9678   2.9678   2.9928   2.9928
     3.0098   3.0144   3.0145   3.0145   3.2148   3.2148   3.2148   3.4728
     5.9321   6.1386   6.5849   6.5850   6.5850   6.7984   6.7986   6.8621
     6.8621   6.8623   6.9017   6.9018   7.3062   7.3063   7.3063   7.4135
     7.4136   7.4137   7.5612   7.5612   7.5612   8.0400   8.0401   8.0402
     9.1851   9.1852   9.1852   9.7639   9.7640   9.7640   9.8670  10.4328
    11.2439  11.2440  11.2948  11.2948  11.2949  11.3210

     occupation numbers 
     1.0000   1.0000   1.0000   1.0000   1.0000   1.0000   1.0000   1.0000
     1.0000   1.0000   1.0000   1.0000   1.0000   1.0000   1.0000   1.0000
     1.0000   1.0000   1.0000   1.0000   1.0000   1.0000   1.0000   1.0000
     1.0000   1.0000   1.0000   1.0000   1.0000   1.0000   1.0000   1.0000
     1.0000   1.0000   1.0000   1.0000   1.0000   1.0000   1.0000   1.0000
     1.0000   1.0000   1.0000   1.0000   1.0000   1.0000   1.0000   1.0000
     1.0000   1.0000   1.0000   1.0000   1.0000   1.0000   1.0000   1.0000
     1.0000   1.0000   1.0000   1.0000   1.0000   1.0000   1.0000   1.0000
     1.0000   1.0000   1.0000   1.0000   1.0000   1.0000   1.0000   1.0000
     1.0000   1.0000   1.0000   1.0000   1.0000   1.0000   1.0000   1.0000
     1.0000   1.0000   1.0000   1.0000   1.0000   1.0000   1.0000   1.0000
     1.0000   1.0000   1.0000   1.0000   1.0000   1.0000   1.0000   1.0000
     1.0000   1.0000   1.0000   1.0000   1.0000   1.0000   1.0000   1.0000
     1.0000   1.0000   1.0000   1.0000   1.0000   1.0000   1.0000   1.0000
     1.0000   1.0000   1.0000   1.0000   1.0000   1.0000   1.0000   1.0000
     1.0000   1.0000   1.0000   1.0000   1.0000   1.0000   1.0000   1.0000
     1.0000   1.0000   1.0000   1.0000   1.0000   1.0000   1.0000   1.0000
     1.0000   1.0000   1.0000   1.0000   1.0000   1.0000   1.0000   1.0000
     1.0000   1.0000   1.0000   1.0000   1.0000   1.0000   1.0000   1.0000
     1.0000   1.0000   1.0000   1.0000   1.0000   1.0000   1.0000   1.0000
     1.0000   1.0000   1.0000   1.0000   1.0000   1.0000   1.0000   1.0000
     1.0000   1.0000   1.0000   1.0000   1.0000   1.0000   1.0000   1.0000
     1.0000   1.0000   1.0000   1.0000   1.0000   1.0000   1.0000   1.0000
     1.0000   1.0000   1.0000   1.0000   1.0000   1.0000   1.0000   1.0000
     0.0000   0.0000   0.0000   0.0000   0.0000   0.0000   0.0000   0.0000
     0.0000   0.0000   0.0000   0.0000   0.0000   0.0000   0.0000   0.0000
     0.0000   0.0000   0.0000   0.0000   0.0000   0.0000   0.0000   0.0000
     0.0000   0.0000   0.0000   0.0000   0.0000   0.0000   0.0000   0.0000
     0.0000   0.0000   0.0000   0.0000   0.0000   0.0000

          k = 0.0000-0.5774 0.0000 ( 75730 PWs)   bands (ev):

   -40.7658 -40.7658 -40.7658 -40.7658 -40.7657 -40.7657 -40.7657 -40.7657
   -40.7657 -40.7657 -40.7656 -40.7656 -40.7656 -40.7656 -40.7656 -40.7656
   -40.7656 -40.7655 -40.7655 -40.7655 -40.7655 -40.7655 -40.7655 -40.7654
   -40.7654 -40.7654 -40.7654 -40.7654 -40.7654 -40.7654 -40.7654 -40.7654
   -40.7654 -40.7653 -40.7653 -40.7653 -40.7653 -40.7653 -40.7653 -40.7653
   -40.7653 -40.7652 -40.7652 -40.7652 -40.7652 -40.7652 -40.7651 -40.7651
   -40.7650 -40.7650 -40.7649 -40.7649 -40.7649 -40.7649 -40.7649 -40.7649
   -40.7649 -40.7649 -40.7648 -40.7648 -40.7648 -40.7648 -40.7647 -40.7647
   -40.7646 -40.7646 -40.7646 -40.7646 -40.7646 -40.7646 -40.7646 -40.7646
   -40.7646 -40.7645 -40.7645 -40.7645 -40.7645 -40.7645 -40.7645 -40.7644
   -12.9365 -12.9365 -12.9364 -12.9364 -12.9326 -12.9325 -12.9324 -12.9324
   -12.9248 -12.9247 -12.9247 -12.9247 -12.9194 -12.9194 -12.9193 -12.9193
   -12.9176 -12.9176 -12.9175 -12.9175 -12.9144 -12.9144 -12.9143 -12.9143
   -12.9141 -12.9140 -12.9140 -12.9139 -12.9139 -12.9139 -12.9138 -12.9138
   -12.9112 -12.9112 -12.9111 -12.9111 -12.9081 -12.9081 -12.9080 -12.9080
    -7.8962  -7.8960  -7.8211  -7.8209  -7.6320  -7.6320  -7.5933  -7.5933
    -7.5880  -7.5879  -7.5001  -7.5001  -7.4992  -7.4990  -7.4611  -7.4611
    -3.6203  -3.6202  -3.6186  -3.6186  -3.3744  -3.3744  -3.3533  -3.3533
     1.1998   1.1998   1.3866   1.3867   1.3891   1.3892   1.4951   1.4952
     1.5264   1.5265   1.6343   1.6345   1.8179   1.8179   2.0453   2.0453
     2.0468   2.0469   2.2368   2.2370   2.3153   2.3153   2.3259   2.3259
     2.3350   2.3352   2.5318   2.5319   2.7496   2.7497   2.8281   2.8282
     2.8781   2.8782   2.9067   2.9067   2.9937   2.9939   3.0179   3.0181
     3.1911   3.1911   3.2477   3.2478   3.3549   3.3550   3.4025   3.4025
     6.4930   6.4930   6.6972   6.6973   6.9786   6.9786   7.1775   7.1776
     7.2502   7.2502   7.2536   7.2536   7.2716   7.2718   7.3974   7.3975
     7.4375   7.4376   7.4509   7.4509   7.5950   7.5951   7.7134   7.7135
     9.8754   9.8755  10.0356  10.0357  10.0637  10.0637  10.4028  10.4028
    10.4421  10.4421  10.8026  10.8027  10.9424  10.9424

     occupation numbers 
     1.0000   1.0000   1.0000   1.0000   1.0000   1.0000   1.0000   1.0000
     1.0000   1.0000   1.0000   1.0000   1.0000   1.0000   1.0000   1.0000
     1.0000   1.0000   1.0000   1.0000   1.0000   1.0000   1.0000   1.0000
     1.0000   1.0000   1.0000   1.0000   1.0000   1.0000   1.0000   1.0000
     1.0000   1.0000   1.0000   1.0000   1.0000   1.0000   1.0000   1.0000
     1.0000   1.0000   1.0000   1.0000   1.0000   1.0000   1.0000   1.0000
     1.0000   1.0000   1.0000   1.0000   1.0000   1.0000   1.0000   1.0000
     1.0000   1.0000   1.0000   1.0000   1.0000   1.0000   1.0000   1.0000
     1.0000   1.0000   1.0000   1.0000   1.0000   1.0000   1.0000   1.0000
     1.0000   1.0000   1.0000   1.0000   1.0000   1.0000   1.0000   1.0000
     1.0000   1.0000   1.0000   1.0000   1.0000   1.0000   1.0000   1.0000
     1.0000   1.0000   1.0000   1.0000   1.0000   1.0000   1.0000   1.0000
     1.0000   1.0000   1.0000   1.0000   1.0000   1.0000   1.0000   1.0000
     1.0000   1.0000   1.0000   1.0000   1.0000   1.0000   1.0000   1.0000
     1.0000   1.0000   1.0000   1.0000   1.0000   1.0000   1.0000   1.0000
     1.0000   1.0000   1.0000   1.0000   1.0000   1.0000   1.0000   1.0000
     1.0000   1.0000   1.0000   1.0000   1.0000   1.0000   1.0000   1.0000
     1.0000   1.0000   1.0000   1.0000   1.0000   1.0000   1.0000   1.0000
     1.0000   1.0000   1.0000   1.0000   1.0000   1.0000   1.0000   1.0000
     1.0000   1.0000   1.0000   1.0000   1.0000   1.0000   1.0000   1.0000
     1.0000   1.0000   1.0000   1.0000   1.0000   1.0000   1.0000   1.0000
     1.0000   1.0000   1.0000   1.0000   1.0000   1.0000   1.0000   1.0000
     1.0000   1.0000   1.0000   1.0000   1.0000   1.0000   1.0000   1.0000
     1.0000   1.0000   1.0000   1.0000   1.0000   1.0000   1.0000   1.0000
     0.0000   0.0000   0.0000   0.0000   0.0000   0.0000   0.0000   0.0000
     0.0000   0.0000   0.0000   0.0000   0.0000   0.0000   0.0000   0.0000
     0.0000   0.0000   0.0000   0.0000   0.0000   0.0000   0.0000   0.0000
     0.0000   0.0000   0.0000   0.0000   0.0000   0.0000   0.0000   0.0000
     0.0000   0.0000   0.0000   0.0000   0.0000   0.0000

          k = 0.5000-0.2887 0.0000 ( 75730 PWs)   bands (ev):

   -40.7658 -40.7658 -40.7658 -40.7658 -40.7657 -40.7657 -40.7657 -40.7657
   -40.7657 -40.7657 -40.7657 -40.7656 -40.7656 -40.7656 -40.7656 -40.7656
   -40.7656 -40.7655 -40.7655 -40.7655 -40.7655 -40.7655 -40.7655 -40.7654
   -40.7654 -40.7654 -40.7654 -40.7654 -40.7654 -40.7654 -40.7654 -40.7654
   -40.7654 -40.7653 -40.7653 -40.7653 -40.7653 -40.7653 -40.7653 -40.7653
   -40.7653 -40.7652 -40.7652 -40.7652 -40.7652 -40.7652 -40.7651 -40.7651
   -40.7650 -40.7650 -40.7649 -40.7649 -40.7649 -40.7649 -40.7649 -40.7649
   -40.7649 -40.7649 -40.7648 -40.7648 -40.7648 -40.7648 -40.7647 -40.7647
   -40.7646 -40.7646 -40.7646 -40.7646 -40.7646 -40.7646 -40.7646 -40.7646
   -40.7645 -40.7645 -40.7645 -40.7645 -40.7645 -40.7645 -40.7644 -40.7644
   -12.9365 -12.9365 -12.9364 -12.9364 -12.9326 -12.9325 -12.9324 -12.9324
   -12.9248 -12.9247 -12.9247 -12.9246 -12.9194 -12.9194 -12.9193 -12.9193
   -12.9176 -12.9176 -12.9175 -12.9175 -12.9145 -12.9144 -12.9143 -12.9143
   -12.9141 -12.9140 -12.9140 -12.9139 -12.9139 -12.9139 -12.9138 -12.9138
   -12.9112 -12.9112 -12.9111 -12.9111 -12.9081 -12.9081 -12.9080 -12.9080
    -7.8961  -7.8961  -7.8210  -7.8210  -7.6320  -7.6320  -7.5933  -7.5933
    -7.5880  -7.5879  -7.5001  -7.5001  -7.4991  -7.4991  -7.4611  -7.4611
    -3.6202  -3.6202  -3.6186  -3.6186  -3.3744  -3.3744  -3.3534  -3.3533
     1.1998   1.1998   1.3866   1.3867   1.3892   1.3892   1.4952   1.4952
     1.5263   1.5263   1.6343   1.6343   1.8179   1.8179   2.0452   2.0452
     2.0468   2.0468   2.2369   2.2370   2.3153   2.3153   2.3259   2.3259
     2.3351   2.3352   2.5318   2.5318   2.7496   2.7496   2.8281   2.8282
     2.8781   2.8781   2.9067   2.9067   2.9939   2.9939   3.0180   3.0180
     3.1911   3.1911   3.2478   3.2478   3.3550   3.3550   3.4025   3.4025
     6.4930   6.4930   6.6973   6.6973   6.9787   6.9787   7.1775   7.1775
     7.2503   7.2503   7.2535   7.2535   7.2715   7.2715   7.3977   7.3977
     7.4374   7.4374   7.4511   7.4511   7.5950   7.5950   7.7133   7.7134
     9.8754   9.8754  10.0356  10.0356  10.0637  10.0637  10.4028  10.4028
    10.4420  10.4420  10.8026  10.8026  10.9423  10.9423

     occupation numbers 
     1.0000   1.0000   1.0000   1.0000   1.0000   1.0000   1.0000   1.0000
     1.0000   1.0000   1.0000   1.0000   1.0000   1.0000   1.0000   1.0000
     1.0000   1.0000   1.0000   1.0000   1.0000   1.0000   1.0000   1.0000
     1.0000   1.0000   1.0000   1.0000   1.0000   1.0000   1.0000   1.0000
     1.0000   1.0000   1.0000   1.0000   1.0000   1.0000   1.0000   1.0000
     1.0000   1.0000   1.0000   1.0000   1.0000   1.0000   1.0000   1.0000
     1.0000   1.0000   1.0000   1.0000   1.0000   1.0000   1.0000   1.0000
     1.0000   1.0000   1.0000   1.0000   1.0000   1.0000   1.0000   1.0000
     1.0000   1.0000   1.0000   1.0000   1.0000   1.0000   1.0000   1.0000
     1.0000   1.0000   1.0000   1.0000   1.0000   1.0000   1.0000   1.0000
     1.0000   1.0000   1.0000   1.0000   1.0000   1.0000   1.0000   1.0000
     1.0000   1.0000   1.0000   1.0000   1.0000   1.0000   1.0000   1.0000
     1.0000   1.0000   1.0000   1.0000   1.0000   1.0000   1.0000   1.0000
     1.0000   1.0000   1.0000   1.0000   1.0000   1.0000   1.0000   1.0000
     1.0000   1.0000   1.0000   1.0000   1.0000   1.0000   1.0000   1.0000
     1.0000   1.0000   1.0000   1.0000   1.0000   1.0000   1.0000   1.0000
     1.0000   1.0000   1.0000   1.0000   1.0000   1.0000   1.0000   1.0000
     1.0000   1.0000   1.0000   1.0000   1.0000   1.0000   1.0000   1.0000
     1.0000   1.0000   1.0000   1.0000   1.0000   1.0000   1.0000   1.0000
     1.0000   1.0000   1.0000   1.0000   1.0000   1.0000   1.0000   1.0000
     1.0000   1.0000   1.0000   1.0000   1.0000   1.0000   1.0000   1.0000
     1.0000   1.0000   1.0000   1.0000   1.0000   1.0000   1.0000   1.0000
     1.0000   1.0000   1.0000   1.0000   1.0000   1.0000   1.0000   1.0000
     1.0000   1.0000   1.0000   1.0000   1.0000   1.0000   1.0000   1.0000
     0.0000   0.0000   0.0000   0.0000   0.0000   0.0000   0.0000   0.0000
     0.0000   0.0000   0.0000   0.0000   0.0000   0.0000   0.0000   0.0000
     0.0000   0.0000   0.0000   0.0000   0.0000   0.0000   0.0000   0.0000
     0.0000   0.0000   0.0000   0.0000   0.0000   0.0000   0.0000   0.0000
     0.0000   0.0000   0.0000   0.0000   0.0000   0.0000

          k =-0.5000-0.2887 0.0000 ( 75730 PWs)   bands (ev):

   -40.7658 -40.7658 -40.7658 -40.7658 -40.7657 -40.7657 -40.7657 -40.7657
   -40.7657 -40.7657 -40.7656 -40.7656 -40.7656 -40.7656 -40.7656 -40.7656
   -40.7656 -40.7655 -40.7655 -40.7655 -40.7655 -40.7655 -40.7655 -40.7654
   -40.7654 -40.7654 -40.7654 -40.7654 -40.7654 -40.7654 -40.7654 -40.7654
   -40.7654 -40.7653 -40.7653 -40.7653 -40.7653 -40.7653 -40.7653 -40.7653
   -40.7653 -40.7652 -40.7652 -40.7652 -40.7652 -40.7652 -40.7651 -40.7651
   -40.7650 -40.7650 -40.7649 -40.7649 -40.7649 -40.7649 -40.7649 -40.7649
   -40.7649 -40.7649 -40.7648 -40.7648 -40.7648 -40.7648 -40.7647 -40.7647
   -40.7646 -40.7646 -40.7646 -40.7646 -40.7646 -40.7646 -40.7646 -40.7646
   -40.7646 -40.7645 -40.7645 -40.7645 -40.7645 -40.7645 -40.7644 -40.7644
   -12.9365 -12.9365 -12.9364 -12.9364 -12.9326 -12.9325 -12.9324 -12.9324
   -12.9248 -12.9248 -12.9247 -12.9247 -12.9194 -12.9194 -12.9193 -12.9193
   -12.9176 -12.9176 -12.9175 -12.9175 -12.9144 -12.9144 -12.9143 -12.9143
   -12.9141 -12.9140 -12.9140 -12.9139 -12.9139 -12.9139 -12.9138 -12.9138
   -12.9112 -12.9112 -12.9111 -12.9111 -12.9081 -12.9081 -12.9080 -12.9080
    -7.8961  -7.8961  -7.8210  -7.8210  -7.6320  -7.6320  -7.5933  -7.5933
    -7.5880  -7.5879  -7.5001  -7.5000  -7.4991  -7.4991  -7.4611  -7.4611
    -3.6203  -3.6202  -3.6186  -3.6186  -3.3744  -3.3744  -3.3533  -3.3533
     1.1998   1.1998   1.3866   1.3867   1.3891   1.3892   1.4951   1.4952
     1.5264   1.5264   1.6343   1.6344   1.8179   1.8179   2.0452   2.0453
     2.0468   2.0468   2.2369   2.2369   2.3153   2.3153   2.3259   2.3259
     2.3351   2.3351   2.5318   2.5319   2.7496   2.7497   2.8281   2.8282
     2.8781   2.8781   2.9067   2.9067   2.9938   2.9938   3.0180   3.0180
     3.1911   3.1911   3.2477   3.2478   3.3550   3.3550   3.4025   3.4025
     6.4930   6.4930   6.6972   6.6973   6.9786   6.9787   7.1775   7.1776
     7.2502   7.2503   7.2536   7.2536   7.2716   7.2717   7.3975   7.3976
     7.4375   7.4376   7.4509   7.4510   7.5950   7.5950   7.7134   7.7135
     9.8755   9.8755  10.0356  10.0356  10.0637  10.0637  10.4028  10.4028
    10.4420  10.4421  10.8026  10.8027  10.9423  10.9424

     occupation numbers 
     1.0000   1.0000   1.0000   1.0000   1.0000   1.0000   1.0000   1.0000
     1.0000   1.0000   1.0000   1.0000   1.0000   1.0000   1.0000   1.0000
     1.0000   1.0000   1.0000   1.0000   1.0000   1.0000   1.0000   1.0000
     1.0000   1.0000   1.0000   1.0000   1.0000   1.0000   1.0000   1.0000
     1.0000   1.0000   1.0000   1.0000   1.0000   1.0000   1.0000   1.0000
     1.0000   1.0000   1.0000   1.0000   1.0000   1.0000   1.0000   1.0000
     1.0000   1.0000   1.0000   1.0000   1.0000   1.0000   1.0000   1.0000
     1.0000   1.0000   1.0000   1.0000   1.0000   1.0000   1.0000   1.0000
     1.0000   1.0000   1.0000   1.0000   1.0000   1.0000   1.0000   1.0000
     1.0000   1.0000   1.0000   1.0000   1.0000   1.0000   1.0000   1.0000
     1.0000   1.0000   1.0000   1.0000   1.0000   1.0000   1.0000   1.0000
     1.0000   1.0000   1.0000   1.0000   1.0000   1.0000   1.0000   1.0000
     1.0000   1.0000   1.0000   1.0000   1.0000   1.0000   1.0000   1.0000
     1.0000   1.0000   1.0000   1.0000   1.0000   1.0000   1.0000   1.0000
     1.0000   1.0000   1.0000   1.0000   1.0000   1.0000   1.0000   1.0000
     1.0000   1.0000   1.0000   1.0000   1.0000   1.0000   1.0000   1.0000
     1.0000   1.0000   1.0000   1.0000   1.0000   1.0000   1.0000   1.0000
     1.0000   1.0000   1.0000   1.0000   1.0000   1.0000   1.0000   1.0000
     1.0000   1.0000   1.0000   1.0000   1.0000   1.0000   1.0000   1.0000
     1.0000   1.0000   1.0000   1.0000   1.0000   1.0000   1.0000   1.0000
     1.0000   1.0000   1.0000   1.0000   1.0000   1.0000   1.0000   1.0000
     1.0000   1.0000   1.0000   1.0000   1.0000   1.0000   1.0000   1.0000
     1.0000   1.0000   1.0000   1.0000   1.0000   1.0000   1.0000   1.0000
     1.0000   1.0000   1.0000   1.0000   1.0000   1.0000   1.0000   1.0000
     0.0000   0.0000   0.0000   0.0000   0.0000   0.0000   0.0000   0.0000
     0.0000   0.0000   0.0000   0.0000   0.0000   0.0000   0.0000   0.0000
     0.0000   0.0000   0.0000   0.0000   0.0000   0.0000   0.0000   0.0000
     0.0000   0.0000   0.0000   0.0000   0.0000   0.0000   0.0000   0.0000
     0.0000   0.0000   0.0000   0.0000   0.0000   0.0000

     the Fermi energy is     4.1178 ev

!    total energy              =  -16189.06305521 Ry
     total all-electron energy =   -562242.586592 Ry
     estimated scf accuracy    <          9.5E-10 Ry
     smearing contrib. (-TS)   =      -0.00000000 Ry
     internal energy E=F+TS    =  -16189.06305521 Ry

     The total energy is F=E-TS. E is the sum of the following terms:
     one-electron contribution =   -2979.80826422 Ry
     hartree contribution      =    1665.15706130 Ry
     xc contribution           =   -1134.14492027 Ry
     ewald contribution        =   -2472.61395284 Ry
     one-center paw contrib.   =  -11267.65297918 Ry
      -> PAW hartree energy AE =     191.80307309 Ry
      -> PAW hartree energy PS =    -192.27637689 Ry
      -> PAW xc energy AE      =   -1596.85971428 Ry
      -> PAW xc energy PS      =      66.61960729 Ry
      -> total E_H with PAW    =    1664.68375750 Ry
      -> total E_XC with PAW   =   -2664.38502726 Ry

     convergence has been achieved in   1 iterations


     -----------------------------------------------
     Non-local corr. energy    =      11.50682998 Ry
     -----------------------------------------------


     Forces acting on atoms (cartesian axes, Ry/au):

     atom    1 type  1   force =     0.00000320    0.00001446    0.00000134
     atom    2 type  1   force =    -0.00000453    0.00000225   -0.00001361
     atom    3 type  1   force =    -0.00000482   -0.00001021    0.00001130
     atom    4 type  1   force =     0.00000284   -0.00000696   -0.00000927
     atom    5 type  1   force =    -0.00000683    0.00001791    0.00000069
     atom    6 type  1   force =     0.00000638    0.00000177   -0.00001471
     atom    7 type  1   force =     0.00000177   -0.00001566    0.00000692
     atom    8 type  1   force =     0.00000046   -0.00000049   -0.00000864
     atom    9 type  2   force =    -0.00000446    0.00000337    0.00072291
     atom   10 type  2   force =    -0.00000549    0.00000192    0.00072721
     atom   11 type  2   force =    -0.00000220   -0.00000310    0.00072835
     atom   12 type  2   force =    -0.00000742    0.00000711    0.00074243
     atom   13 type  2   force =    -0.00000078    0.00000511    0.00072543
     atom   14 type  2   force =    -0.00000719    0.00000451    0.00071937
     atom   15 type  2   force =    -0.00000032    0.00000072    0.00071787
     atom   16 type  2   force =    -0.00000482    0.00000711    0.00075075
     atom   17 type  2   force =     0.00000813   -0.00000781   -0.00071452
     atom   18 type  2   force =    -0.00000337   -0.00000423   -0.00072835
     atom   19 type  2   force =     0.00000344   -0.00000923   -0.00073917
     atom   20 type  2   force =     0.00000165    0.00000021   -0.00071609
     atom   21 type  2   force =     0.00000688   -0.00000130   -0.00073161
     atom   22 type  2   force =     0.00000370   -0.00000332   -0.00072067
     atom   23 type  2   force =     0.00001286   -0.00000864   -0.00073542
     atom   24 type  2   force =     0.00000094    0.00000451   -0.00072251
     The non-local contrib.  to forces
     atom    1 type  1   force =     0.00002318   -0.00005097   -0.00000746
     atom    2 type  1   force =    -0.00000028   -0.00001776    0.00000334
     atom    3 type  1   force =     0.00002616   -0.00003566   -0.00000645
     atom    4 type  1   force =    -0.00000015   -0.00000645   -0.00000554
     atom    5 type  1   force =     0.00002950   -0.00005288    0.00000750
     atom    6 type  1   force =    -0.00000584   -0.00003224    0.00002624
     atom    7 type  1   force =     0.00002182   -0.00003493    0.00000169
     atom    8 type  1   force =    -0.00001629   -0.00001274    0.00000836
     atom    9 type  2   force =     0.00001575   -0.00000507    0.24718002
     atom   10 type  2   force =    -0.00000984    0.00003684    0.24718529
     atom   11 type  2   force =    -0.00000405    0.00002514    0.24717394
     atom   12 type  2   force =     0.00000055    0.00000566    0.24717859
     atom   13 type  2   force =    -0.00001160    0.00000302    0.24717784
     atom   14 type  2   force =    -0.00000911    0.00002219    0.24719033
     atom   15 type  2   force =     0.00000258    0.00001198    0.24718247
     atom   16 type  2   force =    -0.00002312    0.00000804    0.24717386
     atom   17 type  2   force =    -0.00002250    0.00000183   -0.24719612
     atom   18 type  2   force =    -0.00000286    0.00000866   -0.24717203
     atom   19 type  2   force =    -0.00001217    0.00001938   -0.24717624
     atom   20 type  2   force =    -0.00001240   -0.00000091   -0.24717544
     atom   21 type  2   force =     0.00000427    0.00000666   -0.24719348
     atom   22 type  2   force =     0.00000257    0.00002572   -0.24717932
     atom   23 type  2   force =    -0.00000176    0.00003685   -0.24718312
     atom   24 type  2   force =     0.00001963   -0.00000193   -0.24717444
     The ionic contribution  to forces
     atom    1 type  1   force =    -0.00008913    0.00187711   -0.00117425
     atom    2 type  1   force =    -0.00016821    0.00074462    0.00104887
     atom    3 type  1   force =    -0.00057499   -0.00000908    0.00052355
     atom    4 type  1   force =    -0.00035770   -0.00058183   -0.00114602
     atom    5 type  1   force =    -0.00094100    0.00199184   -0.00025024
     atom    6 type  1   force =     0.00028113    0.00145294   -0.00044750
     atom    7 type  1   force =    -0.00037635   -0.00043107    0.00018129
     atom    8 type  1   force =     0.00069478   -0.00026035   -0.00008100
     atom    9 type  2   force =    -0.00033214   -0.00094817  -14.20717822
     atom   10 type  2   force =    -0.00059251   -0.00014095  -14.21010950
     atom   11 type  2   force =    -0.00119449    0.00007764  -14.20614585
     atom   12 type  2   force =    -0.00010661   -0.00036488  -14.20890609
     atom   13 type  2   force =    -0.00012846    0.00027091  -14.20785205
     atom   14 type  2   force =     0.00027626   -0.00004398  -14.21051277
     atom   15 type  2   force =     0.00105000    0.00023434  -14.20701111
     atom   16 type  2   force =    -0.00010912    0.00014023  -14.20905015
     atom   17 type  2   force =     0.00050272   -0.00089491   14.20934939
     atom   18 type  2   force =     0.00019172    0.00005543   14.20852100
     atom   19 type  2   force =     0.00037079   -0.00088774   14.20861718
     atom   20 type  2   force =     0.00002282   -0.00062996   14.20782588
     atom   21 type  2   force =     0.00076763   -0.00051657   14.20865943
     atom   22 type  2   force =    -0.00008691    0.00021300   14.20862912
     atom   23 type  2   force =     0.00084806   -0.00068092   14.20815296
     atom   24 type  2   force =     0.00005171   -0.00066765   14.20835607
     The local contribution  to forces
     atom    1 type  1   force =     0.00004617   -0.00182818    0.00116948
     atom    2 type  1   force =     0.00017748   -0.00070789   -0.00103323
     atom    3 type  1   force =     0.00055257    0.00004729   -0.00052078
     atom    4 type  1   force =     0.00034786    0.00057067    0.00117409
     atom    5 type  1   force =     0.00092722   -0.00194860    0.00023151
     atom    6 type  1   force =    -0.00028415   -0.00138770    0.00043638
     atom    7 type  1   force =     0.00034663    0.00048992   -0.00018761
     atom    8 type  1   force =    -0.00066643    0.00024512    0.00009527
     atom    9 type  2   force =     0.00032086    0.00094553   13.96622148
     atom   10 type  2   force =     0.00058908    0.00012128   13.96908844
     atom   11 type  2   force =     0.00118852   -0.00009329   13.96520700
     atom   12 type  2   force =     0.00010548    0.00035125   13.96789986
     atom   13 type  2   force =     0.00013051   -0.00027118   13.96688664
     atom   14 type  2   force =    -0.00026621    0.00003372   13.96948950
     atom   15 type  2   force =    -0.00104482   -0.00024334   13.96607168
     atom   16 type  2   force =     0.00012088   -0.00014744   13.96803381
     atom   17 type  2   force =    -0.00047603    0.00088035  -13.96835528
     atom   18 type  2   force =    -0.00018531   -0.00005825  -13.96752885
     atom   19 type  2   force =    -0.00034614    0.00086865  -13.96762767
     atom   20 type  2   force =    -0.00001157    0.00062381  -13.96685286
     atom   21 type  2   force =    -0.00076177    0.00049291  -13.96766672
     atom   22 type  2   force =     0.00008087   -0.00022847  -13.96764272
     atom   23 type  2   force =    -0.00084344    0.00064880  -13.96716730
     atom   24 type  2   force =    -0.00006783    0.00065891  -13.96737724
     The core correction contribution to forces
     atom    1 type  1   force =    -0.00000124   -0.00000140   -0.00000023
     atom    2 type  1   force =     0.00000096    0.00000025    0.00000210
     atom    3 type  1   force =     0.00000040    0.00000179   -0.00000122
     atom    4 type  1   force =    -0.00000062    0.00000026    0.00000152
     atom    5 type  1   force =     0.00000090   -0.00000208   -0.00000026
     atom    6 type  1   force =    -0.00000094    0.00000103    0.00000165
     atom    7 type  1   force =    -0.00000077    0.00000306   -0.00000079
     atom    8 type  1   force =     0.00000070   -0.00000084    0.00000136
     atom    9 type  2   force =    -0.00000075    0.00000199   -0.00543799
     atom   10 type  2   force =    -0.00000087    0.00000213   -0.00543599
     atom   11 type  2   force =    -0.00000083    0.00000212   -0.00543885
     atom   12 type  2   force =    -0.00000089    0.00000239   -0.00543693
     atom   13 type  2   force =    -0.00000069    0.00000222   -0.00543667
     atom   14 type  2   force =    -0.00000081    0.00000225   -0.00543581
     atom   15 type  2   force =    -0.00000040    0.00000220   -0.00543847
     atom   16 type  2   force =    -0.00000075    0.00000243   -0.00543553
     atom   17 type  2   force =    -0.00000009    0.00000189    0.00543574
     atom   18 type  2   force =    -0.00000045    0.00000225    0.00543421
     atom   19 type  2   force =    -0.00000015    0.00000172    0.00543437
     atom   20 type  2   force =    -0.00000053    0.00000217    0.00543526
     atom   21 type  2   force =    -0.00000037    0.00000190    0.00543663
     atom   22 type  2   force =    -0.00000092    0.00000218    0.00543515
     atom   23 type  2   force =    -0.00000028    0.00000161    0.00543533
     atom   24 type  2   force =    -0.00000082    0.00000195    0.00543500
     The Hubbard contrib.    to forces
     atom    1 type  1   force =     0.00000000    0.00000000    0.00000000
     atom    2 type  1   force =     0.00000000    0.00000000    0.00000000
     atom    3 type  1   force =     0.00000000    0.00000000    0.00000000
     atom    4 type  1   force =     0.00000000    0.00000000    0.00000000
     atom    5 type  1   force =     0.00000000    0.00000000    0.00000000
     atom    6 type  1   force =     0.00000000    0.00000000    0.00000000
     atom    7 type  1   force =     0.00000000    0.00000000    0.00000000
     atom    8 type  1   force =     0.00000000    0.00000000    0.00000000
     atom    9 type  2   force =     0.00000000    0.00000000    0.00000000
     atom   10 type  2   force =     0.00000000    0.00000000    0.00000000
     atom   11 type  2   force =     0.00000000    0.00000000    0.00000000
     atom   12 type  2   force =     0.00000000    0.00000000    0.00000000
     atom   13 type  2   force =     0.00000000    0.00000000    0.00000000
     atom   14 type  2   force =     0.00000000    0.00000000    0.00000000
     atom   15 type  2   force =     0.00000000    0.00000000    0.00000000
     atom   16 type  2   force =     0.00000000    0.00000000    0.00000000
     atom   17 type  2   force =     0.00000000    0.00000000    0.00000000
     atom   18 type  2   force =     0.00000000    0.00000000    0.00000000
     atom   19 type  2   force =     0.00000000    0.00000000    0.00000000
     atom   20 type  2   force =     0.00000000    0.00000000    0.00000000
     atom   21 type  2   force =     0.00000000    0.00000000    0.00000000
     atom   22 type  2   force =     0.00000000    0.00000000    0.00000000
     atom   23 type  2   force =     0.00000000    0.00000000    0.00000000
     atom   24 type  2   force =     0.00000000    0.00000000    0.00000000
     The SCF correction term to forces
     atom    1 type  1   force =     0.00002350    0.00002038    0.00001335
     atom    2 type  1   force =    -0.00001519   -0.00001449   -0.00003514
     atom    3 type  1   force =    -0.00000969   -0.00001207    0.00001575
     atom    4 type  1   force =     0.00001273    0.00001286   -0.00003377
     atom    5 type  1   force =    -0.00002418    0.00003210    0.00001172
     atom    6 type  1   force =     0.00001548   -0.00002977   -0.00003193
     atom    7 type  1   force =     0.00000971   -0.00004016    0.00001188
     atom    8 type  1   force =    -0.00001301    0.00003081   -0.00003309
     atom    9 type  2   force =    -0.00000891    0.00001158   -0.00006284
     atom   10 type  2   force =     0.00000793   -0.00001490   -0.00000149
     atom   11 type  2   force =     0.00000793   -0.00001223   -0.00006834
     atom   12 type  2   force =    -0.00000666    0.00001517    0.00000655
     atom   13 type  2   force =     0.00000874    0.00000263   -0.00005079
     atom   14 type  2   force =    -0.00000805   -0.00000720   -0.00001234
     atom   15 type  2   force =    -0.00000840   -0.00000198   -0.00008715
     atom   16 type  2   force =     0.00000656    0.00000633    0.00002830
     atom   17 type  2   force =     0.00000331    0.00000551    0.00005130
     atom   18 type  2   force =    -0.00000719   -0.00000985    0.00001688
     atom   19 type  2   force =    -0.00000961   -0.00000876    0.00001274
     atom   20 type  2   force =     0.00000261    0.00000758    0.00005062
     atom   21 type  2   force =    -0.00000360    0.00001629    0.00003208
     atom   22 type  2   force =     0.00000737   -0.00001327    0.00003665
     atom   23 type  2   force =     0.00000957   -0.00001249    0.00002625
     atom   24 type  2   force =    -0.00000248    0.00001570    0.00003766

     Total force =     0.002911     Total SCF correction =     0.000213


     Computing stress (Cartesian axis) and pressure



     -----------------------------------------------
     Non-local corr. energy    =      11.50682998 Ry
     -----------------------------------------------

          total   stress  (Ry/bohr**3)                   (kbar)     P=        0.99
   0.00000643  -0.00000001   0.00000002            0.95       -0.00        0.00
  -0.00000001   0.00000641  -0.00000002           -0.00        0.94       -0.00
   0.00000002  -0.00000002   0.00000728            0.00       -0.00        1.07

     kinetic stress (kbar)  14991.04      0.00      0.00
                                0.00  14991.04     -0.00
                                0.00     -0.00  15001.65

     local   stress (kbar)  -7409.21      0.32     -0.28
                                0.32  -7408.67      0.24
                               -0.28      0.24   1415.36

     nonloc. stress (kbar)  -1072.51     -0.00      0.00
                               -0.00  -1072.51     -0.00
                                0.00     -0.00  -1078.70

     hartree stress (kbar)  11990.33     -0.12      0.11
                               -0.12  11990.13     -0.09
                                0.11     -0.09   8013.51

     exc-cor stress (kbar)   6946.55     -0.00      0.00
                               -0.00   6946.55     -0.00
                                0.00     -0.00   6945.53

     corecor stress (kbar) -11310.02      0.00     -0.00
                                0.00 -11310.02      0.00
                               -0.00      0.00 -11310.01

     ewald   stress (kbar) -14218.53     -0.20      0.17
                               -0.20 -14218.88     -0.15
                                0.17     -0.15 -19070.86

     hubbard stress (kbar)      0.00      0.00      0.00
                                0.00      0.00      0.00
                                0.00      0.00      0.00

     DFT-D   stress (kbar)      0.00      0.00      0.00
                                0.00      0.00      0.00
                                0.00      0.00      0.00

     XDM     stress (kbar)      0.00      0.00      0.00
                                0.00      0.00      0.00
                                0.00      0.00      0.00

     dft-nl  stress (kbar)     83.30      0.00     -0.00
                                0.00     83.30      0.00
                               -0.00      0.00     84.60

     TS-vdW  stress (kbar)      0.00      0.00      0.00
                                0.00      0.00      0.00
                                0.00      0.00      0.00

     MDB     stress (kbar)      0.00      0.00      0.00
                                0.00      0.00      0.00
                                0.00      0.00      0.00

     3D-RISM stress (kbar)      0.00      0.00      0.00
                                0.00      0.00      0.00
                                0.00      0.00      0.00



     -----------------------------------------------
     Non-local corr. energy    =      11.50682998 Ry
     -----------------------------------------------



     -----------------------------------------------
     Non-local corr. energy    =      11.50682998 Ry
     -----------------------------------------------



     -----------------------------------------------
     Non-local corr. energy    =      11.50682998 Ry
     -----------------------------------------------



     -----------------------------------------------
     Non-local corr. energy    =      11.50682998 Ry
     -----------------------------------------------



     -----------------------------------------------
     Non-local corr. energy    =      11.50682998 Ry
     -----------------------------------------------



     -----------------------------------------------
     Non-local corr. energy    =      11.50682998 Ry
     -----------------------------------------------



     -----------------------------------------------
     Non-local corr. energy    =      11.50682998 Ry
     -----------------------------------------------



     -----------------------------------------------
     Non-local corr. energy    =      11.50682998 Ry
     -----------------------------------------------



     -----------------------------------------------
     Non-local corr. energy    =      11.50682998 Ry
     -----------------------------------------------



     -----------------------------------------------
     Non-local corr. energy    =      11.50682998 Ry
     -----------------------------------------------



     -----------------------------------------------
     Non-local corr. energy    =      11.50682998 Ry
     -----------------------------------------------



     -----------------------------------------------
     Non-local corr. energy    =      11.50682998 Ry
     -----------------------------------------------



     -----------------------------------------------
     Non-local corr. energy    =      11.50682998 Ry
     -----------------------------------------------



     -----------------------------------------------
     Non-local corr. energy    =      11.50682998 Ry
     -----------------------------------------------



     -----------------------------------------------
     Non-local corr. energy    =      11.50682998 Ry
     -----------------------------------------------



     -----------------------------------------------
     Non-local corr. energy    =      11.50682998 Ry
     -----------------------------------------------



     -----------------------------------------------
     Non-local corr. energy    =      11.50682998 Ry
     -----------------------------------------------



     -----------------------------------------------
     Non-local corr. energy    =      11.50682998 Ry
     -----------------------------------------------



     -----------------------------------------------
     Non-local corr. energy    =      11.50682998 Ry
     -----------------------------------------------



     -----------------------------------------------
     Non-local corr. energy    =      11.50682998 Ry
     -----------------------------------------------



     -----------------------------------------------
     Non-local corr. energy    =      11.50682998 Ry
     -----------------------------------------------



     -----------------------------------------------
     Non-local corr. energy    =      11.50682998 Ry
     -----------------------------------------------



     -----------------------------------------------
     Non-local corr. energy    =      11.50682998 Ry
     -----------------------------------------------



     -----------------------------------------------
     Non-local corr. energy    =      11.50682998 Ry
     -----------------------------------------------



     -----------------------------------------------
     Non-local corr. energy    =      11.50682998 Ry
     -----------------------------------------------



     -----------------------------------------------
     Non-local corr. energy    =      11.50682998 Ry
     -----------------------------------------------



     -----------------------------------------------
     Non-local corr. energy    =      11.50682998 Ry
     -----------------------------------------------



     -----------------------------------------------
     Non-local corr. energy    =      11.50682998 Ry
     -----------------------------------------------



     -----------------------------------------------
     Non-local corr. energy    =      11.50682998 Ry
     -----------------------------------------------



     -----------------------------------------------
     Non-local corr. energy    =      11.50682998 Ry
     -----------------------------------------------



     -----------------------------------------------
     Non-local corr. energy    =      11.50682998 Ry
     -----------------------------------------------



     -----------------------------------------------
     Non-local corr. energy    =      11.50682998 Ry
     -----------------------------------------------



     -----------------------------------------------
     Non-local corr. energy    =      11.50682998 Ry
     -----------------------------------------------



     -----------------------------------------------
     Non-local corr. energy    =      11.50682998 Ry
     -----------------------------------------------

 BEEFens 2000 ensemble energies
             -0.967161092727815E+01
             -0.973136681358349E+02
             -0.442771673143983E+02
              0.339850134268986E+02
             -0.743763731991827E+02
             -0.910669143362151E+02
              0.467411848155125E+02
              0.196191108411938E+00
              0.787719583733456E+02
             -0.498608243132230E+01
              0.403398392962831E+02
              0.411314327821543E+01
             -0.308914542495060E+01
             -0.249896525462088E+01
              0.502733822016166E+02
             -0.378585857266569E+02
             -0.743239941749869E+02
             -0.239891632623051E+02
              0.214884898690324E+02
             -0.460008670351954E+00
              0.109589390497408E+03
              0.914725229185189E+02
             -0.563408174859743E+02
              0.194729403652306E+02
             -0.117387213759067E+03
              0.963532314476292E+02
              0.329499836660057E+02
              0.870055763471513E+02
              0.586384357274476E+02
             -0.272265525761843E+02
              0.214577095313530E+02
             -0.383604128308555E+02
              0.160217843749433E+02
              0.583405056988698E+02
              0.627758671765516E+02
             -0.272807128320798E+02
              0.138484894458873E+03
             -0.557296858466655E+02
             -0.371246756440321E+02
              0.553918958537129E+02
              0.244257558665458E+02
              0.420891481052562E+02
             -0.812894074369077E+02
             -0.528316232190241E+01
              0.779873021496917E+02
              0.101933450621298E+03
             -0.103499250888372E+03
              0.664150284541701E+01
              0.359037091366457E+02
              0.231789942526673E+02
              0.404717166059793E+02
              0.888732001130639E+02
             -0.577217812742117E+02
             -0.560233938428207E+02
             -0.780362269066507E+02
             -0.113181265825453E+02
             -0.665748954472685E+02
              0.859913387176402E+01
             -0.960186057043086E+01
             -0.528120880847941E+02
              0.861843312816561E+02
              0.874351581274728E+02
             -0.240418825245355E+02
             -0.659810521817946E+02
             -0.400696066205949E+02
             -0.259152155525258E+01
              0.635598723690602E+02
             -0.892151503814830E+01
             -0.634956169445014E+02
              0.586308689911144E+02
             -0.108882594760204E+03
              0.963234231450375E+02
             -0.111500586525251E+03
             -0.488779613127692E+02
             -0.160007638203001E+02
             -0.101898861800321E+02
              0.581462250450261E+01
              0.770177597095151E+02
              0.483833260625405E+02
             -0.810929732632676E+02
             -0.107671226721720E+03
             -0.561647654967992E+02
             -0.416892883275044E+02
              0.632392378388454E+01
             -0.133048959343222E+02
             -0.390550496578861E+02
              0.476964214607426E+02
             -0.409133920106857E+02
              0.159001285771425E+03
             -0.729520714926565E+02
              0.159140940442929E+02
              0.166572911831652E+02
              0.238456132556425E+02
              0.551899311023160E+02
              0.393759711295457E+02
              0.373820838223869E+02
             -0.613604800404929E+02
              0.363658850572820E+02
              0.892268776706999E+01
             -0.118325581727942E+01
              0.720102921046787E+02
             -0.850840619721610E+02
              0.144012197413798E+03
             -0.338608223348424E+02
             -0.153643763676707E+03
              0.846203734925297E+01
              0.140689839758106E+02
             -0.421298323964646E+02
             -0.808338842742797E+02
             -0.406280427939894E+02
             -0.299718040862418E+02
              0.103369088921761E+01
             -0.637681607883776E+02
              0.346531482138403E+01
              0.691347658506612E+01
              0.147138001395628E+02
              0.138586080519086E+03
              0.164596356604213E+02
             -0.840767911605701E+02
             -0.630811378375055E+02
             -0.198491197485154E+02
             -0.545854103424818E+02
              0.927417400696619E+02
             -0.589037038641056E+02
              0.280132825359630E+01
             -0.117262834565123E+02
              0.153085641748685E+02
              0.546737235127227E+02
             -0.594787791389366E+02
             -0.117069649266260E+03
             -0.213079927993600E+02
             -0.244485565118371E+02
             -0.175567702912750E+02
              0.592485729448675E+02
             -0.102808962414041E+03
             -0.116234271646411E+03
             -0.151805842525799E+02
             -0.253945735212273E+02
             -0.418590376045779E+01
              0.318320065109924E+02
              0.702486261724908E+02
              0.356204802510737E+02
             -0.346729877946043E+02
             -0.367414680728220E+02
             -0.106318254769523E+03
             -0.798456047476850E+01
             -0.505721086368409E+02
             -0.317068477674047E+02
              0.882299269988768E+02
             -0.680746627234309E+02
             -0.232182551854909E+02
              0.820979505302583E+02
             -0.112206333123694E+02
             -0.213677797226662E+02
              0.139499009013628E+02
              0.326353328711775E+02
             -0.526422137911996E+02
              0.307923740930191E+02
              0.205531147655774E+02
              0.482922144247907E+02
             -0.497780068310772E+02
             -0.405257416166665E+02
              0.615777544513486E+02
             -0.513065154995638E+01
             -0.241159243802134E+02
             -0.209742248371454E+02
             -0.290794493936099E+02
             -0.391156013856034E+02
             -0.918996519565771E+02
             -0.116109562874083E+03
             -0.365296531798444E+02
             -0.362101316382714E+02
             -0.423841607640234E+02
             -0.707840919263093E+02
             -0.365802709449441E+02
              0.629345523083034E+02
              0.271900674958970E+02
              0.891896049808703E+02
             -0.379701278556196E+02
              0.305386911158548E+02
              0.165307641078508E+02
             -0.939389922466552E+02
             -0.223213459390017E+02
              0.503139184883756E+02
             -0.150965661749073E+03
              0.327530153016751E+02
              0.253154067144098E+02
              0.962508767053944E+02
             -0.297036018942339E+02
              0.831718868794121E+02
              0.127282355312725E+03
              0.105586681738777E+03
             -0.594803540017037E+02
             -0.323794928641252E+02
             -0.181825037357344E+02
              0.422769025462940E+02
              0.216326135145987E+02
             -0.228593144166148E+02
              0.616299340400682E+02
              0.122696174478761E+03
             -0.428779778165222E+02
             -0.301907847325714E+02
              0.203196064228589E+02
             -0.697476878144849E+02
             -0.600921328003282E+02
              0.533494934045814E+01
              0.178453572120043E+01
             -0.112330455578436E+02
              0.105234065257884E+03
              0.332472170319872E+02
             -0.174765159521162E+02
             -0.681689317698113E+01
             -0.138405371430460E+03
             -0.148405066002875E+02
             -0.315657748409420E+02
             -0.381443079495892E+01
              0.688395309210033E+02
             -0.366650682512511E+01
              0.960147996968058E+02
             -0.620884567256982E+02
             -0.627437633372479E+02
              0.633417009713262E+02
              0.834646065970418E+02
              0.110932918118702E+03
             -0.632699079193305E+02
             -0.354629449232168E+02
              0.659763854727850E+02
              0.727868759657870E+02
             -0.816049087757421E+02
             -0.207298444364986E+02
              0.875749404630225E+02
              0.567769024149162E+02
              0.341997935307591E+02
              0.315164945744953E+02
             -0.226772292387766E+02
             -0.497694035635391E+01
              0.365158739792373E+02
             -0.383227178775744E+02
             -0.486117207681096E+02
              0.117024161623675E+02
             -0.223863449251724E+02
              0.330805182186467E+02
             -0.564733116098723E+02
              0.678469650561037E+02
             -0.992714621773791E+01
              0.666480565523825E+02
             -0.243832564117276E+02
             -0.820125519918778E+02
             -0.825962299533785E+00
              0.215120331211749E+02
              0.180434869268388E+02
              0.797402570920730E+01
              0.955545890526065E+01
              0.155803896131140E+02
              0.125086186058390E+03
             -0.922084066527548E+02
              0.204933277729338E+02
             -0.488508770418915E+01
              0.212608780528058E+01
              0.499956455025211E+02
              0.363975493570947E+02
             -0.378973775545711E+02
              0.109167641191027E+02
             -0.637674460333292E+02
             -0.208555171293857E+02
             -0.137956697366900E+01
             -0.138184514794665E+03
              0.332016455091086E+02
              0.678235825385490E+02
              0.344482940630590E+02
              0.500750452812911E+02
             -0.297822751799326E+02
              0.290696049478084E+02
              0.743882247762988E+02
             -0.569415444216638E+02
              0.334688677999816E+02
              0.928615408689135E+02
             -0.127713555361519E+02
              0.590847120881882E+02
             -0.181142775529613E+02
             -0.250289841343807E+02
             -0.567118054348467E+01
             -0.648520850943723E+02
              0.376928662741876E+02
              0.353782355273236E+02
              0.692320453939835E+02
             -0.380721666278615E+02
              0.616571610929786E+02
              0.123298136099887E+03
              0.662891494172360E+02
             -0.563441415119635E+02
             -0.217672922810544E+02
             -0.107917107255587E+03
              0.102201995856130E+02
              0.146245513954143E+02
             -0.341420116457783E+01
             -0.212208195072849E+02
              0.161494603168932E+02
              0.777766302588626E+02
             -0.903591719004339E+00
              0.359049769508810E+02
              0.349966828393027E+02
             -0.173249230727257E+02
             -0.111736972873675E+03
              0.412571197645810E+02
             -0.757714513846075E+00
              0.580960947563906E+02
             -0.155724299088799E+02
             -0.213415994613617E+02
             -0.252370082498161E+02
              0.162629379421801E+02
              0.505377820108583E+01
              0.291090231378394E+02
              0.300848125055510E+02
             -0.809487180609389E+02
              0.438108890912188E+02
              0.529765443658638E+02
              0.428887322423537E+02
              0.828415008224188E+02
              0.333107830710786E+02
              0.959071786292615E+02
             -0.287747693324943E+02
             -0.324123717897249E+02
              0.470672842337395E+02
              0.474076611466402E+02
              0.132251346868475E+01
              0.757074387006486E+01
              0.512072765759602E+02
              0.392573212063813E+02
             -0.247900980160398E+02
             -0.486554249690113E+01
             -0.852230102915883E+01
             -0.857936542523333E+01
             -0.902670323953264E+02
             -0.285402308209814E+02
              0.434684563559129E+02
              0.249189995334589E+02
              0.367016068589206E+02
             -0.689708555166830E+02
             -0.979370922339294E+02
              0.243629062637581E+02
              0.963950224803206E+02
              0.499508130732651E+02
             -0.493251464205647E+02
             -0.964192760864638E+02
             -0.525492694045704E+01
              0.316962674028123E+02
              0.319308532184211E+02
             -0.125039516033189E+02
              0.842972078360519E+02
              0.258250623229046E+02
             -0.589687843489802E+02
              0.644123867384011E+02
              0.345998949813327E+02
              0.483335361363893E+01
             -0.201675304462439E+02
             -0.427564473469481E+02
             -0.657650959309745E+02
              0.210800148870308E+02
             -0.131591764785395E+02
             -0.425382461527179E+02
              0.317563779193476E+01
             -0.393641860760486E+02
              0.240631517214220E+02
             -0.104695227455625E+03
              0.247949612489898E+02
             -0.113690254438687E+02
             -0.502359364621861E+01
              0.318913030675618E+02
              0.304020056912015E+02
              0.133458495324746E+03
              0.343909603396730E+01
             -0.433757716967671E+02
             -0.987520888014765E+02
              0.512633706833135E+02
             -0.531477758011442E+01
              0.357105887778996E+02
              0.215436864539889E+02
             -0.126274477738762E+02
              0.815494878043521E+02
              0.672749932940524E+02
             -0.168994709465139E+02
              0.708261560910599E+02
             -0.888340651034688E+02
              0.213916802513072E+02
              0.518037297910450E+02
             -0.633513361473906E+02
             -0.822170552771487E+02
             -0.900146943360447E+02
             -0.889601083951627E+02
              0.849213626782663E+02
             -0.687599389808323E+02
             -0.111302139276768E+02
              0.425204411257776E+02
             -0.344578402607813E+02
              0.136666827677747E+02
              0.215528144007382E+02
              0.475738354032583E+02
             -0.766978569589835E+02
              0.541648263478368E+02
             -0.266043796373226E+02
             -0.113386471472881E+03
              0.418639742663907E+02
             -0.272118392845497E+02
             -0.634216757987411E+02
             -0.296039913953758E+02
              0.532279146654990E+02
              0.412644503619115E+02
              0.142968009061274E+02
              0.248660234300116E+02
             -0.156775220226001E+01
              0.220016907187734E+02
             -0.696997772981286E+02
              0.127964723702806E+02
             -0.147692427684242E+02
             -0.570442466155119E+02
              0.159920431018447E+02
             -0.867438399401715E+01
              0.817201715429352E+02
              0.135090511245774E+02
              0.910748045803069E+02
              0.127351797912290E+02
              0.257187777106386E+02
             -0.246646809565387E+02
             -0.225159907117039E+02
              0.522035384123651E+02
              0.202095317682889E+02
             -0.452474474882341E+02
              0.102194449521764E+03
              0.755268455481962E+02
              0.763106862921836E+02
              0.512137806822072E+02
             -0.184802516267979E+02
             -0.126595086902734E+03
             -0.913420510632045E+01
             -0.353834340171169E+02
             -0.485044267047215E+02
              0.541801876711180E+02
             -0.118319290585139E+03
              0.504129069722663E+02
              0.406744238502235E+02
             -0.403608529462866E+02
             -0.675137164129058E+01
             -0.165040028372592E+02
             -0.361295878116289E+02
              0.384483450004381E+02
              0.474009859589263E+02
             -0.681531513363325E+01
             -0.278572717062207E+02
              0.106314362778940E+02
             -0.122245404769257E+01
             -0.742688961591467E+02
             -0.518631550035602E+02
             -0.393078062982806E+01
             -0.577984240042646E+02
             -0.310754079217126E+02
              0.192864288343094E+01
             -0.962464053904955E+02
             -0.504184524591781E+02
              0.314088995087072E+01
             -0.122162806372462E+03
              0.159564561604340E+02
             -0.117080869727013E+03
              0.637371585933660E+02
             -0.506769450456291E+02
              0.679284776396121E+02
             -0.241276397889243E+02
             -0.966015581929790E+02
             -0.532679614968139E+01
             -0.519324633729304E+02
             -0.286712027103605E+02
              0.187106459416352E+02
             -0.107826268830541E+03
              0.184157612567409E+02
              0.524861841767694E+02
             -0.103577879865970E+03
             -0.120830614818434E+02
             -0.957583587122236E+02
             -0.106668181805130E+03
             -0.682666475029767E+02
             -0.103365030608232E+02
             -0.526045138444725E+02
              0.520299258125143E+02
              0.578862662969617E+02
             -0.426361345095082E+02
              0.294620368960979E+02
             -0.414381295247955E+02
              0.369701746884336E+02
             -0.558454990596765E+02
             -0.559451878038678E+02
              0.523378201698244E+02
              0.398796985259394E+02
              0.151880969020467E+02
              0.581328833091610E+02
              0.128658944230116E+03
             -0.210288010479189E+02
              0.397656128171286E+02
             -0.113373602932597E+03
             -0.104426711851815E+03
             -0.503308385064037E+01
              0.112398914361468E+02
              0.327752484139157E+02
             -0.840823694528020E+02
              0.163084761075275E+02
              0.101461933023521E+03
             -0.801795476178037E+02
             -0.147246923569676E+02
             -0.111172561804138E+03
             -0.114453708013906E+02
              0.597023621312695E+01
             -0.771170665984395E+02
              0.236327095354603E+02
             -0.114461878160869E+03
             -0.491360658499048E+01
             -0.849803410589436E+01
              0.110362697827967E+02
             -0.698498188016978E+02
              0.520675481818939E+02
             -0.850646384321499E+01
             -0.965841916008731E+01
              0.904836843957071E+01
              0.356597234393161E+02
              0.734167257468650E+02
             -0.203529437518604E+02
              0.559740847828502E+02
              0.958739953300385E+02
              0.181772006383198E+02
             -0.389535464786991E+01
              0.294060831391146E+02
              0.880887233818800E+01
             -0.115383872601333E+02
              0.444085215357930E+02
             -0.126815508999732E+02
             -0.629298767687858E+02
              0.350384348483344E+02
             -0.447268521026060E+02
             -0.359572105977206E+02
             -0.592295828065293E+00
             -0.819281837297737E+02
             -0.208639987021885E+02
             -0.897435124145479E+02
             -0.490948101943060E+01
             -0.241516484128905E+02
              0.451175296249523E+02
             -0.954967098060728E+02
              0.872888336158638E+01
              0.287962647009087E+01
             -0.771962701309105E+02
              0.452063865507022E+02
              0.854187522868327E+02
              0.226013694983346E+02
             -0.738461102516097E+02
             -0.816836417691976E+02
              0.109847543647464E+03
              0.828963139867732E+02
              0.358032785594221E+02
             -0.273688551500986E+02
             -0.511857130496214E+02
              0.482557713108539E+02
              0.202933865514938E+02
              0.949598492051006E+02
              0.870351893425739E+02
              0.737719025975468E+02
              0.385948316204675E+02
             -0.153237141617597E+03
             -0.412028428447190E+02
              0.195276349581294E+02
             -0.323670191184352E+02
              0.887666212328676E+02
              0.380791119931284E+02
             -0.352320147262969E+02
             -0.107014300432216E+02
              0.102807772527457E+03
              0.100205140335873E+02
             -0.112689279638336E+02
             -0.173896459100123E+03
              0.426212957862953E+02
             -0.378756947925982E+02
              0.780145822084800E+02
             -0.672683870649557E+02
             -0.103568613729032E+02
              0.271559611872761E+02
             -0.590483209080076E+02
             -0.977990574992310E+02
              0.444171100792960E+01
              0.334251781717887E+02
             -0.394060668151769E+01
             -0.255897618679132E+02
             -0.142640939029267E+02
             -0.587520019400379E+02
             -0.111074925594929E+03
              0.138359731029561E+01
             -0.417834424711951E+02
             -0.102923389711179E+02
             -0.444276400634721E+02
              0.177454412965348E+03
              0.372917925768819E+02
             -0.597365831774227E+02
             -0.560113519336412E+02
              0.236243781593059E+02
              0.432104462751468E+02
              0.680615105379691E+02
             -0.488157778773644E+02
             -0.107405470307317E+03
             -0.312815391247987E+02
             -0.585495407912539E+02
              0.601397514953886E+02
              0.687778965441237E+02
              0.928700618089113E+01
              0.268076304648840E+02
              0.468663668229289E+02
              0.568173100776430E+02
             -0.107945630427536E+03
             -0.228502199943138E+02
              0.712612933667674E+01
             -0.162514091354825E+02
             -0.469423681994074E+02
              0.194862593023799E+01
             -0.180375379684843E+02
             -0.433510780336096E+02
             -0.437419042102351E+02
              0.180006776337178E+02
             -0.135417010120943E+03
             -0.690964224465978E+02
             -0.586382779869374E+02
              0.121628059915506E+03
             -0.213612950620611E+02
             -0.126080067968678E+02
              0.131474149419244E+03
             -0.645485259172259E+02
              0.798480136723096E+02
             -0.502644123602120E+02
             -0.156622093458719E+01
              0.235601365915295E+01
[...]
              0.553696856165623E+02
              0.251437711255987E+02
              0.409311614988169E+02
             -0.228697323067788E+01
              0.125785763352465E+03
              0.210818426601678E+02
             -0.194055870485060E+02
              0.228992848950759E+01
             -0.127440783645437E+02
              0.103292030884540E+03
             -0.592597571113774E+01
              0.222242265436455E+02
              0.744859779008603E+02
              0.163408787945651E+02
             -0.587844214220594E+02
             -0.856764538128976E+02
              0.901219283232081E+00
             -0.963657279676761E+02
              0.327000115139132E+02
             -0.195046837634939E+02
             -0.452626677575113E+02
              0.406979285938406E+02
              0.156074268741521E+02
              0.367089877231265E+02
              0.325120056249170E+01
              0.584681233677132E+02
             -0.955476365276167E+02
             -0.875917037609088E+01
             -0.833353320819651E+02
              0.150245459677201E+02
              0.451304825102046E+02
             -0.833361536870950E+01
             -0.313884341362286E+02
              0.671444387359793E+02
             -0.311199145060492E+02
              0.218751982599453E+02
             -0.195225332053432E+02
              0.479354718193773E+02
              0.578884076393307E+02
             -0.249715072631741E+02
              0.497963435232683E+02
              0.191111691141234E+02
             -0.513492916309749E+02
             -0.307241064700560E+02
              0.828140423308055E+02
              0.392555510466232E+02
             -0.378953447368110E+01
             -0.111490403331567E+02
              0.121724486120736E+03
              0.729971136266635E+02
              0.267544924045893E+02
             -0.780075966599289E+02
              0.122173295531778E+03
             -0.552521274942671E+02
             -0.685077692240072E+02
             -0.106109915003388E+03
              0.511370873654324E+02
             -0.970802106808610E+02
              0.420991648632229E+02
              0.691212170119511E+02
              0.512182644015461E+02
              0.108628530891782E+02
              0.305483938321845E+02
             -0.765148573727462E+02
             -0.272007569743719E+02
             -0.246797041695461E+02
              0.369766172904655E+02
              0.825147104576708E+02
              0.813503386034679E+02
              0.622727793599902E+02
             -0.153790013141574E+02
              0.221165866794616E+02
              0.310351660506899E+01
             -0.244511293007664E+02
              0.364774875518597E+02
              0.349403382400719E+02
             -0.498309313492591E+02
             -0.504608743787203E+02
             -0.231315644921056E+02
              0.535954871475711E+02
              0.272665252077287E+02
             -0.364969309473800E+02
             -0.635811385839583E+02
             -0.873536935656499E+02
              0.182503260710389E+01
              0.248675255180902E+02
             -0.337970174439225E+02
              0.124083686815754E+03
              0.117255047894139E+01
             -0.144138667215835E+03
              0.361464869176075E+02
              0.594905213729655E+02
             -0.216120490434719E+02
              0.228016761794672E+01
             -0.326004881208603E+02
              0.553507036798399E+02
              0.273130077427221E+02
             -0.728401064456078E+02
              0.864898157657766E+02
              0.589403102860896E+01
             -0.345458054212034E+02
             -0.425793782668965E+02
              0.173399216034840E+03
              0.775096278082657E+02
             -0.194478425587909E+02
              0.427554029968355E+02
             -0.844993139942586E+02
             -0.183301238717401E+02
             -0.751067431092119E+02
              0.290134892959581E+02
              0.539105488810245E+02
              0.592981497693718E+02
             -0.259875258594816E+02
              0.449921447175370E+01
              0.738732983658941E+02
              0.236276328300034E+02
              0.440405291008779E+02
              0.179183252385286E+02
             -0.991697142486117E+01
              0.185853629398366E+00
             -0.137314438104660E+02
              0.153074472635735E+02
              0.514277718341515E+01
             -0.671111594089571E+02
              0.102816976578639E+03
              0.395694837501794E+02
             -0.728521045643529E+02
             -0.535403338459815E+02
             -0.755768125364123E+02
             -0.327617404775974E+02
             -0.237568067795196E+02
             -0.597815371366817E+02
             -0.590132342810768E+02
              0.710486135478902E+02
              0.565495990911914E+02
             -0.781129340540690E+01
              0.848936038145578E+02
              0.122335764306483E+02
             -0.136434548226246E+03
              0.732587470620325E+02
              0.125045104558416E+02
              0.575300550659326E+02
              0.777474800400137E+01
              0.648828630945371E+01
              0.117193436871603E+02
              0.310845099858673E+02
             -0.569279871155173E+02
             -0.268559149062977E+02
             -0.538357608328483E+02
             -0.445505637655931E+02
              0.185660025028329E+02
             -0.494342163947642E+02
              0.238131037725626E+02
              0.327048256545758E+02
             -0.302933655082177E+02
             -0.193456255156064E+02
              0.127491523996957E+01
              0.848153096797743E+02
              0.128270351119725E+02
              0.814186168431426E+02
              0.291921311308813E+02
             -0.107631915133506E+03
             -0.356920463038021E+02
              0.367020964976285E+02
              0.846950827394298E+02
              0.139792066018605E+02
              0.348121404057255E+02
              0.779397080215779E+02
             -0.451286409704368E+02
             -0.692842394125372E+02
              0.960631989856332E+02
              0.559557864163764E+01
             -0.101528529027798E+03
              0.371025739561298E+02
              0.642670670442525E+02
             -0.164416840283301E+02
             -0.669300696871123E+02
              0.139444295904538E+02
              0.289142138782313E+01
             -0.325225199320088E+02
              0.124443875845454E+02
             -0.108337949590845E+02
              0.151060895073094E+03
              0.439747503694961E+02
             -0.639784966022663E+02
              0.188938662024402E+02
              0.919761663510162E+02
             -0.621755590958933E+02
             -0.161941327383009E+02
             -0.588071221657555E+02
              0.471241296927151E+02
              0.149012631231070E+02
              0.311561361079443E+02
              0.563976145936493E+01
              0.106839028709195E+03
             -0.607771473621697E+02
             -0.479847366750336E+02
             -0.463284011133998E+02
              0.407012202666633E+02
              0.106165453027427E+03
             -0.177510930357819E+02
              0.434425699820446E+02
             -0.616945054155762E+02
              0.118413628227817E+02
             -0.197446465236052E+02
              0.432745713490567E+01
             -0.239269246088493E+02
             -0.195037561978601E+02
             -0.191657027879840E+02
              0.157809438393000E+02
              0.308382181494819E+02
             -0.672892274059989E+02
              0.498197774270298E+02
             -0.801959194787325E+02
              0.605039251300467E+02
             -0.639523320689567E+02
              0.103666538498977E+03
              0.569536253762626E+02
              0.655545012651376E+02
              0.162787334565725E+02
              0.191359654262338E+02
             -0.143210246277413E+03
              0.232246833812889E+02
              0.525373179505823E+01
              0.136533402156658E+02
             -0.233764014271550E+02
              0.110719042985514E+03
             -0.257130861408502E+02
             -0.457618773827486E+02
             -0.107135774399188E+03
             -0.371780610363335E+02
             -0.514067904736453E+02
             -0.446957880501876E+02
             -0.100785078249480E+02
             -0.244704089017627E+02
             -0.311139880323343E+02
             -0.476833779564597E+02
              0.364912515428687E+02
              0.115040997975000E+03
              0.971879780785731E+02
             -0.172472306180475E+02
             -0.116839193453914E+03
             -0.498142185854482E+02
              0.238837222273035E+02
              0.239119307482304E+02
              0.381927637590080E+02
              0.268467274993741E+02
              0.474813403174574E+01
              0.114150260038417E+03
             -0.277481957705104E+02
              0.560881399787279E+02
              0.288560990008228E+02
             -0.388814700837714E+02
             -0.186358624212562E+02
              0.517139414412043E+02
             -0.276321967269831E+02
             -0.169729500828908E+02
             -0.125799904845579E+02
              0.665963243469810E+02
             -0.876011009320080E+02
             -0.704180605417434E+01
             -0.676085226661151E+02
             -0.143645317591359E+03
             -0.386273001432528E+00
             -0.211964025661292E+02
              0.558261067386372E+02
              0.620645840974873E+02
              0.848820353999060E+02
             -0.552045455505306E+02
              0.858345198463978E+02
              0.214520772479704E+02
             -0.318676870162019E+02
              0.114579560134525E+02
             -0.271018179093005E+02
             -0.160224099632774E+02
              0.495760886015335E+02
             -0.410602308269269E+02
              0.110125265176253E+03
             -0.293650566858832E+02
             -0.608681422701816E+02
              0.115163473522431E+03
             -0.623387008863939E+02
             -0.502018995342951E+01
              0.606041814940187E+01
              0.332304954954747E+02
             -0.486555437602814E+02
             -0.370704505242146E+02
              0.591507728070932E+02
             -0.889902821997576E+02
              0.733868078911495E+02
              0.108467083477231E+02
              0.525905131431501E+02
              0.761897483519475E+02
              0.195215121778484E+02
             -0.105884159723173E+03
             -0.458167439957564E+02
             -0.764394931018867E+02
             -0.454748381735685E+02
             -0.121134785096807E+02
              0.164074676418520E+02
             -0.356549310329120E+02
             -0.614980029605363E+00
             -0.106317291102976E+03
              0.594183308503324E+01
             -0.685658802285009E+02
              0.664573211195385E+02
             -0.389525179738929E+02
             -0.939027445989435E+01
              0.501685281406955E+02
              0.992004217871173E+01
              0.466231757139427E+02
             -0.888815463090006E+02
              0.147671583020033E+02
              0.608072359615061E+01
              0.382616638132769E+02
              0.613365805752928E+02
             -0.113346597858588E+02
             -0.698180928758762E+02
             -0.403827367718967E+02
             -0.284876803920911E+02
             -0.839748089714499E+01
              0.651107392653804E+02
              0.422656658502441E+02
             -0.428239721052771E+02
             -0.401753776706860E+02
              0.295038050507267E+02
              0.321285166536829E+02
             -0.867983415725555E+02
              0.202390312031210E+02
              0.622462411567517E+02
             -0.277296722340468E+01
              0.784165575390693E+02
              0.362123404583167E+02
              0.617004850459329E+02
              0.938003748323072E+02
              0.141310784605162E+02
             -0.127807999146471E+03
              0.176310724011011E+02
              0.138188057643474E+03
              0.100446965579918E+03
             -0.692559871562994E+02
              0.625084775751578E+01
              0.898978716837510E+02
              0.779028062086852E+02
              0.342511488348214E+02
             -0.207197297048143E+02
              0.344004190058319E+02
              0.712159737063068E+02
             -0.329188352577878E+02
             -0.211918653279284E+02
              0.482312164855264E+02
             -0.290665483979797E+01
              0.433037395987146E+02
             -0.133923678707314E+02
              0.903044534165019E+02
             -0.344437606465464E+02
              0.207237092179246E+02
             -0.382688978488726E+02
              0.446911492150065E+02
             -0.606082259640368E+01
              0.665947504686757E+02
              0.475110821298861E+01
              0.298130225608458E+02
             -0.423469209914826E+02
             -0.296137907553978E+02
             -0.151025948755108E+02
             -0.137566802053246E+02
              0.725092402427874E+02
              0.356861000696957E+02
              0.879916036870888E+02
              0.811975387979780E+02
              0.227742426626091E+02
              0.408507793159617E+01
              0.865435981181811E+02
              0.486426758002746E+02
              0.822431861296309E-01
              0.842930710586071E+02
             -0.691812170153451E+02
              0.242515786727085E+02
             -0.450768095839194E+02
             -0.122258574232272E+02
              0.116546058923646E+03
             -0.163230629204110E+02
             -0.486042921643741E+01
             -0.126836961362073E+02
              0.957446938770474E+02
             -0.205585082908382E+02
             -0.176366614347012E+01
              0.193170872488681E+03
             -0.571771081197627E+02
             -0.713688781514475E+02
             -0.714281580887826E+02
             -0.456237315064682E+02
              0.416035734319248E+02
             -0.186741424504435E+02
              0.105869379912576E+02
             -0.483808843933957E+01
              0.244889488399616E+02
              0.393156208986369E+02
              0.458143283101819E+02
              0.659451866013797E+02
              0.422415434534258E+02
              0.430688310192497E+02
             -0.797029846988725E+02
             -0.823115551406011E+02
             -0.185596451651354E+02
             -0.735811538586546E+02
              0.116815007234553E+03
              0.983946435282819E+02
              0.464095812542259E+02
              0.127937932087866E+03
             -0.639288243268314E+02
             -0.275362587055764E+02
             -0.396961538157515E+02
              0.110680081677318E+03
 
 BEEF-vdW xc energy contributions
            1 :    -1000.482702272847     
            2 :     916.7492872961070     
            3 :    -773.9865468745643     
            4 :     610.2650163524878     
            5 :    -461.4230467058644     
            6 :     349.5036094868094     
            7 :    -279.1614489432266     
            8 :     241.0042490648527     
            9 :    -218.7169882768965     
           10 :     196.8915995176905     
           11 :    -166.8890534876375     
           12 :     128.7207184737904     
           13 :    -88.64151692370615     
           14 :     54.34239987149886     
           15 :    -30.64039362814651     
           16 :     17.66273427640226     
           17 :    -11.70900965325995     
           18 :     7.681652020296497     
           19 :    -1.672426870488835     
           20 :    -7.417042467422789     
           21 :     17.82964456941613     
           22 :    -26.39086282298194     
           23 :     30.58511381560902     
           24 :    -30.07193514380151     
           25 :     26.82750858255872     
           26 :    -23.96715255648110     
           27 :     24.02900940444056     
           28 :    -27.66900201726321     
           29 :     33.39255646330480     
           30 :    -38.40328592934770     
           31 :    -86.12815253593362     
           32 :    -61.96567315133893     

     Writing all to output data dir ./PbI2.save/
 
     init_run     :      3.95s CPU      7.00s WALL (       1 calls)
     electrons    :     35.60s CPU     37.57s WALL (       1 calls)
     forces       :      3.53s CPU      3.83s WALL (       1 calls)
     stress       :     43.88s CPU     44.56s WALL (       1 calls)

     Called by init_run:
     wfcinit      :      0.64s CPU      3.37s WALL (       1 calls)
     potinit      :      2.21s CPU      2.33s WALL (       1 calls)
     hinit0       :      0.44s CPU      0.46s WALL (       1 calls)

     Called by electrons:
     c_bands      :     30.39s CPU     31.59s WALL (       2 calls)
     sum_band     :      3.74s CPU      4.20s WALL (       2 calls)
     v_of_rho     :      2.30s CPU      2.44s WALL (       2 calls)
     v_h          :      0.01s CPU      0.01s WALL (       2 calls)
     v_xc         :     21.48s CPU     23.82s WALL (      38 calls)
     newd         :      0.83s CPU      1.14s WALL (       2 calls)
     PAW_pot      :      0.89s CPU      0.89s WALL (       2 calls)
     mix_rho      :      0.00s CPU      0.00s WALL (       2 calls)
     vdW_kernel   :      1.17s CPU      1.18s WALL (       1 calls)

     Called by c_bands:
     init_us_2    :      0.50s CPU      0.51s WALL (      24 calls)
     init_us_2:cp :      0.50s CPU      0.51s WALL (      24 calls)
     cegterg      :     29.63s CPU     30.54s WALL (       8 calls)

     Called by sum_band:
     sum_band:wei :      0.00s CPU      0.00s WALL (       2 calls)
     sum_band:loo :      2.81s CPU      2.85s WALL (       2 calls)
     sum_band:buf :      0.13s CPU      0.15s WALL (       8 calls)
     sum_band:ini :      0.19s CPU      0.19s WALL (       8 calls)
     sum_band:cal :      0.59s CPU      0.60s WALL (       8 calls)
     sum_band:bec :      0.01s CPU      0.01s WALL (       8 calls)
     addusdens    :      0.90s CPU      1.31s WALL (       2 calls)
     addusd:skk   :      0.01s CPU      0.02s WALL (       4 calls)
     addusd:dgemm :      0.51s CPU      0.89s WALL (       4 calls)
     addusd:qvan2 :      0.37s CPU      0.37s WALL (       4 calls)

     Called by *egterg:
     cdiaghg      :      7.76s CPU      7.80s WALL (      47 calls)
     cegterg:over :      3.18s CPU      3.23s WALL (      47 calls)
     cegterg:upda :      2.38s CPU      2.51s WALL (      47 calls)
     cegterg:last :      0.82s CPU      0.83s WALL (       8 calls)
     h_psi        :     12.43s CPU     12.73s WALL (      55 calls)
     s_psi        :      1.75s CPU      1.77s WALL (      55 calls)
     g_psi        :      0.09s CPU      0.09s WALL (      47 calls)

     Called by h_psi:
     h_psi:calbec :      1.85s CPU      1.86s WALL (      55 calls)
     vloc_psi     :      8.62s CPU      8.69s WALL (      55 calls)
     add_vuspsi   :      1.76s CPU      1.78s WALL (      55 calls)

     General routines
     calbec       :      4.31s CPU      4.34s WALL (      83 calls)
     fft          :      9.73s CPU      9.84s WALL (    2232 calls)
     ffts         :      0.01s CPU      0.01s WALL (       4 calls)
     fftw         :      9.54s CPU      9.62s WALL (   10518 calls)
     interpolate  :      0.02s CPU      0.02s WALL (       2 calls)
 
     Parallel routines

     PAW routines
     PAW_pot      :      0.89s CPU      0.89s WALL (       2 calls)
 
     PWSCF        :   1m46.05s CPU   1m56.41s WALL

 
   This run was terminated on:  14:23:48  28Mar2024            

=------------------------------------------------------------------------------=
   JOB DONE.
=------------------------------------------------------------------------------=
