
     Program PWSCF v.7.1 starts on  7Mar2024 at 11:39:12 

     This program is part of the open-source Quantum ESPRESSO suite
     for quantum simulation of materials; please cite
         "P. Giannozzi et al., J. Phys.:Condens. Matter 21 395502 (2009);
         "P. Giannozzi et al., J. Phys.:Condens. Matter 29 465901 (2017);
         "P. Giannozzi et al., J. Chem. Phys. 152 154105 (2020);
          URL http://www.quantum-espresso.org", 
     in publications or presentations arising from this work. More details at
     http://www.quantum-espresso.org/quote

     Parallel version (MPI & OpenMP), running on     128 processor cores
     Number of MPI processes:               128
     Threads/MPI process:                     1

     MPI processes distributed on     1 nodes
     1824313 MiB available memory on the printing compute node when the environment starts
 
     Reading input from espresso.pwi
Warning: card &CELL ignored
Warning: card    CELL_DYNAMICS    = 'BFGS' ignored
Warning: card / ignored

     Current dimensions of program PWSCF are:
     Max number of different atomic species (ntypx) = 10
     Max number of k-points (npk) =  40000
     Max angular momentum in pseudopotentials (lmaxx) =  4
     file Pb.pbe-dn-kjpaw_psl.1.0.0.UPF: wavefunction(s)  6S 6P 5D renormalized
     file I.pbe-dn-kjpaw_psl.1.0.0.UPF: wavefunction(s)  5S 5P renormalized

     **************************************************************************
     Initializing libbeef V0.1.2 with the BEEF-vdW functional.
     Citation: Wellendorff et al., PRB 85, 235149 (2012).
     **************************************************************************


     IMPORTANT: XC functional enforced from input :
     Exchange-correlation= BEEF-VDW
                           (   1   4  43  14   2   0   0)
     Any further DFT definition will be discarded
     Please, verify this is what you really want

 
     R & G space division:  proc/nbgrp/npool/nimage =     128
     Subspace diagonalization in iterative solution of the eigenvalue problem:
     a serial algorithm will be used

 
     Parallelization info
     --------------------
     sticks:   dense  smooth     PW     G-vecs:    dense   smooth      PW
     Min         238     190     47                26450    18922    2361
     Max         239     191     48                26459    18933    2368
     Sum       30589   24439   6121              3386231  2422955  302835
 
     Using Slab Decomposition
 


     bravais-lattice index     =            4
     lattice parameter (alat)  =      35.6120  a.u.
     unit-cell volume          =   30624.9051 (a.u.)^3
     number of atoms/cell      =           95
     number of atomic types    =            2
     number of electrons       =      1518.00
     number of Kohn-Sham states=          911
     kinetic-energy cutoff     =      70.0000  Ry
     charge density cutoff     =     350.0000  Ry
     scf convergence threshold =      1.0E-07
     mixing beta               =       0.7000
     number of iterations used =            8  plain     mixing
     energy convergence thresh.=      1.0E-04
     force convergence thresh. =      1.0E-03
     Exchange-correlation= BEEF-VDW
                           (   1   4  43  14   2   0   0)
     nstep                     =           50


     celldm(1)=  35.612033  celldm(2)=   0.000000  celldm(3)=   0.782986
     celldm(4)=   0.000000  celldm(5)=   0.000000  celldm(6)=   0.000000

     crystal axes: (cart. coord. in units of alat)
               a(1) = (   1.000000   0.000000   0.000000 )  
               a(2) = (  -0.500000   0.866025   0.000000 )  
               a(3) = (   0.000000   0.000000   0.782986 )  

     reciprocal axes: (cart. coord. in units 2 pi/alat)
               b(1) = (  1.000000  0.577350 -0.000000 )  
               b(2) = (  0.000000  1.154701  0.000000 )  
               b(3) = (  0.000000 -0.000000  1.277163 )  


     PseudoPot. # 1 for Pb read from file:
     /trace/group/acmegroup/atimmins/packages/espresso/pseudo/psl_1.0.0/pslibrary.1.0.0/pbe/PSEUDOPOTENTIALS/Pb.pbe-dn-kjpaw_psl.1.0.0.UPF
     MD5 check sum: 39ab5b8a6bbd56b7735ad9f188aac93a
     Pseudo is Projector augmented-wave + core cor, Zval = 14.0
     Generated using 'atomic' code by A. Dal Corso  v.7.1
     Shape of augmentation charge: PSQ
     Using radial grid of 1281 points,  6 beta functions with: 
                l(1) =   0
                l(2) =   0
                l(3) =   1
                l(4) =   1
                l(5) =   2
                l(6) =   2
     Q(r) pseudized with 0 coefficients 


     PseudoPot. # 2 for I  read from file:
     /trace/group/acmegroup/atimmins/packages/espresso/pseudo/psl_1.0.0/pslibrary.1.0.0/pbe/PSEUDOPOTENTIALS/I.pbe-dn-kjpaw_psl.1.0.0.UPF
     MD5 check sum: bfa8781bc1224d19af3f3980e3fab11e
     Pseudo is Projector augmented-wave + core cor, Zval = 17.0
     Generated using 'atomic' code by A. Dal Corso  v.7.1
     Shape of augmentation charge: PSQ
     Using radial grid of 1247 points,  6 beta functions with: 
                l(1) =   0
                l(2) =   0
                l(3) =   1
                l(4) =   1
                l(5) =   2
                l(6) =   2
     Q(r) pseudized with 0 coefficients 


     atomic species   valence    mass     pseudopotential
        Pb            14.00   207.20000     Pb( 1.00)
        I             17.00   126.90447     I ( 1.00)

     No symmetry found


                                    s                        frac. trans.

      isym =  1     identity                                     

 cryst.   s( 1) = (     1          0          0      )
                  (     0          1          0      )
                  (     0          0          1      )

 cart.    s( 1) = (  1.0000000  0.0000000  0.0000000 )
                  (  0.0000000  1.0000000  0.0000000 )
                  (  0.0000000  0.0000000  1.0000000 )


     point group C_1 (1)    
     there are  1 classes
     the character table:

       E    
A      1.00

     the symmetry operations in each class and the name of the first element:

     E        1
          identity                                               

   Cartesian axes

     site n.     atom                  positions (alat units)
         1           Pb  tau(   1) = (   0.1250085   0.2164873   0.7829825  )
         2           Pb  tau(   2) = (   0.1250034   0.2164918   0.3914896  )
         3           Pb  tau(   3) = (   0.0000077   0.4329926   0.7829784  )
         4           Pb  tau(   4) = (   0.0000026   0.4329971   0.3914855  )
         5           Pb  tau(   5) = (  -0.1249932   0.6494980   0.7829742  )
         6           Pb  tau(   6) = (  -0.1249983   0.6495025   0.3914814  )
         7           Pb  tau(   7) = (  -0.2499940   0.8660033   0.7829701  )
         8           Pb  tau(   8) = (  -0.2499991   0.8660078   0.3914773  )
         9           Pb  tau(   9) = (   0.3750085   0.2164863   0.7829857  )
        10           Pb  tau(  10) = (   0.3750034   0.2164908   0.3914929  )
        11           Pb  tau(  11) = (   0.2500077   0.4329916   0.7829816  )
        12           Pb  tau(  12) = (   0.2500026   0.4329962   0.3914888  )
        13           Pb  tau(  13) = (   0.1250068   0.6494970   0.7829775  )
        14           Pb  tau(  14) = (   0.1250017   0.6495015   0.3914847  )
        15           Pb  tau(  15) = (   0.0000060   0.8660024   0.7829734  )
        16           Pb  tau(  16) = (   0.0000009   0.8660069   0.3914805  )
        17           Pb  tau(  17) = (   0.6250085   0.2164853   0.7829890  )
        18           Pb  tau(  18) = (   0.6250034   0.2164898   0.3914962  )
        19           Pb  tau(  19) = (   0.5000077   0.4329907   0.7829849  )
        20           Pb  tau(  20) = (   0.5000026   0.4329952   0.3914920  )
        21           Pb  tau(  21) = (   0.3750068   0.6494960   0.7829808  )
        22           Pb  tau(  22) = (   0.3750017   0.6495006   0.3914879  )
        23           Pb  tau(  23) = (   0.2500060   0.8660014   0.7829766  )
        24           Pb  tau(  24) = (   0.2500009   0.8660059   0.3914838  )
        25           Pb  tau(  25) = (   0.8750085   0.2164844   0.7829923  )
        26           Pb  tau(  26) = (   0.8750034   0.2164889   0.3914994  )
        27           Pb  tau(  27) = (   0.7500077   0.4329897   0.7829881  )
        28           Pb  tau(  28) = (   0.7500026   0.4329942   0.3914953  )
        29           Pb  tau(  29) = (   0.6250068   0.6494951   0.7829840  )
        30           Pb  tau(  30) = (   0.6250017   0.6494996   0.3914912  )
        31           Pb  tau(  31) = (   0.5000060   0.8660004   0.7829799  )
        32           Pb  tau(  32) = (   0.5000009   0.8660050   0.3914870  )
        33           I   tau(  33) = (   0.1250105   0.0721505   0.6824253  )
        34           I   tau(  34) = (   0.0000045   0.2886603   0.2909283  )
        35           I   tau(  35) = (   0.0000096   0.2886558   0.6824212  )
        36           I   tau(  36) = (  -0.1249963   0.5051657   0.2909242  )
        37           I   tau(  37) = (  -0.1249912   0.5051612   0.6824171  )
        38           I   tau(  38) = (  -0.2499971   0.7216710   0.2909201  )
        39           I   tau(  39) = (  -0.2499920   0.7216665   0.6824129  )
        40           I   tau(  40) = (   0.3750054   0.0721540   0.2909357  )
        41           I   tau(  41) = (   0.3750105   0.0721495   0.6824286  )
        42           I   tau(  42) = (   0.2500045   0.2886594   0.2909316  )
        43           I   tau(  43) = (   0.2500096   0.2886548   0.6824244  )
        44           I   tau(  44) = (   0.1250037   0.5051647   0.2909275  )
        45           I   tau(  45) = (   0.1250088   0.5051602   0.6824203  )
        46           I   tau(  46) = (   0.0000029   0.7216701   0.2909233  )
        47           I   tau(  47) = (   0.0000080   0.7216656   0.6824162  )
        48           I   tau(  48) = (   0.6250054   0.0721530   0.2909390  )
        49           I   tau(  49) = (   0.6250105   0.0721485   0.6824318  )
        50           I   tau(  50) = (   0.5000045   0.2886584   0.2909348  )
        51           I   tau(  51) = (   0.5000096   0.2886539   0.6824277  )
        52           I   tau(  52) = (   0.3750037   0.5051638   0.2909307  )
        53           I   tau(  53) = (   0.3750088   0.5051592   0.6824236  )
        54           I   tau(  54) = (   0.2500029   0.7216691   0.2909266  )
        55           I   tau(  55) = (   0.2500080   0.7216646   0.6824194  )
        56           I   tau(  56) = (   0.8750054   0.0721521   0.2909422  )
        57           I   tau(  57) = (   0.8750105   0.0721476   0.6824351  )
        58           I   tau(  58) = (   0.7500045   0.2886574   0.2909381  )
        59           I   tau(  59) = (   0.7500096   0.2886529   0.6824310  )
        60           I   tau(  60) = (   0.6250037   0.5051628   0.2909340  )
        61           I   tau(  61) = (   0.6250088   0.5051583   0.6824268  )
        62           I   tau(  62) = (   0.5000029   0.7216681   0.2909299  )
        63           I   tau(  63) = (   0.5000080   0.7216636   0.6824227  )
        64           I   tau(  64) = (  -0.0000017   0.1443297   0.1005555  )
        65           I   tau(  65) = (   0.0000034   0.1443252   0.4920483  )
        66           I   tau(  66) = (  -0.1250025   0.3608351   0.1005514  )
        67           I   tau(  67) = (  -0.1249974   0.3608306   0.4920442  )
        68           I   tau(  68) = (  -0.2500034   0.5773404   0.1005472  )
        69           I   tau(  69) = (  -0.2499983   0.5773359   0.4920401  )
        70           I   tau(  70) = (  -0.3750042   0.7938458   0.1005431  )
        71           I   tau(  71) = (  -0.3749991   0.7938413   0.4920360  )
        72           I   tau(  72) = (   0.2499983   0.1443288   0.1005587  )
        73           I   tau(  73) = (   0.2500034   0.1443242   0.4920516  )
        74           I   tau(  74) = (   0.1249975   0.3608341   0.1005546  )
        75           I   tau(  75) = (   0.1250026   0.3608296   0.4920475  )
        76           I   tau(  76) = (  -0.0000034   0.5773395   0.1005505  )
        77           I   tau(  77) = (   0.0000017   0.5773350   0.4920433  )
        78           I   tau(  78) = (  -0.1250042   0.7938448   0.1005464  )
        79           I   tau(  79) = (  -0.1249991   0.7938403   0.4920392  )
        80           I   tau(  80) = (   0.4999983   0.1443278   0.1005620  )
        81           I   tau(  81) = (   0.5000034   0.1443233   0.4920548  )
        82           I   tau(  82) = (   0.3749975   0.3608332   0.1005579  )
        83           I   tau(  83) = (   0.3750026   0.3608286   0.4920507  )
        84           I   tau(  84) = (   0.2499966   0.5773385   0.1005537  )
        85           I   tau(  85) = (   0.2500017   0.5773340   0.4920466  )
        86           I   tau(  86) = (   0.1249958   0.7938439   0.1005496  )
        87           I   tau(  87) = (   0.1250009   0.7938394   0.4920425  )
        88           I   tau(  88) = (   0.7499983   0.1443268   0.1005653  )
        89           I   tau(  89) = (   0.7500034   0.1443223   0.4920581  )
        90           I   tau(  90) = (   0.6249975   0.3608322   0.1005611  )
        91           I   tau(  91) = (   0.6250026   0.3608277   0.4920540  )
        92           I   tau(  92) = (   0.4999966   0.5773376   0.1005570  )
        93           I   tau(  93) = (   0.5000017   0.5773330   0.4920499  )
        94           I   tau(  94) = (   0.3749958   0.7938429   0.1005529  )
        95           I   tau(  95) = (   0.3750009   0.7938384   0.4920457  )

   Crystallographic axes

     site n.     atom                  positions (cryst. coord.)
         1           Pb  tau(   1) = (  0.2499975  0.2499780  0.9999959  )
         2           Pb  tau(   2) = (  0.2499950  0.2499832  0.4999959  )
         3           Pb  tau(   3) = (  0.2499961  0.4999768  0.9999906  )
         4           Pb  tau(   4) = (  0.2499936  0.4999820  0.4999906  )
         5           Pb  tau(   5) = (  0.2499947  0.7499757  0.9999854  )
         6           Pb  tau(   6) = (  0.2499922  0.7499809  0.4999854  )
         7           Pb  tau(   7) = (  0.2499932  0.9999745  0.9999801  )
         8           Pb  tau(   8) = (  0.2499908  0.9999797  0.4999801  )
         9           Pb  tau(   9) = (  0.4999969  0.2499768  1.0000001  )
        10           Pb  tau(  10) = (  0.4999944  0.2499821  0.5000001  )
        11           Pb  tau(  11) = (  0.4999955  0.4999757  0.9999948  )
        12           Pb  tau(  12) = (  0.4999930  0.4999809  0.4999948  )
        13           Pb  tau(  13) = (  0.4999941  0.7499745  0.9999895  )
        14           Pb  tau(  14) = (  0.4999916  0.7499798  0.4999895  )
        15           Pb  tau(  15) = (  0.4999927  0.9999734  0.9999843  )
        16           Pb  tau(  16) = (  0.4999902  0.9999786  0.4999843  )
        17           Pb  tau(  17) = (  0.7499964  0.2499757  1.0000042  )
        18           Pb  tau(  18) = (  0.7499939  0.2499809  0.5000042  )
        19           Pb  tau(  19) = (  0.7499950  0.4999746  0.9999990  )
        20           Pb  tau(  20) = (  0.7499925  0.4999798  0.4999990  )
        21           Pb  tau(  21) = (  0.7499935  0.7499734  0.9999937  )
        22           Pb  tau(  22) = (  0.7499910  0.7499786  0.4999937  )
        23           Pb  tau(  23) = (  0.7499921  0.9999723  0.9999884  )
        24           Pb  tau(  24) = (  0.7499896  0.9999775  0.4999884  )
        25           Pb  tau(  25) = (  0.9999958  0.2499746  1.0000084  )
        26           Pb  tau(  26) = (  0.9999933  0.2499798  0.5000084  )
        27           Pb  tau(  27) = (  0.9999944  0.4999735  1.0000031  )
        28           Pb  tau(  28) = (  0.9999919  0.4999787  0.5000031  )
        29           Pb  tau(  29) = (  0.9999930  0.7499723  0.9999979  )
        30           Pb  tau(  30) = (  0.9999905  0.7499775  0.4999979  )
        31           Pb  tau(  31) = (  0.9999916  0.9999712  0.9999926  )
        32           Pb  tau(  32) = (  0.9999891  0.9999764  0.4999926  )
        33           I   tau(  33) = (  0.1666666  0.0833122  0.8715680  )
        34           I   tau(  34) = (  0.1666626  0.3333162  0.3715628  )
        35           I   tau(  35) = (  0.1666651  0.3333110  0.8715628  )
        36           I   tau(  36) = (  0.1666612  0.5833151  0.3715575  )
        37           I   tau(  37) = (  0.1666637  0.5833099  0.8715575  )
        38           I   tau(  38) = (  0.1666598  0.8333139  0.3715522  )
        39           I   tau(  39) = (  0.1666623  0.8333087  0.8715522  )
        40           I   tau(  40) = (  0.4166635  0.0833163  0.3715722  )
        41           I   tau(  41) = (  0.4166660  0.0833111  0.8715722  )
        42           I   tau(  42) = (  0.4166621  0.3333151  0.3715669  )
        43           I   tau(  43) = (  0.4166646  0.3333099  0.8715669  )
        44           I   tau(  44) = (  0.4166607  0.5833140  0.3715617  )
        45           I   tau(  45) = (  0.4166632  0.5833088  0.8715617  )
        46           I   tau(  46) = (  0.4166593  0.8333128  0.3715564  )
        47           I   tau(  47) = (  0.4166618  0.8333076  0.8715564  )
        48           I   tau(  48) = (  0.6666629  0.0833152  0.3715764  )
        49           I   tau(  49) = (  0.6666654  0.0833099  0.8715764  )
        50           I   tau(  50) = (  0.6666615  0.3333140  0.3715711  )
        51           I   tau(  51) = (  0.6666640  0.3333088  0.8715711  )
        52           I   tau(  52) = (  0.6666601  0.5833129  0.3715658  )
        53           I   tau(  53) = (  0.6666626  0.5833076  0.8715658  )
        54           I   tau(  54) = (  0.6666587  0.8333117  0.3715606  )
        55           I   tau(  55) = (  0.6666612  0.8333065  0.8715606  )
        56           I   tau(  56) = (  0.9166624  0.0833141  0.3715805  )
        57           I   tau(  57) = (  0.9166649  0.0833088  0.8715805  )
        58           I   tau(  58) = (  0.9166610  0.3333129  0.3715752  )
        59           I   tau(  59) = (  0.9166635  0.3333077  0.8715752  )
        60           I   tau(  60) = (  0.9166596  0.5833118  0.3715700  )
        61           I   tau(  61) = (  0.9166621  0.5833065  0.8715700  )
        62           I   tau(  62) = (  0.9166582  0.8333106  0.3715647  )
        63           I   tau(  63) = (  0.9166607  0.8333054  0.8715647  )
        64           I   tau(  64) = (  0.0833271  0.1666576  0.1284257  )
        65           I   tau(  65) = (  0.0833296  0.1666524  0.6284257  )
        66           I   tau(  66) = (  0.0833257  0.4166565  0.1284204  )
        67           I   tau(  67) = (  0.0833282  0.4166513  0.6284204  )
        68           I   tau(  68) = (  0.0833243  0.6666553  0.1284152  )
        69           I   tau(  69) = (  0.0833268  0.6666501  0.6284152  )
        70           I   tau(  70) = (  0.0833229  0.9166542  0.1284099  )
        71           I   tau(  71) = (  0.0833254  0.9166489  0.6284099  )
        72           I   tau(  72) = (  0.3333265  0.1666565  0.1284299  )
        73           I   tau(  73) = (  0.3333290  0.1666513  0.6284299  )
        74           I   tau(  74) = (  0.3333251  0.4166554  0.1284246  )
        75           I   tau(  75) = (  0.3333276  0.4166501  0.6284246  )
        76           I   tau(  76) = (  0.3333237  0.6666542  0.1284193  )
        77           I   tau(  77) = (  0.3333262  0.6666490  0.6284193  )
        78           I   tau(  78) = (  0.3333223  0.9166531  0.1284141  )
        79           I   tau(  79) = (  0.3333248  0.9166478  0.6284141  )
        80           I   tau(  80) = (  0.5833260  0.1666554  0.1284340  )
        81           I   tau(  81) = (  0.5833285  0.1666502  0.6284340  )
        82           I   tau(  82) = (  0.5833246  0.4166542  0.1284287  )
        83           I   tau(  83) = (  0.5833271  0.4166490  0.6284287  )
        84           I   tau(  84) = (  0.5833232  0.6666531  0.1284235  )
        85           I   tau(  85) = (  0.5833257  0.6666479  0.6284235  )
        86           I   tau(  86) = (  0.5833218  0.9166519  0.1284182  )
        87           I   tau(  87) = (  0.5833243  0.9166467  0.6284182  )
        88           I   tau(  88) = (  0.8333254  0.1666543  0.1284382  )
        89           I   tau(  89) = (  0.8333279  0.1666491  0.6284382  )
        90           I   tau(  90) = (  0.8333240  0.4166531  0.1284329  )
        91           I   tau(  91) = (  0.8333265  0.4166479  0.6284329  )
        92           I   tau(  92) = (  0.8333226  0.6666520  0.1284276  )
        93           I   tau(  93) = (  0.8333251  0.6666468  0.6284276  )
        94           I   tau(  94) = (  0.8333212  0.9166508  0.1284224  )
        95           I   tau(  95) = (  0.8333237  0.9166456  0.6284224  )

     number of k points=     1  Gaussian smearing, width (Ry)=  0.0100
                       cart. coord. in units 2pi/alat
        k(    1) = (   0.0000000   0.0000000   0.0000000), wk =   2.0000000

                       cryst. coord.
        k(    1) = (   0.0000000   0.0000000   0.0000000), wk =   2.0000000

     Dense  grid:  3386231 G-vectors     FFT dimensions: ( 216, 216, 180)

     Smooth grid:  2422955 G-vectors     FFT dimensions: ( 192, 192, 150)

     Dynamical RAM for                 wfc:      32.89 MB

     Dynamical RAM for     wfc (w. buffer):      32.89 MB

     Dynamical RAM for           str. fact:       0.81 MB

     Dynamical RAM for           local pot:       0.00 MB

     Dynamical RAM for          nlocal pot:      61.73 MB

     Dynamical RAM for                qrad:       3.00 MB

     Dynamical RAM for          rho,v,vnew:       3.35 MB

     Dynamical RAM for               rhoin:       1.12 MB

     Dynamical RAM for            rho*nmix:       6.46 MB

     Dynamical RAM for           G-vectors:       1.66 MB

     Dynamical RAM for          h,s,v(r/c):     607.85 MB

     Dynamical RAM for          <psi|beta>:      23.77 MB

     Dynamical RAM for                 psi:     131.56 MB

     Dynamical RAM for                hpsi:     131.56 MB

     Dynamical RAM for                spsi:     131.56 MB

     Dynamical RAM for      wfcinit/wfcrot:      84.78 MB

     Dynamical RAM for           addusdens:     100.51 MB

     Dynamical RAM for          addusforce:     151.02 MB

     Dynamical RAM for         addusstress:      81.14 MB

     Estimated static dynamical RAM per process >     109.33 MB

     Estimated max dynamical RAM per process >       1.12 GB

     Estimated total dynamical RAM >     142.76 GB

     Atomic positions and unit cell read from directory:
     ./PbI2.save/
     Atomic positions from file used, from input discarded
 

     Check: negative core charge=   -0.000001

     The initial density is read from file :
     ./PbI2.save/charge-density


     starting charge    1519.0000, renormalised to    1518.0000


     %%%%%%%%%%%%%%%%%%%%%%%%%%%%%%%%%%%%%%%%%%%%%%%%%%%%%%%%%%%%%%%%%%%%%%%%
     %                                                                      %
     % You are using vdW-DF, which was implemented by the Thonhauser group. %
     % Please cite the following two papers that made this development      %
     % possible and the two reviews that describe the various versions:     %
     %                                                                      %
     %   T. Thonhauser et al., PRL 115, 136402 (2015).                      %
     %   T. Thonhauser et al., PRB 76, 125112 (2007).                       %
     %   K. Berland et al., Rep. Prog. Phys. 78, 066501 (2015).             %
     %   D.C. Langreth et al., J. Phys.: Condens. Matter 21, 084203 (2009). %
     %                                                                      %
     % If you are calculating stress with vdW-DF, please also cite:         %
     %                                                                      %
     %   R. Sabatini et al., J. Phys.: Condens. Matter 24, 424209 (2012).   %
     %                                                                      %
     %%%%%%%%%%%%%%%%%%%%%%%%%%%%%%%%%%%%%%%%%%%%%%%%%%%%%%%%%%%%%%%%%%%%%%%%

     %%%%%%%%%%%%%%%%%%%%%%%%%%%%%%%%%%%%%%%%%%%%%%%%%%%%%%%%%%%%%%%%%%%%%%%%
     %                                                                      %
     %  vdW-DF NEWS:                                                        %
     %                                                                      %
     %  * vdW-DF3 is now available. DOI: 10.1021/acs.jctc.0c00471           %
     %    use with input_dft = 'vdW-DF3-opt1' or 'vdW-DF3-opt2'             %
     %                                                                      %
     %  * Unscreened and range-separated vdW-DF hybrid functionals          %
     %    DOI: 10.1063/1.4986522 and 10.1088/1361-648X/ac2ad2               %
     %    use with input_dft = 'vdW-DF-cx0' (etc) and 'vdW-DF-ahcx'         %
     %                                                                      %
     %%%%%%%%%%%%%%%%%%%%%%%%%%%%%%%%%%%%%%%%%%%%%%%%%%%%%%%%%%%%%%%%%%%%%%%%


     Carrying out vdW-DF run using the following parameters:
     Nqs    =  20  Npoints =  1024  r_max =  100.000
     q_mesh =  0.00001000  0.04494208  0.09755937  0.15916263
               0.23128650  0.31572767  0.41458969  0.53033537
               0.66584808  0.82450364  1.01025438  1.22772762
               1.48234092  1.78043706  2.12944203  2.53805004
               3.01644009  3.57652955  4.23227104  5.00000000


     -----------------------------------------------
     Non-local corr. energy    =      45.44932636 Ry
     -----------------------------------------------

     Wavefunctions not found or not readable, recomputing them from scratch
     Starting wfcs are  855 randomized atomic wfcs +   56 random wfcs
     Checking if some PAW data can be deallocated... 
       PAW data deallocated on   64 nodes for type:  1
       PAW data deallocated on   64 nodes for type:  2

     total cpu time spent up to now is       17.2 secs

     Self-consistent Calculation

     iteration #  1     ecut=    70.00 Ry     beta= 0.70
     Davidson diagonalization with overlap

---- Real-time Memory Report at c_bands before calling an iterative solver
           532 MiB given to the printing process from OS
             0 MiB allocation reported by mallinfo(arena+hblkhd)
       1802182 MiB available memory on the node where the printing process lives
------------------
     c_bands:  2 eigenvalues not converged
     ethr =  1.00E-05,  avg # of iterations = 20.0


     -----------------------------------------------
     Non-local corr. energy    =      45.51508388 Ry
     -----------------------------------------------


     total cpu time spent up to now is      358.1 secs

     total energy              =  -64192.81042945 Ry
     estimated scf accuracy    <       0.09417562 Ry

     iteration #  2     ecut=    70.00 Ry     beta= 0.70
     Davidson diagonalization with overlap

---- Real-time Memory Report at c_bands before calling an iterative solver
          1241 MiB given to the printing process from OS
             0 MiB allocation reported by mallinfo(arena+hblkhd)
       1789744 MiB available memory on the node where the printing process lives
------------------
     ethr =  6.20E-06,  avg # of iterations = 12.0


     -----------------------------------------------
     Non-local corr. energy    =      45.50407946 Ry
     -----------------------------------------------


     total cpu time spent up to now is      543.2 secs

     total energy              =  -64192.78064685 Ry
     estimated scf accuracy    <       0.39080603 Ry

     iteration #  3     ecut=    70.00 Ry     beta= 0.70
     Davidson diagonalization with overlap

---- Real-time Memory Report at c_bands before calling an iterative solver
          1241 MiB given to the printing process from OS
             0 MiB allocation reported by mallinfo(arena+hblkhd)
       1789619 MiB available memory on the node where the printing process lives
------------------
     ethr =  6.20E-06,  avg # of iterations = 20.0


     -----------------------------------------------
     Non-local corr. energy    =      45.49270976 Ry
     -----------------------------------------------


     total cpu time spent up to now is      824.4 secs

     total energy              =  -64192.85401482 Ry
     estimated scf accuracy    <       0.02183666 Ry

     iteration #  4     ecut=    70.00 Ry     beta= 0.70
     Davidson diagonalization with overlap

---- Real-time Memory Report at c_bands before calling an iterative solver
          1241 MiB given to the printing process from OS
             0 MiB allocation reported by mallinfo(arena+hblkhd)
       1789493 MiB available memory on the node where the printing process lives
------------------
     ethr =  1.44E-06,  avg # of iterations = 17.0


     -----------------------------------------------
     Non-local corr. energy    =      45.48732314 Ry
     -----------------------------------------------


     total cpu time spent up to now is     1033.2 secs

     total energy              =  -64192.85755727 Ry
     estimated scf accuracy    <       0.00507645 Ry

     iteration #  5     ecut=    70.00 Ry     beta= 0.70
     Davidson diagonalization with overlap

---- Real-time Memory Report at c_bands before calling an iterative solver
          1241 MiB given to the printing process from OS
             0 MiB allocation reported by mallinfo(arena+hblkhd)
       1789371 MiB available memory on the node where the printing process lives
------------------
     ethr =  3.34E-07,  avg # of iterations = 17.0


     -----------------------------------------------
     Non-local corr. energy    =      45.48415803 Ry
     -----------------------------------------------


     total cpu time spent up to now is     1246.7 secs

     total energy              =  -64192.85846736 Ry
     estimated scf accuracy    <       0.00145120 Ry

     iteration #  6     ecut=    70.00 Ry     beta= 0.70
     Davidson diagonalization with overlap

---- Real-time Memory Report at c_bands before calling an iterative solver
          1241 MiB given to the printing process from OS
             0 MiB allocation reported by mallinfo(arena+hblkhd)
       1789253 MiB available memory on the node where the printing process lives
------------------
     ethr =  9.56E-08,  avg # of iterations = 20.0


     -----------------------------------------------
     Non-local corr. energy    =      45.47935161 Ry
     -----------------------------------------------


     total cpu time spent up to now is     1513.2 secs

     total energy              =  -64192.85876076 Ry
     estimated scf accuracy    <       0.00111619 Ry

     iteration #  7     ecut=    70.00 Ry     beta= 0.70
     Davidson diagonalization with overlap

---- Real-time Memory Report at c_bands before calling an iterative solver
          1241 MiB given to the printing process from OS
             0 MiB allocation reported by mallinfo(arena+hblkhd)
       1789122 MiB available memory on the node where the printing process lives
------------------
     ethr =  7.35E-08,  avg # of iterations = 17.0


     -----------------------------------------------
     Non-local corr. energy    =      45.47587626 Ry
     -----------------------------------------------


     total cpu time spent up to now is     1702.8 secs

     total energy              =  -64192.85890058 Ry
     estimated scf accuracy    <       0.00015126 Ry

     iteration #  8     ecut=    70.00 Ry     beta= 0.70
     Davidson diagonalization with overlap

---- Real-time Memory Report at c_bands before calling an iterative solver
          1241 MiB given to the printing process from OS
             0 MiB allocation reported by mallinfo(arena+hblkhd)
       1789000 MiB available memory on the node where the printing process lives
------------------
     ethr =  9.96E-09,  avg # of iterations = 17.0


     -----------------------------------------------
     Non-local corr. energy    =      45.47487997 Ry
     -----------------------------------------------


     total cpu time spent up to now is     2019.7 secs

     total energy              =  -64192.85894300 Ry
     estimated scf accuracy    <       0.00009199 Ry

     iteration #  9     ecut=    70.00 Ry     beta= 0.70
     Davidson diagonalization with overlap

---- Real-time Memory Report at c_bands before calling an iterative solver
          1241 MiB given to the printing process from OS
             0 MiB allocation reported by mallinfo(arena+hblkhd)
       1788871 MiB available memory on the node where the printing process lives
------------------
     c_bands:  2 eigenvalues not converged
     ethr =  6.06E-09,  avg # of iterations = 20.0


     -----------------------------------------------
     Non-local corr. energy    =      45.47491559 Ry
     -----------------------------------------------


     total cpu time spent up to now is     2253.1 secs

     total energy              =  -64192.85896012 Ry
     estimated scf accuracy    <       0.00001229 Ry

     iteration # 10     ecut=    70.00 Ry     beta= 0.70
     Davidson diagonalization with overlap

---- Real-time Memory Report at c_bands before calling an iterative solver
          1241 MiB given to the printing process from OS
             0 MiB allocation reported by mallinfo(arena+hblkhd)
       1788748 MiB available memory on the node where the printing process lives
------------------
     ethr =  8.10E-10,  avg # of iterations = 20.0


     -----------------------------------------------
     Non-local corr. energy    =      45.47498181 Ry
     -----------------------------------------------


     total cpu time spent up to now is     2509.3 secs

     total energy              =  -64192.85896285 Ry
     estimated scf accuracy    <       0.00000159 Ry

     iteration # 11     ecut=    70.00 Ry     beta= 0.70
     Davidson diagonalization with overlap

---- Real-time Memory Report at c_bands before calling an iterative solver
          1241 MiB given to the printing process from OS
             0 MiB allocation reported by mallinfo(arena+hblkhd)
       1788747 MiB available memory on the node where the printing process lives
------------------
     ethr =  1.05E-10,  avg # of iterations = 17.0


     -----------------------------------------------
     Non-local corr. energy    =      45.47510748 Ry
     -----------------------------------------------


     total cpu time spent up to now is     2796.7 secs

     total energy              =  -64192.85896346 Ry
     estimated scf accuracy    <       0.00000029 Ry

     iteration # 12     ecut=    70.00 Ry     beta= 0.70
     Davidson diagonalization with overlap

---- Real-time Memory Report at c_bands before calling an iterative solver
          1241 MiB given to the printing process from OS
             0 MiB allocation reported by mallinfo(arena+hblkhd)
       1788746 MiB available memory on the node where the printing process lives
------------------
     c_bands:  2 eigenvalues not converged
     ethr =  1.94E-11,  avg # of iterations = 20.0


     -----------------------------------------------
     Non-local corr. energy    =      45.47506938 Ry
     -----------------------------------------------


     total cpu time spent up to now is     3042.8 secs

     End of self-consistent calculation

          k = 0.0000 0.0000 0.0000 (302835 PWs)   bands (ev):

   -41.2692 -41.2691 -41.2690 -41.2540 -41.2539 -41.2539 -41.2528 -41.2527
   -41.2527 -41.2320 -41.2318 -41.2318 -41.2316 -41.2314 -41.2314 -41.2134
   -41.2132 -41.2132 -41.2047 -41.2046 -41.2046 -41.2040 -41.2040 -41.2040
   -41.2021 -41.2019 -41.2019 -41.1994 -41.1993 -41.1992 -40.9936 -40.9936
   -40.9936 -40.9935 -40.9935 -40.9934 -40.9908 -40.9907 -40.9907 -40.9907
   -40.9906 -40.9906 -40.9891 -40.9891 -40.9890 -40.9890 -40.9890 -40.9889
   -40.9796 -40.9795 -40.9795 -40.9795 -40.9795 -40.9794 -40.9792 -40.9791
   -40.9791 -40.9791 -40.9790 -40.9790 -40.9062 -40.9061 -40.9060 -40.9049
   -40.9047 -40.9047 -40.9038 -40.9036 -40.9036 -40.8987 -40.8986 -40.8985
   -40.8984 -40.8982 -40.8982 -40.8659 -40.8658 -40.8657 -40.8656 -40.8655
   -40.8655 -40.8655 -40.8655 -40.8654 -40.8654 -40.8654 -40.8653 -40.8653
   -40.8652 -40.8652 -40.8652 -40.8651 -40.8651 -40.8645 -40.8645 -40.8644
   -40.8643 -40.8642 -40.8642 -40.8642 -40.8641 -40.8640 -40.8639 -40.8639
   -40.8638 -40.8598 -40.8597 -40.8596 -40.8595 -40.8595 -40.8595 -40.8595
   -40.8594 -40.8594 -40.8586 -40.8586 -40.8585 -40.8572 -40.8572 -40.8571
   -40.8567 -40.8567 -40.8566 -40.8564 -40.8563 -40.8562 -40.8561 -40.8561
   -40.8560 -40.8546 -40.8546 -40.8546 -40.8546 -40.8545 -40.8544 -40.8522
   -40.8522 -40.8521 -40.8508 -40.8508 -40.8507 -40.8507 -40.8507 -40.8506
   -40.8475 -40.8474 -40.8473 -40.8470 -40.8469 -40.8468 -40.7940 -40.7939
   -40.7938 -40.7927 -40.7927 -40.7891 -40.7890 -40.7889 -40.7889 -40.7889
   -40.7887 -40.7872 -40.7872 -40.7871 -40.7850 -40.7850 -40.7840 -40.7840
   -40.7839 -40.7838 -40.7838 -40.7838 -40.7838 -40.7837 -40.7834 -40.7735
   -40.7735 -40.7735 -40.7735 -40.7735 -40.7734 -40.7734 -40.7734 -40.7734
   -40.7734 -40.7734 -40.7733 -40.7731 -40.7731 -40.7731 -40.7731 -40.7731
   -40.7730 -40.7725 -40.7725 -40.7724 -40.7724 -40.7724 -40.7723 -40.7721
   -40.7721 -40.7721 -40.7720 -40.7720 -40.7719 -40.7623 -40.7623 -40.7622
   -40.7619 -40.7619 -40.7618 -40.7618 -40.7618 -40.7617 -40.7601 -40.7601
   -40.7600 -40.7598 -40.7598 -40.7597 -40.7552 -40.7552 -40.7552 -40.7546
   -40.7545 -40.7545 -40.7541 -40.7541 -40.7540 -40.7539 -40.7538 -40.7538
   -40.7538 -40.7538 -40.7538 -40.7533 -40.7533 -40.7533 -40.7524 -40.7523
   -40.7523 -40.7523 -40.7522 -40.7522 -40.7509 -40.7508 -40.7507 -40.7503
   -40.7502 -40.7502 -40.7501 -40.7500 -40.7500 -40.7499 -40.7498 -40.7497
   -40.7497 -40.7497 -40.7497 -40.7494 -40.7493 -40.7492 -40.7492 -40.7492
   -40.7491 -40.7465 -40.7464 -40.7463 -40.7463 -40.7462 -40.7462 -40.7460
   -40.7459 -40.7459 -40.7459 -40.7458 -40.7458 -40.7455 -40.7455 -40.7454
   -40.7454 -40.7453 -40.7453 -40.7453 -40.7452 -40.7451 -40.7451 -40.7450
   -40.7450 -40.7449 -40.7449 -40.7448 -40.7448 -40.7447 -40.7447 -40.7440
   -40.7440 -40.7438 -40.7436 -40.7436 -40.7435 -40.7435 -40.7434 -40.7433
   -40.7430 -40.7430 -40.7430 -40.7430 -40.7428 -40.7428 -40.7290 -40.7290
   -40.7287 -40.7283 -40.7283 -13.6943 -13.6860 -13.6859 -13.6669 -13.6657
   -13.6656 -13.6563 -13.6563 -13.6543 -13.6185 -13.6184 -13.6060 -13.6029
   -13.5997 -13.5995 -13.1006 -13.0971 -13.0970 -13.0911 -13.0911 -13.0877
   -13.0877 -13.0873 -13.0870 -13.0829 -13.0828 -13.0823 -13.0820 -13.0808
   -13.0806 -13.0805 -13.0797 -13.0797 -13.0750 -13.0749 -13.0748 -13.0746
   -13.0739 -13.0739 -13.0715 -13.0713 -13.0713 -13.0709 -13.0708 -13.0688
   -13.0677 -13.0676 -13.0674 -13.0662 -13.0660 -13.0659 -13.0658 -13.0657
   -13.0650 -13.0645 -13.0644 -13.0636 -13.0572 -13.0571 -13.0569 -13.0111
   -13.0111 -12.9984 -12.9961 -12.9961 -12.9858 -12.9851 -12.9851 -12.9781
   -12.9750 -12.9750 -12.9691 -12.9681 -12.9680 -12.9680 -12.9658 -12.9658
   -12.9630 -12.9630 -12.9611 -12.9371 -12.9371 -12.9371 -12.9289 -12.9279
   -12.9278 -12.9261 -12.9235 -12.9235 -12.9229 -12.9229 -12.9197 -12.9197
   -12.9192 -12.9167 -12.9161 -12.9161 -12.9158 -12.9138 -12.9138 -12.9123
   -12.9113 -12.9112 -12.9107 -12.9104 -12.9104 -12.9092 -12.9086 -12.9084
   -12.9084 -12.9083 -12.9076 -12.9076 -12.9067 -12.9062 -12.9062 -12.9037
   -12.9027 -12.9027 -12.9019 -12.9019 -12.9005 -12.9004 -12.8975 -12.8975
   -12.8973 -12.8968 -12.8956 -12.8941 -12.8941 -12.8912 -12.8905 -12.8905
   -12.8897 -12.8895 -12.8895 -12.8885 -12.8884 -12.8884 -12.8878 -12.8877
   -12.8872 -12.8872 -12.8861 -12.8861 -12.8851 -12.8851 -12.8847 -12.8847
   -12.8846 -12.8836 -12.8810 -12.8793 -12.8793 -12.8791 -12.8773 -12.8773
   -12.8750 -12.8749 -12.8729  -8.3193  -8.1759  -8.1759  -8.1003  -8.0541
    -8.0540  -8.0419  -7.9895  -7.9200  -7.9200  -7.9070  -7.8661  -7.8632
    -7.8632  -7.8449  -7.8405  -7.8405  -7.8287  -7.8287  -7.8248  -7.7876
    -7.7630  -7.7629  -7.7267  -7.7266  -7.7033  -7.6872  -7.6871  -7.6664
    -7.6428  -7.6361  -7.6361  -7.6212  -7.6178  -7.6114  -7.6114  -7.6078
    -7.6031  -7.6030  -7.6029  -7.5994  -7.5994  -7.5903  -7.5903  -7.5853
    -7.5852  -7.5755  -7.5541  -7.5401  -7.5351  -7.5351  -7.5179  -7.5178
    -7.5088  -7.4916  -7.4906  -7.4906  -7.4725  -7.4724  -7.4715  -7.4628
    -7.4628  -7.4606  -4.2203  -4.1299  -4.1299  -3.7796  -3.7795  -3.7739
    -3.7607  -3.7156  -3.7156  -3.6647  -3.6231  -3.6231  -3.6201  -3.6079
    -3.6078  -3.6041  -3.5987  -3.5956  -3.5956  -3.5565  -3.5564  -3.4823
    -3.4822  -3.4579  -3.3626  -3.3525  -3.3524  -3.3380  -3.3379  -3.3358
    -3.2983  -3.1242   0.7461   0.7660   0.7660   1.0321   1.0459   1.0649
     1.0649   1.0702   1.0702   1.0835   1.1163   1.1163   1.2014   1.2014
     1.2254   1.2672   1.2841   1.2842   1.3240   1.3366   1.3366   1.3422
     1.3497   1.3497   1.3934   1.3967   1.3967   1.4185   1.4289   1.4290
     1.4581   1.4581   1.4634   1.4662   1.4690   1.4690   1.5726   1.5874
     1.5874   1.5933   1.5951   1.5951   1.6375   1.6375   1.6727   1.6910
     1.6910   1.7164   1.7232   1.7346   1.7347   1.7752   1.8025   1.8025
     1.8974   1.9462   1.9462   1.9717   1.9717   1.9764   1.9841   1.9842
     1.9948   2.0010   2.0011   2.0023   2.0055   2.0260   2.0261   2.0681
     2.0780   2.0780   2.0897   2.0958   2.0958   2.1212   2.1212   2.1250
     2.1457   2.2253   2.2262   2.2433   2.2433   2.2560   2.2561   2.2698
     2.2758   2.2758   2.2822   2.2922   2.2923   2.3008   2.3035   2.3041
     2.3041   2.3169   2.3170   2.4007   2.4007   2.4059   2.4357   2.4357
     2.4375   2.4734   2.4736   2.4986   2.5260   2.5260   2.5487   2.5488
     2.5598   2.5788   2.6016   2.6188   2.6189   2.6601   2.6688   2.6688
     2.6914   2.6914   2.7364   2.7364   2.7425   2.7449   2.7500   2.7500
     2.7653   2.7653   2.7737   2.7785   2.7785   2.7930   2.8042   2.8042
     2.8112   2.8402   2.8402   2.8576   2.8576   2.8682   2.8691   2.8797
     2.8797   2.9060   2.9122   2.9122   2.9164   2.9179   2.9179   2.9428
     2.9487   2.9488   2.9623   2.9623   2.9704   2.9743   2.9744   2.9775
     2.9775   2.9786   2.9846   2.9865   2.9918   2.9918   3.1079   3.1080
     3.1084   3.1197   3.1197   3.1203   3.1444   3.1522   3.1522   3.1784
     3.1784   3.1872   3.3103   3.3127   3.3127   3.3236   3.3237   3.3262
     3.3318   3.3318   3.3605   3.3622   3.3719   3.3719   3.3892   4.6254
     5.8139   5.9601   5.9603   6.0888   6.3221   6.3223   6.3596   6.3883
     6.3884   6.4881   6.5013   6.5013   6.5789   6.6005   6.6265   6.6266
     6.6502   6.6503   6.6690   6.6690   6.6959   6.7703   6.8095   6.8095
     6.8279   6.8756   6.8757   6.8902   6.8903   6.9326   6.9326   6.9921
     7.0048   7.0048   7.0057   7.0401   7.0837   7.0838   7.0877   7.1582
     7.1582   7.1816   7.1818   7.1895   7.2029   7.2036   7.2066   7.2068
     7.2323   7.2323   7.2422   7.2434   7.2434   7.2446   7.2447   7.2493
     7.2583   7.2585   7.3172   7.3278   7.3279   7.3336   7.3387   7.3387
     7.3499   7.3948   7.3948   7.4056   7.4070   7.4070   7.4110   7.4139
     7.4200   7.4218   7.4219   7.4256   7.4257   7.4553   7.4554   7.4700
     7.5048   7.5049   7.5127   7.5262   7.5397   7.5398   7.6599   7.6730
     7.6731   7.6912   7.6946   7.6946   7.9557   7.9668   7.9668   8.8197
     9.1242   9.1242   9.2265   9.7023   9.7023   9.7045   9.7448   9.7803
     9.7864   9.7864   9.8114   9.8115   9.9057   9.9220   9.9220   9.9636
     9.9826   9.9864   9.9865   9.9906  10.0007  10.0008  10.0236  10.0237
    10.0563  10.1950  10.1950  10.2598  10.2723  10.3227  10.3227  10.4029
    10.4029  10.4034  10.4116  10.4199  10.4199  10.4343  10.6678  10.6679
    10.6908  10.7180  10.7182  10.7220  10.7628  10.7629  10.8647  10.8715
    10.8716  10.9590  10.9818  10.9833  10.9833  11.1234  11.1234

     occupation numbers 
     1.0000   1.0000   1.0000   1.0000   1.0000   1.0000   1.0000   1.0000
     1.0000   1.0000   1.0000   1.0000   1.0000   1.0000   1.0000   1.0000
     1.0000   1.0000   1.0000   1.0000   1.0000   1.0000   1.0000   1.0000
     1.0000   1.0000   1.0000   1.0000   1.0000   1.0000   1.0000   1.0000
     1.0000   1.0000   1.0000   1.0000   1.0000   1.0000   1.0000   1.0000
     1.0000   1.0000   1.0000   1.0000   1.0000   1.0000   1.0000   1.0000
     1.0000   1.0000   1.0000   1.0000   1.0000   1.0000   1.0000   1.0000
     1.0000   1.0000   1.0000   1.0000   1.0000   1.0000   1.0000   1.0000
     1.0000   1.0000   1.0000   1.0000   1.0000   1.0000   1.0000   1.0000
     1.0000   1.0000   1.0000   1.0000   1.0000   1.0000   1.0000   1.0000
     1.0000   1.0000   1.0000   1.0000   1.0000   1.0000   1.0000   1.0000
     1.0000   1.0000   1.0000   1.0000   1.0000   1.0000   1.0000   1.0000
     1.0000   1.0000   1.0000   1.0000   1.0000   1.0000   1.0000   1.0000
     1.0000   1.0000   1.0000   1.0000   1.0000   1.0000   1.0000   1.0000
     1.0000   1.0000   1.0000   1.0000   1.0000   1.0000   1.0000   1.0000
     1.0000   1.0000   1.0000   1.0000   1.0000   1.0000   1.0000   1.0000
     1.0000   1.0000   1.0000   1.0000   1.0000   1.0000   1.0000   1.0000
     1.0000   1.0000   1.0000   1.0000   1.0000   1.0000   1.0000   1.0000
     1.0000   1.0000   1.0000   1.0000   1.0000   1.0000   1.0000   1.0000
     1.0000   1.0000   1.0000   1.0000   1.0000   1.0000   1.0000   1.0000
     1.0000   1.0000   1.0000   1.0000   1.0000   1.0000   1.0000   1.0000
     1.0000   1.0000   1.0000   1.0000   1.0000   1.0000   1.0000   1.0000
     1.0000   1.0000   1.0000   1.0000   1.0000   1.0000   1.0000   1.0000
     1.0000   1.0000   1.0000   1.0000   1.0000   1.0000   1.0000   1.0000
     1.0000   1.0000   1.0000   1.0000   1.0000   1.0000   1.0000   1.0000
     1.0000   1.0000   1.0000   1.0000   1.0000   1.0000   1.0000   1.0000
     1.0000   1.0000   1.0000   1.0000   1.0000   1.0000   1.0000   1.0000
     1.0000   1.0000   1.0000   1.0000   1.0000   1.0000   1.0000   1.0000
     1.0000   1.0000   1.0000   1.0000   1.0000   1.0000   1.0000   1.0000
     1.0000   1.0000   1.0000   1.0000   1.0000   1.0000   1.0000   1.0000
     1.0000   1.0000   1.0000   1.0000   1.0000   1.0000   1.0000   1.0000
     1.0000   1.0000   1.0000   1.0000   1.0000   1.0000   1.0000   1.0000
     1.0000   1.0000   1.0000   1.0000   1.0000   1.0000   1.0000   1.0000
     1.0000   1.0000   1.0000   1.0000   1.0000   1.0000   1.0000   1.0000
     1.0000   1.0000   1.0000   1.0000   1.0000   1.0000   1.0000   1.0000
     1.0000   1.0000   1.0000   1.0000   1.0000   1.0000   1.0000   1.0000
     1.0000   1.0000   1.0000   1.0000   1.0000   1.0000   1.0000   1.0000
     1.0000   1.0000   1.0000   1.0000   1.0000   1.0000   1.0000   1.0000
     1.0000   1.0000   1.0000   1.0000   1.0000   1.0000   1.0000   1.0000
     1.0000   1.0000   1.0000   1.0000   1.0000   1.0000   1.0000   1.0000
     1.0000   1.0000   1.0000   1.0000   1.0000   1.0000   1.0000   1.0000
     1.0000   1.0000   1.0000   1.0000   1.0000   1.0000   1.0000   1.0000
     1.0000   1.0000   1.0000   1.0000   1.0000   1.0000   1.0000   1.0000
     1.0000   1.0000   1.0000   1.0000   1.0000   1.0000   1.0000   1.0000
     1.0000   1.0000   1.0000   1.0000   1.0000   1.0000   1.0000   1.0000
     1.0000   1.0000   1.0000   1.0000   1.0000   1.0000   1.0000   1.0000
     1.0000   1.0000   1.0000   1.0000   1.0000   1.0000   1.0000   1.0000
     1.0000   1.0000   1.0000   1.0000   1.0000   1.0000   1.0000   1.0000
     1.0000   1.0000   1.0000   1.0000   1.0000   1.0000   1.0000   1.0000
     1.0000   1.0000   1.0000   1.0000   1.0000   1.0000   1.0000   1.0000
     1.0000   1.0000   1.0000   1.0000   1.0000   1.0000   1.0000   1.0000
     1.0000   1.0000   1.0000   1.0000   1.0000   1.0000   1.0000   1.0000
     1.0000   1.0000   1.0000   1.0000   1.0000   1.0000   1.0000   1.0000
     1.0000   1.0000   1.0000   1.0000   1.0000   1.0000   1.0000   1.0000
     1.0000   1.0000   1.0000   1.0000   1.0000   1.0000   1.0000   1.0000
     1.0000   1.0000   1.0000   1.0000   1.0000   1.0000   1.0000   1.0000
     1.0000   1.0000   1.0000   1.0000   1.0000   1.0000   1.0000   1.0000
     1.0000   1.0000   1.0000   1.0000   1.0000   1.0000   1.0000   1.0000
     1.0000   1.0000   1.0000   1.0000   1.0000   1.0000   1.0000   1.0000
     1.0000   1.0000   1.0000   1.0000   1.0000   1.0000   1.0000   1.0000
     1.0000   1.0000   1.0000   1.0000   1.0000   1.0000   1.0000   1.0000
     1.0000   1.0000   1.0000   1.0000   1.0000   1.0000   1.0000   1.0000
     1.0000   1.0000   1.0000   1.0000   1.0000   1.0000   1.0000   1.0000
     1.0000   1.0000   1.0000   1.0000   1.0000   1.0000   1.0000   1.0000
     1.0000   1.0000   1.0000   1.0000   1.0000   1.0000   1.0000   1.0000
     1.0000   1.0000   1.0000   1.0000   1.0000   1.0000   1.0000   1.0000
     1.0000   1.0000   1.0000   1.0000   1.0000   1.0000   1.0000   1.0000
     1.0000   1.0000   1.0000   1.0000   1.0000   1.0000   1.0000   1.0000
     1.0000   1.0000   1.0000   1.0000   1.0000   1.0000   1.0000   1.0000
     1.0000   1.0000   1.0000   1.0000   1.0000   1.0000   1.0000   1.0000
     1.0000   1.0000   1.0000   1.0000   1.0000   1.0000   1.0000   1.0000
     1.0000   1.0000   1.0000   1.0000   1.0000   1.0000   1.0000   1.0000
     1.0000   1.0000   1.0000   1.0000   1.0000   1.0000   1.0000   1.0000
     1.0000   1.0000   1.0000   1.0000   1.0000   1.0000   1.0000   1.0000
     1.0000   1.0000   1.0000   1.0000   1.0000   1.0000   1.0000   1.0000
     1.0000   1.0000   1.0000   1.0000   1.0000   1.0000   1.0000   1.0000
     1.0000   1.0000   1.0000   1.0000   1.0000   1.0000   1.0000   1.0000
     1.0000   1.0000   1.0000   1.0000   1.0000   1.0000   1.0000   1.0000
     1.0000   1.0000   1.0000   1.0000   1.0000   1.0000   1.0000   1.0000
     1.0000   1.0000   1.0000   1.0000   1.0000   1.0000   1.0000   1.0000
     1.0000   1.0000   1.0000   1.0000   1.0000   1.0000   1.0000   1.0000
     1.0000   1.0000   1.0000   1.0000   1.0000   1.0000   1.0000   1.0000
     1.0000   1.0000   1.0000   1.0000   1.0000   1.0000   1.0000   1.0000
     1.0000   1.0000   1.0000   1.0000   1.0000   1.0000   1.0000   1.0000
     1.0000   1.0000   1.0000   1.0000   1.0000   1.0000   1.0000   1.0000
     1.0000   1.0000   1.0000   1.0000   1.0000   1.0000   1.0000   1.0000
     1.0000   1.0000   1.0000   1.0000   1.0000   1.0000   1.0000   1.0000
     1.0000   1.0000   1.0000   1.0000   1.0000   1.0000   1.0000   1.0000
     1.0000   1.0000   1.0000   1.0000   1.0000   1.0000   1.0000   1.0000
     1.0000   1.0000   1.0000   1.0000   1.0000   1.0000   1.0000   1.0000
     1.0000   1.0000   1.0000   1.0000   1.0000   1.0000   1.0000   1.0000
     1.0000   1.0000   1.0000   1.0000   1.0000   1.0000   1.0000   1.0000
     1.0000   1.0000   1.0000   1.0000   1.0000   1.0000   1.0000   1.0000
     1.0000   1.0000   1.0000   1.0000   1.0000   1.0000   1.0000   1.0000
     1.0000   1.0000   1.0000   1.0000   1.0000   1.0000   1.0000   0.0000
     0.0000   0.0000   0.0000   0.0000   0.0000   0.0000   0.0000   0.0000
     0.0000   0.0000   0.0000   0.0000   0.0000   0.0000   0.0000   0.0000
     0.0000   0.0000   0.0000   0.0000   0.0000   0.0000   0.0000   0.0000
     0.0000   0.0000   0.0000   0.0000   0.0000   0.0000   0.0000   0.0000
     0.0000   0.0000   0.0000   0.0000   0.0000   0.0000   0.0000   0.0000
     0.0000   0.0000   0.0000   0.0000   0.0000   0.0000   0.0000   0.0000
     0.0000   0.0000   0.0000   0.0000   0.0000   0.0000   0.0000   0.0000
     0.0000   0.0000   0.0000   0.0000   0.0000   0.0000   0.0000   0.0000
     0.0000   0.0000   0.0000   0.0000   0.0000   0.0000   0.0000   0.0000
     0.0000   0.0000   0.0000   0.0000   0.0000   0.0000   0.0000   0.0000
     0.0000   0.0000   0.0000   0.0000   0.0000   0.0000   0.0000   0.0000
     0.0000   0.0000   0.0000   0.0000   0.0000   0.0000   0.0000   0.0000
     0.0000   0.0000   0.0000   0.0000   0.0000   0.0000   0.0000   0.0000
     0.0000   0.0000   0.0000   0.0000   0.0000   0.0000   0.0000   0.0000
     0.0000   0.0000   0.0000   0.0000   0.0000   0.0000   0.0000   0.0000
     0.0000   0.0000   0.0000   0.0000   0.0000   0.0000   0.0000   0.0000
     0.0000   0.0000   0.0000   0.0000   0.0000   0.0000   0.0000   0.0000
     0.0000   0.0000   0.0000   0.0000   0.0000   0.0000   0.0000   0.0000
     0.0000   0.0000   0.0000   0.0000   0.0000   0.0000   0.0000

     the Fermi energy is     4.0138 ev

!    total energy              =  -64192.85896348 Ry
     total all-electron energy =  -2234725.372131 Ry
     estimated scf accuracy    <       0.00000005 Ry
     smearing contrib. (-TS)   =      -0.00000000 Ry
     internal energy E=F+TS    =  -64192.85896348 Ry

     The total energy is F=E-TS. E is the sum of the following terms:
     one-electron contribution =  -11933.10404997 Ry
     hartree contribution      =    6655.52400775 Ry
     xc contribution           =   -4481.80461925 Ry
     ewald contribution        =   -9684.48104865 Ry
     one-center paw contrib.   =  -44748.99325335 Ry
      -> PAW hartree energy AE =      95.88059397 Ry
      -> PAW hartree energy PS =     -96.11712548 Ry
      -> PAW xc energy AE      =    -798.42781134 Ry
      -> PAW xc energy PS      =      33.30801850 Ry
      -> total E_H with PAW    =    6655.28747624 Ry
      -> total E_XC with PAW   =   -5246.92441208 Ry

     convergence has been achieved in  12 iterations


     -----------------------------------------------
     Non-local corr. energy    =      45.47506938 Ry
     -----------------------------------------------


     Forces acting on atoms (cartesian axes, Ry/au):

     atom    1 type  1   force =     0.00000143    0.00119665    0.00028960
     atom    2 type  1   force =     0.00000007    0.03302592    0.00551407
     atom    3 type  1   force =    -0.00056860    0.00050688    0.00054776
     atom    4 type  1   force =    -0.00518105    0.00431726   -0.00330769
     atom    5 type  1   force =     0.00015911   -0.00074720    0.00054870
     atom    6 type  1   force =     0.00115227   -0.00665350   -0.00330758
     atom    7 type  1   force =     0.00103691   -0.00059485    0.00028941
     atom    8 type  1   force =     0.02860820   -0.01651276    0.00550669
     atom    9 type  1   force =     0.00156573    0.00090222    0.00047322
     atom   10 type  1   force =     0.00658350    0.00380554    0.00006175
     atom   11 type  1   force =     0.00056847    0.00050761    0.00056061
     atom   12 type  1   force =     0.00518628    0.00431656   -0.00329711
     atom   13 type  1   force =     0.00000078    0.00000094    0.00037830
     atom   14 type  1   force =     0.00000329   -0.00000044   -0.00182088
     atom   15 type  1   force =     0.00072470    0.00024071    0.00055952
     atom   16 type  1   force =     0.00633634    0.00233465   -0.00329707
     atom   17 type  1   force =    -0.00000138    0.00035538    0.00019816
     atom   18 type  1   force =    -0.00000104    0.00203278   -0.00024369
     atom   19 type  1   force =     0.00030776   -0.00017925    0.00019811
     atom   20 type  1   force =     0.00175639   -0.00101797   -0.00024499
     atom   21 type  1   force =    -0.00015687   -0.00074669    0.00056119
     atom   22 type  1   force =    -0.00115114   -0.00665036   -0.00329912
     atom   23 type  1   force =    -0.00072699    0.00024029    0.00055897
     atom   24 type  1   force =    -0.00633293    0.00233170   -0.00329561
     atom   25 type  1   force =    -0.00156615    0.00090562    0.00045845
     atom   26 type  1   force =    -0.00658924    0.00380267    0.00004779
     atom   27 type  1   force =    -0.00030665   -0.00018017    0.00018662
     atom   28 type  1   force =    -0.00176271   -0.00101911   -0.00025602
     atom   29 type  1   force =     0.00000108   -0.00180981    0.00045959
     atom   30 type  1   force =    -0.00000369   -0.00760549    0.00004782
     atom   31 type  1   force =    -0.00103419   -0.00059718    0.00028748
     atom   32 type  1   force =    -0.02860668   -0.01651297    0.00552346
     atom   33 type  2   force =     0.00000151   -0.00000071   -0.00014581
     atom   34 type  2   force =     0.00398987   -0.00294389    0.00105277
     atom   35 type  2   force =     0.00044922   -0.00037854   -0.00026773
     atom   36 type  2   force =     0.00202225    0.00116439    0.00188024
     atom   37 type  2   force =     0.00016097    0.00009484   -0.00008862
     atom   38 type  2   force =    -0.00055524    0.00491878    0.00102197
     atom   39 type  2   force =    -0.00010553    0.00057970   -0.00028204
     atom   40 type  2   force =    -0.00453859   -0.00198140    0.00101608
     atom   41 type  2   force =    -0.00055234   -0.00019445   -0.00028532
     atom   42 type  2   force =    -0.00398799   -0.00294235    0.00103915
     atom   43 type  2   force =    -0.00044662   -0.00038100   -0.00027821
     atom   44 type  2   force =    -0.00000019   -0.00092692    0.00111173
     atom   45 type  2   force =     0.00000054   -0.00040545   -0.00110967
     atom   46 type  2   force =    -0.00079987    0.00045966    0.00109146
     atom   47 type  2   force =    -0.00035135    0.00020336   -0.00112355
     atom   48 type  2   force =     0.00000171   -0.00233502    0.00188560
     atom   49 type  2   force =    -0.00000537   -0.00018710   -0.00008867
     atom   50 type  2   force =    -0.00169306   -0.00097417    0.00140109
     atom   51 type  2   force =    -0.00035705   -0.00020247    0.00027529
     atom   52 type  2   force =    -0.00201999    0.00116590    0.00189697
     atom   53 type  2   force =    -0.00016087    0.00009256   -0.00008562
     atom   54 type  2   force =     0.00080609    0.00046256    0.00111579
     atom   55 type  2   force =     0.00035251    0.00020308   -0.00110640
     atom   56 type  2   force =     0.00454698   -0.00198723    0.00106370
     atom   57 type  2   force =     0.00055662   -0.00020194   -0.00026113
     atom   58 type  2   force =     0.00169281   -0.00097393    0.00141863
     atom   59 type  2   force =     0.00035177   -0.00020259    0.00028896
     atom   60 type  2   force =     0.00000120    0.00195332    0.00141446
     atom   61 type  2   force =    -0.00000083    0.00040230    0.00028257
     atom   62 type  2   force =     0.00055323    0.00492327    0.00106004
     atom   63 type  2   force =     0.00010844    0.00057551   -0.00026663
     atom   64 type  2   force =     0.00043623   -0.00025078    0.00072268
     atom   65 type  2   force =     0.00307808   -0.00178565   -0.00053493
     atom   66 type  2   force =     0.00050599   -0.00016919    0.00001512
     atom   67 type  2   force =     0.00131115   -0.00088164   -0.00041768
     atom   68 type  2   force =     0.00010524    0.00052552    0.00002372
     atom   69 type  2   force =    -0.00010721    0.00157023   -0.00040307
     atom   70 type  2   force =     0.00000170    0.00050503    0.00073237
     atom   71 type  2   force =    -0.00001399    0.00355587   -0.00052038
     atom   72 type  2   force =    -0.00043128   -0.00025025    0.00073935
     atom   73 type  2   force =    -0.00307690   -0.00177142   -0.00051386
     atom   74 type  2   force =    -0.00000372   -0.00028982    0.00000283
     atom   75 type  2   force =     0.00000003   -0.01989402   -0.00316709
     atom   76 type  2   force =     0.00023026    0.00013289   -0.00059267
     atom   77 type  2   force =    -0.00100883   -0.00058734   -0.00063461
     atom   78 type  2   force =    -0.00025160    0.00014600    0.00001496
     atom   79 type  2   force =    -0.01723766    0.00995953   -0.00313833
     atom   80 type  2   force =    -0.00040249   -0.00035029    0.00001979
     atom   81 type  2   force =    -0.00141473   -0.00069102   -0.00040339
     atom   82 type  2   force =    -0.00050525   -0.00017314    0.00001111
     atom   83 type  2   force =    -0.00130737   -0.00088069   -0.00041369
     atom   84 type  2   force =    -0.00023619    0.00013337   -0.00060947
     atom   85 type  2   force =     0.00100897   -0.00058349   -0.00065524
     atom   86 type  2   force =    -0.00000499   -0.00026439   -0.00060193
     atom   87 type  2   force =     0.00000084    0.00116260   -0.00064551
     atom   88 type  2   force =     0.00039948   -0.00034727    0.00000847
     atom   89 type  2   force =     0.00142240   -0.00069419   -0.00042283
     atom   90 type  2   force =     0.00000023    0.00000105   -0.00005955
     atom   91 type  2   force =     0.00000097    0.00000206   -0.00076113
     atom   92 type  2   force =    -0.00010107    0.00052354    0.00000690
     atom   93 type  2   force =     0.00010842    0.00157422   -0.00041698
     atom   94 type  2   force =     0.00025197    0.00014940   -0.00001397
     atom   95 type  2   force =     0.01721752    0.00994760   -0.00318563
     The non-local contrib.  to forces
     atom    1 type  1   force =     0.00002198    0.00103944    0.00197416
     atom    2 type  1   force =    -0.00002345    0.13786214    0.11286011
     atom    3 type  1   force =    -0.00058098    0.00100999    0.00019874
     atom    4 type  1   force =    -0.00396530    0.00465157   -0.00150713
     atom    5 type  1   force =     0.00058808   -0.00102172    0.00019459
     atom    6 type  1   force =     0.00203703   -0.00568763   -0.00147611
     atom    7 type  1   force =     0.00096839   -0.00055311    0.00197879
     atom    8 type  1   force =     0.11931763   -0.06893218    0.11289670
     atom    9 type  1   force =     0.01002458    0.00574578   -0.00574951
     atom   10 type  1   force =     0.01638849    0.00938205   -0.01679556
     atom   11 type  1   force =     0.00057890    0.00098622    0.00017732
     atom   12 type  1   force =     0.00396188    0.00459982   -0.00154003
     atom   13 type  1   force =    -0.00004273   -0.00001825    0.00671834
     atom   14 type  1   force =    -0.00002286   -0.00002213    0.00197988
     atom   15 type  1   force =     0.00115520   -0.00003348    0.00017011
     atom   16 type  1   force =     0.00593756    0.00105003   -0.00152212
     atom   17 type  1   force =    -0.00001848   -0.00055837    0.00071853
     atom   18 type  1   force =    -0.00000750   -0.00462913    0.00445900
     atom   19 type  1   force =    -0.00044912    0.00023108    0.00072822
     atom   20 type  1   force =    -0.00396685    0.00225739    0.00448814
     atom   21 type  1   force =    -0.00059196   -0.00105308    0.00017083
     atom   22 type  1   force =    -0.00200313   -0.00578330   -0.00155889
     atom   23 type  1   force =    -0.00119334   -0.00003317    0.00017141
     atom   24 type  1   force =    -0.00603915    0.00109493   -0.00157712
     atom   25 type  1   force =    -0.01002895    0.00577616   -0.00572302
     atom   26 type  1   force =    -0.01631936    0.00942169   -0.01675472
     atom   27 type  1   force =     0.00045463    0.00025783    0.00074269
     atom   28 type  1   force =     0.00400126    0.00228706    0.00447528
     atom   29 type  1   force =     0.00001897   -0.01156452   -0.00568796
     atom   30 type  1   force =     0.00006592   -0.01891705   -0.01676160
     atom   31 type  1   force =    -0.00091019   -0.00055132    0.00198612
     atom   32 type  1   force =    -0.11942261   -0.06896039    0.11282901
     atom   33 type  2   force =     0.00000274    0.00000623    0.23793455
     atom   34 type  2   force =     0.00181207   -0.01831972    0.24861212
     atom   35 type  2   force =     0.00162398   -0.00174572    0.23767218
     atom   36 type  2   force =     0.00365917    0.00210136    0.25545189
     atom   37 type  2   force =     0.00113252    0.00067701    0.24399626
     atom   38 type  2   force =    -0.01496410    0.01069457    0.24857312
     atom   39 type  2   force =    -0.00071487    0.00228835    0.23764899
     atom   40 type  2   force =    -0.01673642    0.00762803    0.24855479
     atom   41 type  2   force =    -0.00232958   -0.00051429    0.23764210
     atom   42 type  2   force =    -0.00181396   -0.01831586    0.24858296
     atom   43 type  2   force =    -0.00161110   -0.00175388    0.23765609
     atom   44 type  2   force =    -0.00000572   -0.00515544    0.25274794
     atom   45 type  2   force =     0.00000088   -0.00484341    0.23558273
     atom   46 type  2   force =    -0.00448170    0.00259832    0.25273700
     atom   47 type  2   force =    -0.00420712    0.00244412    0.23557349
     atom   48 type  2   force =     0.00002068   -0.00421032    0.25546658
     atom   49 type  2   force =    -0.00001192   -0.00131198    0.24400781
     atom   50 type  2   force =    -0.01367634   -0.00789368    0.25560866
     atom   51 type  2   force =    -0.00298663   -0.00170409    0.24670314
     atom   52 type  2   force =    -0.00366668    0.00212938    0.25548235
     atom   53 type  2   force =    -0.00114080    0.00067901    0.24401898
     atom   54 type  2   force =     0.00446598    0.00260538    0.25276532
     atom   55 type  2   force =     0.00422064    0.00244183    0.23559254
     atom   56 type  2   force =     0.01679422    0.00757445    0.24863879
     atom   57 type  2   force =     0.00233543   -0.00052668    0.23769341
     atom   58 type  2   force =     0.01365670   -0.00787411    0.25563019
     atom   59 type  2   force =     0.00296281   -0.00170074    0.24672399
     atom   60 type  2   force =     0.00000983    0.01580716    0.25562617
     atom   61 type  2   force =    -0.00000006    0.00343685    0.24671254
     atom   62 type  2   force =     0.01495871    0.01076774    0.24862717
     atom   63 type  2   force =     0.00072119    0.00227803    0.23768324
     atom   64 type  2   force =     0.00995087   -0.00573499   -0.22639813
     atom   65 type  2   force =     0.03108682   -0.01791220   -0.26112809
     atom   66 type  2   force =     0.00149248   -0.00193870   -0.24330400
     atom   67 type  2   force =     0.00395895   -0.00154491   -0.25228510
     atom   68 type  2   force =    -0.00092997    0.00226310   -0.24329542
     atom   69 type  2   force =     0.00061775    0.00421764   -0.25226791
     atom   70 type  2   force =     0.00000541    0.01149997   -0.22638838
     atom   71 type  2   force =     0.00005828    0.03592645   -0.26111413
     atom   72 type  2   force =    -0.00995718   -0.00574003   -0.22636188
     atom   73 type  2   force =    -0.03108417   -0.01797862   -0.26109017
     atom   74 type  2   force =    -0.00000731   -0.00339963   -0.24231164
     atom   75 type  2   force =     0.00000658   -0.03893952   -0.26622683
     atom   76 type  2   force =     0.00091631    0.00053155   -0.24616382
     atom   77 type  2   force =     0.00076317    0.00043746   -0.25429456
     atom   78 type  2   force =    -0.00296101    0.00171033   -0.24228917
     atom   79 type  2   force =    -0.03372210    0.01947979   -0.26619118
     atom   80 type  2   force =    -0.00242443   -0.00029825   -0.24328506
     atom   81 type  2   force =    -0.00333723   -0.00263456   -0.25224463
     atom   82 type  2   force =    -0.00148323   -0.00193881   -0.24329877
     atom   83 type  2   force =    -0.00394871   -0.00153456   -0.25225900
     atom   84 type  2   force =    -0.00092473    0.00052587   -0.24618796
     atom   85 type  2   force =    -0.00076065    0.00044764   -0.25431748
     atom   86 type  2   force =    -0.00000954   -0.00104283   -0.24617069
     atom   87 type  2   force =     0.00000035   -0.00087959   -0.25430304
     atom   88 type  2   force =     0.00242793   -0.00028960   -0.24331585
     atom   89 type  2   force =     0.00332488   -0.00263383   -0.25228126
     atom   90 type  2   force =    -0.00000093    0.00001011   -0.24251541
     atom   91 type  2   force =    -0.00001339    0.00002125   -0.24717129
     atom   92 type  2   force =     0.00094814    0.00226162   -0.24332284
     atom   93 type  2   force =    -0.00064185    0.00420498   -0.25228344
     atom   94 type  2   force =     0.00295629    0.00173225   -0.24234064
     atom   95 type  2   force =     0.03372426    0.01947297   -0.26626807
     The ionic contribution  to forces
     atom    1 type  1   force =     0.00180165   -1.02715905    1.75621856
     atom    2 type  1   force =     0.00332195   -7.77393923   -7.48594984
     atom    3 type  1   force =     0.25577091   -0.51831462    0.20990977
     atom    4 type  1   force =     0.49768734   -0.82060483   -0.26367430
     atom    5 type  1   force =    -0.32137700    0.48195562    0.21021471
     atom    6 type  1   force =    -0.46212281    0.83912295   -0.26573995
     atom    7 type  1   force =    -0.88930767    0.51549297    1.75667405
     atom    8 type  1   force =    -6.72782723    3.88831810   -7.48508738
     atom    9 type  1   force =    -1.08175007   -0.62479992    0.88496716
     atom   10 type  1   force =    -2.16054316   -1.24593677   -0.75174506
     atom   11 type  1   force =    -0.25567399   -0.52023289    0.21115718
     atom   12 type  1   force =    -0.49702820   -0.82115403   -0.26133281
     atom   13 type  1   force =    -0.00093611    0.00016122   -0.12519617
     atom   14 type  1   force =    -0.00002187   -0.00004716    0.06716113
     atom   15 type  1   force =    -0.57878571    0.03961531    0.21099041
     atom   16 type  1   force =    -0.95895128   -0.01690895   -0.26287934
     atom   17 type  1   force =    -0.00201808   -0.09518691    0.11362980
     atom   18 type  1   force =    -0.00156739   -0.06808709   -0.26930954
     atom   19 type  1   force =    -0.08334972    0.04631260    0.11321852
     atom   20 type  1   force =    -0.06034832    0.03328189   -0.26959863
     atom   21 type  1   force =     0.32125756    0.48051190    0.21034304
     atom   22 type  1   force =     0.46010520    0.84037775   -0.26003682
     atom   23 type  1   force =     0.57558115    0.03901488    0.21054000
     atom   24 type  1   force =     0.95871055   -0.01991524   -0.25997732
     atom   25 type  1   force =     1.08213954   -0.62297225    0.88367392
     atom   26 type  1   force =     2.15834884   -1.24519932   -0.75231567
     atom   27 type  1   force =     0.08317427    0.04852274    0.11185652
     atom   28 type  1   force =     0.05900444    0.03446402   -0.27061237
     atom   29 type  1   force =     0.00171122    1.24860633    0.88166214
     atom   30 type  1   force =    -0.00041355    2.49397149   -0.75361225
     atom   31 type  1   force =     0.89210128    0.51518931    1.75526574
     atom   32 type  1   force =     6.73570129    3.88880073   -7.48705465
     atom   33 type  2   force =     0.00471947    0.00034566  -13.70930073
     atom   34 type  2   force =     3.06064860   -4.29388933  -14.44817630
     atom   35 type  2   force =     0.63217874   -0.53001918  -14.30147221
     atom   36 type  2   force =     0.27595757    0.16107224  -14.16918788
     atom   37 type  2   force =     0.17952766    0.10507589  -14.53746712
     atom   38 type  2   force =    -2.18898001    4.79959271  -14.45459529
     atom   39 type  2   force =    -0.14216799    0.81274330  -14.30354824
     atom   40 type  2   force =    -5.25099579   -0.50096204  -14.45529043
     atom   41 type  2   force =    -0.77494117   -0.27976797  -14.30538896
     atom   42 type  2   force =    -3.05622286   -4.29814692  -14.45051194
     atom   43 type  2   force =    -0.62808081   -0.53393277  -14.30360694
     atom   44 type  2   force =    -0.00112201   -1.01696155  -14.05273027
     atom   45 type  2   force =    -0.00156188   -0.50653131  -14.90741469
     atom   46 type  2   force =    -0.88188937    0.50831020  -14.05772803
     atom   47 type  2   force =    -0.43996199    0.25375703  -14.90871310
     atom   48 type  2   force =    -0.00540051   -0.31784374  -14.16802708
     atom   49 type  2   force =    -0.00533448   -0.20644102  -14.53771099
     atom   50 type  2   force =    -0.67939512   -0.39312766  -14.31742249
     atom   51 type  2   force =    -0.24730176   -0.14455100  -14.45363401
     atom   52 type  2   force =    -0.27563072    0.15471131  -14.16584149
     atom   53 type  2   force =    -0.17927357    0.09898714  -14.53587610
     atom   54 type  2   force =     0.87705510    0.50656198  -14.04994506
     atom   55 type  2   force =     0.43436840    0.25226307  -14.90622153
     atom   56 type  2   force =     5.24988565   -0.50009875  -14.44460332
     atom   57 type  2   force =     0.77552900   -0.27920502  -14.30016516
     atom   58 type  2   force =     0.67619013   -0.38997329  -14.31315234
     atom   59 type  2   force =     0.24323494   -0.14024332  -14.45154310
     atom   60 type  2   force =     0.00116169    0.78102966  -14.31505211
     atom   61 type  2   force =     0.00159131    0.28217347  -14.45162436
     atom   62 type  2   force =     2.19465198    4.79630233  -14.44609422
     atom   63 type  2   force =     0.14814506    0.81113903  -14.30030386
     atom   64 type  2   force =     3.14497476   -1.81224568   19.04127076
     atom   65 type  2   force =     1.51562869   -0.87402148   10.46375039
     atom   66 type  2   force =     0.90200536   -0.76573102   15.03850993
     atom   67 type  2   force =     0.91745232   -0.59617711   13.82803401
     atom   68 type  2   force =    -0.21200932    1.16642859   15.04134679
     atom   69 type  2   force =    -0.05703002    1.09271631   13.83086346
     atom   70 type  2   force =     0.00607485    3.62878133   19.04348947
     atom   71 type  2   force =     0.00181181    1.74791812   10.46544501
     atom   72 type  2   force =    -3.13699950   -1.81453298   19.04546694
     atom   73 type  2   force =    -1.50968621   -0.87283897   10.46719293
     atom   74 type  2   force =     0.00101342   -1.98798800   15.68939843
     atom   75 type  2   force =     0.00136413   -1.26780652   13.16628125
     atom   76 type  2   force =    -0.16653772   -0.09355154   14.70064237
     atom   77 type  2   force =    -0.03872413   -0.02270300   14.03541344
     atom   78 type  2   force =    -1.72060141    0.99499206   15.69372847
     atom   79 type  2   force =    -1.09995020    0.63847740   13.17114690
     atom   80 type  2   force =    -1.11976321   -0.39798175   15.04093088
     atom   81 type  2   force =    -0.97846374   -0.49625833   13.83149851
     atom   82 type  2   force =    -0.90150785   -0.77274835   15.03879801
     atom   83 type  2   force =    -0.91771966   -0.60187932   13.82830995
     atom   84 type  2   force =     0.16191527   -0.09707518   14.69713818
     atom   85 type  2   force =     0.03655071   -0.02377571   14.03005677
     atom   86 type  2   force =    -0.00547839    0.19049948   14.69854313
     atom   87 type  2   force =    -0.00205994    0.04509658   14.03340574
     atom   88 type  2   force =     1.11243243   -0.39587112   15.03664328
     atom   89 type  2   force =     0.97369953   -0.49525181   13.82645227
     atom   90 type  2   force =    -0.00158757   -0.00130892   14.62854045
     atom   91 type  2   force =    -0.00064252   -0.00170278   14.03445673
     atom   92 type  2   force =     0.21629071    1.16213009   15.03731668
     atom   93 type  2   force =     0.06035067    1.09119917   13.82630868
     atom   94 type  2   force =     1.72081056    0.99347894   15.68594472
     atom   95 type  2   force =     1.09540589    0.63409981   13.16266425
     The local contribution  to forces
     atom    1 type  1   force =    -0.00182060    1.02736644   -1.75798651
     atom    2 type  1   force =    -0.00329917    7.67636726    7.38234707
     atom    3 type  1   force =    -0.25583264    0.51789863   -0.20954520
     atom    4 type  1   force =    -0.49949675    0.82085614    0.26152764
     atom    5 type  1   force =     0.32098564   -0.48178441   -0.20984496
     atom    6 type  1   force =     0.46144668   -0.84089173    0.26356252
     atom    7 type  1   force =     0.88941892   -0.51555734   -1.75844810
     atom    8 type  1   force =     6.64340635   -3.83952877    7.38144246
     atom    9 type  1   force =     1.07361975    0.62014610   -0.87881322
     atom   10 type  1   force =     2.15170224    1.24091964    0.76830192
     atom   11 type  1   force =     0.25573856    0.51984320   -0.21075819
     atom   12 type  1   force =     0.49884854    0.82145553    0.25922909
     atom   13 type  1   force =     0.00097996   -0.00013806    0.11883813
     atom   14 type  1   force =     0.00004905    0.00007202   -0.07100559
     atom   15 type  1   force =     0.57846897   -0.03931789   -0.21058486
     atom   16 type  1   force =     0.96015363    0.01841772    0.26075766
     atom   17 type  1   force =     0.00203256    0.09619339   -0.11395510
     atom   18 type  1   force =     0.00157328    0.07474564    0.26450212
     atom   19 type  1   force =     0.08418732   -0.04677003   -0.11355449
     atom   20 type  1   force =     0.06606837   -0.03655405    0.26475898
     atom   21 type  1   force =    -0.32086194   -0.48031140   -0.20993697
     atom   22 type  1   force =    -0.45946244   -0.84204877    0.25794981
     atom   23 type  1   force =    -0.57522960   -0.03871834   -0.21013697
     atom   24 type  1   force =    -0.95980915    0.02137627    0.25791221
     atom   25 type  1   force =    -1.07400545    0.61829169   -0.87756422
     atom   26 type  1   force =    -2.14958308    1.24013765    0.76881950
     atom   27 type  1   force =    -0.08401765   -0.04900489   -0.11222041
     atom   28 type  1   force =    -0.06476827   -0.03776609    0.26577560
     atom   29 type  1   force =    -0.00172875   -1.23922697   -0.87558609
     atom   30 type  1   force =     0.00034361   -2.48377136    0.77012190
     atom   31 type  1   force =    -0.89226646   -0.51525836   -1.75705026
     atom   32 type  1   force =    -6.65117606   -3.83998317    7.38349295
     atom   33 type  2   force =    -0.00472199   -0.00035597   13.47621963
     atom   34 type  2   force =    -3.05845692    4.30888284   14.20580832
     atom   35 type  2   force =    -0.63326855    0.53120118   14.06856801
     atom   36 type  2   force =    -0.27748722   -0.16194813   13.92124961
     atom   37 type  2   force =    -0.18041422   -0.10560769   14.29873239
     atom   38 type  2   force =     2.20306060   -4.80515884   14.21223349
     atom   39 type  2   force =     0.14265887   -0.81429033   14.07065198
     atom   40 type  2   force =     5.26285229    0.49153323   14.21293717
     atom   41 type  2   force =     0.77651787    0.28010546   14.07249074
     atom   42 type  2   force =     3.05403449    4.31313555   14.20815530
     atom   43 type  2   force =     0.62916456    0.53512375   14.07070568
     atom   44 type  2   force =     0.00112952    1.02117644   13.80681485
     atom   45 type  2   force =     0.00156511    0.51093513   14.67580168
     atom   46 type  2   force =     0.88555899   -0.51043813   13.81180246
     atom   47 type  2   force =     0.44379044   -0.25597925   14.67709105
     atom   48 type  2   force =     0.00538396    0.31959695   13.92007401
     atom   49 type  2   force =     0.00534344    0.20746640   14.29895988
     atom   50 type  2   force =     0.69095229    0.39980106   14.06864302
     atom   51 type  2   force =     0.24974218    0.14594181   14.21267826
     atom   52 type  2   force =     0.27717104   -0.15561305   13.91788583
     atom   53 type  2   force =     0.18016676   -0.09952408   14.29712191
     atom   54 type  2   force =    -0.88070076   -0.50869379   13.80401747
     atom   55 type  2   force =    -0.43820733   -0.25448354   14.67460328
     atom   56 type  2   force =    -5.26179192    0.49071517   14.20222291
[...]
     atom   13 type  1   force =    -0.00000010   -0.00000002   -0.00000204
     atom   14 type  1   force =    -0.00000009    0.00000010   -0.00000848
     atom   15 type  1   force =     0.00000003   -0.00000260    0.00000188
     atom   16 type  1   force =    -0.00001171   -0.00001591   -0.00001216
     atom   17 type  1   force =    -0.00000007    0.00000140   -0.00001047
     atom   18 type  1   force =     0.00000010   -0.00000963    0.00002180
     atom   19 type  1   force =     0.00000119   -0.00000078   -0.00001053
     atom   20 type  1   force =    -0.00000824    0.00000482    0.00002195
     atom   21 type  1   force =    -0.00000234    0.00000120    0.00000181
     atom   22 type  1   force =    -0.00000775    0.00001820   -0.00001205
     atom   23 type  1   force =    -0.00000008   -0.00000255    0.00000184
     atom   24 type  1   force =     0.00001178   -0.00001580   -0.00001215
     atom   25 type  1   force =    -0.00000581    0.00000343   -0.00000220
     atom   26 type  1   force =     0.00001880   -0.00001083    0.00000627
     atom   27 type  1   force =    -0.00000117   -0.00000074   -0.00001051
     atom   28 type  1   force =     0.00000831    0.00000470    0.00002178
     atom   29 type  1   force =     0.00000004   -0.00000680   -0.00000218
     atom   30 type  1   force =    -0.00000005    0.00002176    0.00000621
     atom   31 type  1   force =    -0.00001614   -0.00000921    0.00000997
     atom   32 type  1   force =    -0.00001173   -0.00000672   -0.00000577
     atom   33 type  2   force =    -0.00000009    0.00000008   -0.00002058
     atom   34 type  2   force =     0.00002055    0.00000885    0.00000598
     atom   35 type  2   force =    -0.00000756    0.00001524   -0.00000681
     atom   36 type  2   force =     0.00003275    0.00001883   -0.00000129
     atom   37 type  2   force =    -0.00000078   -0.00000056    0.00000203
     atom   38 type  2   force =     0.00001807    0.00001338    0.00000594
     atom   39 type  2   force =     0.00000958   -0.00001426   -0.00000675
     atom   40 type  2   force =    -0.00000252   -0.00002238    0.00000574
     atom   41 type  2   force =     0.00001709   -0.00000106   -0.00000655
     atom   42 type  2   force =    -0.00002059    0.00000882    0.00000581
     atom   43 type  2   force =     0.00000757    0.00001532   -0.00000666
     atom   44 type  2   force =    -0.00000017   -0.00001276    0.00000873
     atom   45 type  2   force =    -0.00000005   -0.00000434   -0.00000011
     atom   46 type  2   force =    -0.00001114    0.00000638    0.00000893
     atom   47 type  2   force =    -0.00000383    0.00000212    0.00000005
     atom   48 type  2   force =    -0.00000012   -0.00003771   -0.00000129
     atom   49 type  2   force =    -0.00000007    0.00000118    0.00000209
     atom   50 type  2   force =    -0.00001631   -0.00000960   -0.00000392
     atom   51 type  2   force =     0.00000445    0.00000259    0.00000560
     atom   52 type  2   force =    -0.00003286    0.00001883   -0.00000130
     atom   53 type  2   force =     0.00000088   -0.00000069    0.00000199
     atom   54 type  2   force =     0.00001111    0.00000643    0.00000896
     atom   55 type  2   force =     0.00000376    0.00000216   -0.00000018
     atom   56 type  2   force =     0.00000253   -0.00002216    0.00000603
     atom   57 type  2   force =    -0.00001692   -0.00000099   -0.00000660
     atom   58 type  2   force =     0.00001648   -0.00000949   -0.00000354
     atom   59 type  2   force =    -0.00000442    0.00000250    0.00000556
     atom   60 type  2   force =     0.00000015    0.00001884   -0.00000382
     atom   61 type  2   force =    -0.00000004   -0.00000523    0.00000548
     atom   62 type  2   force =    -0.00001791    0.00001348    0.00000599
     atom   63 type  2   force =    -0.00000943   -0.00001415   -0.00000671
     atom   64 type  2   force =    -0.00000944    0.00000555    0.00002666
     atom   65 type  2   force =    -0.00001255    0.00000739   -0.00001410
     atom   66 type  2   force =     0.00000625    0.00000282   -0.00000659
     atom   67 type  2   force =     0.00002195    0.00000013    0.00000196
     atom   68 type  2   force =     0.00000567    0.00000403   -0.00000647
     atom   69 type  2   force =     0.00001134    0.00001888    0.00000199
     atom   70 type  2   force =     0.00000011   -0.00001086    0.00002681
     atom   71 type  2   force =    -0.00000012   -0.00001461   -0.00001412
     atom   72 type  2   force =     0.00000953    0.00000550    0.00002675
     atom   73 type  2   force =     0.00001235    0.00000727   -0.00001416
     atom   74 type  2   force =    -0.00000000    0.00000872    0.00001665
     atom   75 type  2   force =    -0.00000022    0.00000082   -0.00003200
     atom   76 type  2   force =    -0.00000337   -0.00000195    0.00000843
     atom   77 type  2   force =     0.00000293    0.00000174   -0.00001336
     atom   78 type  2   force =     0.00000760   -0.00000430    0.00001674
     atom   79 type  2   force =     0.00000108   -0.00000058   -0.00003220
     atom   80 type  2   force =    -0.00000092   -0.00000682   -0.00000654
     atom   81 type  2   force =    -0.00001064   -0.00001941    0.00000192
     atom   82 type  2   force =    -0.00000636    0.00000256   -0.00000655
     atom   83 type  2   force =    -0.00002214    0.00000051    0.00000213
     atom   84 type  2   force =     0.00000339   -0.00000198    0.00000837
     atom   85 type  2   force =    -0.00000312    0.00000179   -0.00001280
     atom   86 type  2   force =    -0.00000009    0.00000391    0.00000828
     atom   87 type  2   force =    -0.00000005   -0.00000309   -0.00001356
     atom   88 type  2   force =     0.00000064   -0.00000668   -0.00000651
     atom   89 type  2   force =     0.00001076   -0.00001913    0.00000198
     atom   90 type  2   force =    -0.00000008   -0.00000019   -0.00002679
     atom   91 type  2   force =    -0.00000002    0.00000002    0.00002870
     atom   92 type  2   force =    -0.00000557    0.00000388   -0.00000656
     atom   93 type  2   force =    -0.00001127    0.00001882    0.00000208
     atom   94 type  2   force =    -0.00000774   -0.00000433    0.00001674
     atom   95 type  2   force =    -0.00000097   -0.00000053   -0.00003198

     Total force =     0.003826     Total SCF correction =     0.000187


     Computing stress (Cartesian axis) and pressure



     -----------------------------------------------
     Non-local corr. energy    =      45.47306700 Ry
     -----------------------------------------------

          total   stress  (Ry/bohr**3)                   (kbar)     P=       -2.05
  -0.00001374  -0.00000000   0.00000000           -2.02       -0.00        0.00
  -0.00000000  -0.00001374   0.00000000           -0.00       -2.02        0.00
   0.00000000   0.00000000  -0.00001430            0.00        0.00       -2.10

     kinetic stress (kbar)  14857.93      0.00      0.00
                                0.00  14857.93      0.00
                                0.00      0.00  14868.61

     local   stress (kbar)  -7780.72      0.01     -0.00
                                0.01  -7780.75     -0.04
                               -0.00     -0.04   1300.73

     nonloc. stress (kbar)  -1098.54     -0.00      0.00
                               -0.00  -1098.53      0.00
                                0.00      0.00  -1104.80

     hartree stress (kbar)  12054.81     -0.00      0.00
                               -0.00  12054.82      0.02
                                0.00      0.02   7964.85

     exc-cor stress (kbar)   6862.86     -0.00      0.00
                               -0.00   6862.86      0.00
                                0.00      0.00   6861.71

     corecor stress (kbar) -11174.97      0.00     -0.00
                                0.00 -11174.97     -0.00
                               -0.00     -0.00 -11174.90

     ewald   stress (kbar) -13805.64     -0.01      0.00
                               -0.01 -13805.62      0.02
                                0.00      0.02 -18801.92

     hubbard stress (kbar)      0.00      0.00      0.00
                                0.00      0.00      0.00
                                0.00      0.00      0.00

     DFT-D   stress (kbar)      0.00      0.00      0.00
                                0.00      0.00      0.00
                                0.00      0.00      0.00

     XDM     stress (kbar)      0.00      0.00      0.00
                                0.00      0.00      0.00
                                0.00      0.00      0.00

     dft-nl  stress (kbar)     82.25      0.00     -0.00
                                0.00     82.25     -0.00
                               -0.00     -0.00     83.62

     TS-vdW  stress (kbar)      0.00      0.00      0.00
                                0.00      0.00      0.00
                                0.00      0.00      0.00

     MDB     stress (kbar)      0.00      0.00      0.00
                                0.00      0.00      0.00
                                0.00      0.00      0.00

     3D-RISM stress (kbar)      0.00      0.00      0.00
                                0.00      0.00      0.00
                                0.00      0.00      0.00

     Energy error            =      3.3E-05 Ry
     Gradient error          =      8.7E-04 Ry/Bohr

     bfgs converged in  25 scf cycles and  24 bfgs steps
     (criteria: energy <  1.0E-04 Ry, force <  1.0E-03 Ry/Bohr)

     End of BFGS Geometry Optimization

     Final energy             =  -64192.8991742195 Ry

     File ./PbI2.bfgs deleted, as requested
Begin final coordinates

ATOMIC_POSITIONS (angstrom)
Pb            2.3557005745        4.0740316979       14.7782859868
Pb            2.3557601796        4.2543574410        7.4265483033
Pb            0.0017012692        8.1598958659       14.7473899160
Pb           -0.0431969977        8.1787440804        7.3416437999
Pb           -2.3546970395       12.2413162135       14.7473350751
Pb           -2.3607246004       12.1928633586        7.3416455688
Pb           -4.7161780637       16.3228014915       14.7782589924
Pb           -4.5597524170       16.2324990505        7.4266607401
Pb            7.0674553122        4.0800172833       14.7871186650
Pb            7.0852436340        4.0902519290        7.3933950335
Pb            4.7096884099        8.1598662561       14.7477421081
Pb            4.7545907099        8.1787409186        7.3420002935
Pb            2.3557079827       12.2399173120       14.7069935489
Pb            2.3556648100       12.2398804721        7.3504892480
Pb           -0.0007259105       16.3185440085       14.7476330299
Pb            0.0381509786       16.3479073896        7.3419543992
Pb           11.7782307776        4.0751725438       14.7690686829
Pb           11.7782526615        4.1027549813        7.3868129734
Pb            9.4186385132        8.1620835765       14.7690970630
Pb            9.4425387837        8.1482938541        7.3869306640
Pb            7.0660975057       12.2413230769       14.7476453522
Pb            7.0721839361       12.1928778926        7.3419911244
Pb            4.7121046013       16.3185393233       14.7476024891
Pb            4.6733172427       16.3479540928        7.3419282404
Pb           16.4890474887        4.0800084696       14.7868258453
Pb           16.4712789238        4.0902297052        7.3930491978
Pb           14.1378471113        8.1620999183       14.7687796489
Pb           14.1139205114        8.1482697593        7.3865349923
Pb           11.7782370131       12.2392940481       14.7867167377
Pb           11.7782420017       12.2187765919        7.3931134048
Pb            9.4275821849       16.3227996269       14.7782385849
Pb            9.2714116985       16.2325650263        7.4264270321
I             2.3557059872        1.3597688770       12.8905500982
I            -0.0036251616        5.4448551887        5.4776219149
I            -0.0062220113        5.4266906508       12.8910523030
I            -2.3506957481        9.5226467338        5.4709344128
I            -2.3593641629        9.5177310980       12.8686234102
I            -4.7086894936       13.5942214773        5.4776542838
I            -4.7257225934       13.6011266229       12.8909895949
I             7.0732720832        1.3604571787        5.4778650760
I             7.0587811365        1.3717934567       12.8912386201
I             4.7151611551        5.4449221915        5.4778468025
I             4.7176990703        5.4267484916       12.8912708598
I             2.3557972854        9.5110121096        5.4959963222
I             2.3557922932        9.5005076069       12.8356586723
I            -0.0075611239       13.6044591734        5.4959490017
I            -0.0166162975       13.6097265263       12.8356155099
I            11.7782428065        1.3540329449        5.4712566811
I            11.7782004355        1.3641398011       12.8689670522
I             9.4262315442        5.4419563851        5.4956957311
I             9.4094928582        5.4322640548       12.8932092391
I             7.0620931724        9.5226436627        5.4713100186
I             7.0707192849        9.5177056439       12.8690622655
I             4.7190530340       13.6043950659        5.4961521149
I             4.7281014149       13.6096747921       12.8356771660
I            16.4831837555        1.3603687941        5.4776914719
I            16.4976728510        1.3716887142       12.8911207983
I            14.1301379780        5.4418671420        5.4954235038
I            14.1468687903        5.4322154151       12.8930286141
I            11.7781051697        9.5156493887        5.4954774012
I            11.7781374561        9.5348318975       12.8929864895
I             9.4199982062       13.5940848444        5.4777109807
I             9.4370080264       13.6010644068       12.8910801784
I             0.0215813284        2.7072989703        1.9309354676
I             0.0258931565        2.7048013378        9.2111095109
I            -2.3500874355        6.8105538888        1.8991434447
I            -2.3576347033        6.8033455638        9.2547696198
I            -4.6991876617       10.8793529198        1.8990809597
I            -4.7091599720       10.8763624590        9.2547862473
I            -7.0668490901       14.9846459554        1.9309067297
I            -7.0668171482       14.9897742351        9.2111435583
I             4.6897186821        2.7072572071        1.9310328789
I             4.6854942897        2.7047791132        9.2112770993
I             2.3555741815        6.8130036012        1.8851472833
I             2.3555817222        6.7094167550        9.2734567308
I             0.0207153927       10.8918959380        1.8615563951
I            -0.0123377316       10.8727226798        9.2398524353
I            -2.3442219992       14.9533627074        1.8850735010
I            -2.4337193797       15.0049337897        9.2735105322
I             9.4291391510        2.7096469515        1.8994980796
I             9.4266997562        2.7197681696        9.2551262545
I             7.0614828870        6.8105406142        1.8995449083
I             7.0690145985        6.8033194491        9.2552131056
I             4.6905648027       10.8919548377        1.8617554450
I             4.7235866210       10.8728001643        9.2400320514
I             2.3556896469       14.9359926067        1.8617197555
I             2.3557075548       14.9741548736        9.2399970884
I            14.1273961455        2.7097011467        1.8993348302
I            14.1298668802        2.7198382071        9.2550253854
I            11.7783238227        6.7999007655        1.8932707532
I            11.7783509146        6.7998470339        9.2869247696
I             9.4106626448       10.8793866864        1.8993173409
I             9.4206780381       10.8764281783        9.2551336899
I             7.0555920282       14.9534844454        1.8851655750
I             7.1452738191       15.0051530592        9.2735022565
End final coordinates



     Writing all to output data dir ./PbI2.save/
 
     init_run     :     14.54s CPU     15.39s WALL (       1 calls)
     electrons    :  57788.11s CPU  58952.69s WALL (      25 calls)
     update_pot   :     47.25s CPU     47.90s WALL (      24 calls)
     forces       :    179.40s CPU    186.64s WALL (      25 calls)
     stress       :   2753.87s CPU   2786.14s WALL (      25 calls)

     Called by init_run:
     wfcinit      :      9.84s CPU     10.18s WALL (       1 calls)
     wfcinit:atom :      0.03s CPU      0.06s WALL (       1 calls)
     wfcinit:wfcr :      9.26s CPU      9.43s WALL (       1 calls)
     potinit      :      1.33s CPU      1.57s WALL (       1 calls)
     hinit0       :      0.95s CPU      1.02s WALL (       1 calls)

     Called by electrons:
     c_bands      :  56358.73s CPU  57441.26s WALL (     291 calls)
     sum_band     :    914.25s CPU    956.82s WALL (     291 calls)
     v_of_rho     :    224.57s CPU    229.06s WALL (     300 calls)
     v_h          :      2.73s CPU      2.94s WALL (     300 calls)
     v_xc         :    258.35s CPU    263.16s WALL (     350 calls)
     newd         :     93.26s CPU    123.45s WALL (     300 calls)
     PAW_pot      :     91.92s CPU     93.29s WALL (     324 calls)
     mix_rho      :      8.68s CPU      8.86s WALL (     291 calls)
     vdW_kernel   :      0.25s CPU      0.26s WALL (       1 calls)

     Called by c_bands:
     init_us_2    :     25.27s CPU     25.77s WALL (     607 calls)
     init_us_2:cp :     25.26s CPU     25.76s WALL (     607 calls)
     cegterg      :  56252.11s CPU  57128.44s WALL (     291 calls)

     Called by sum_band:
     sum_band:wei :      0.06s CPU      0.07s WALL (     291 calls)
     sum_band:loo :    803.62s CPU    809.64s WALL (     291 calls)
     sum_band:buf :      0.00s CPU      0.00s WALL (     291 calls)
     sum_band:ini :     21.04s CPU     21.35s WALL (     291 calls)
     sum_band:cal :    372.44s CPU    375.09s WALL (     315 calls)
     sum_band:bec :      4.81s CPU      4.88s WALL (     315 calls)
     addusdens    :     94.27s CPU    130.16s WALL (     291 calls)
     addusd:skk   :      7.79s CPU      7.98s WALL (     582 calls)
     addusd:dgemm :     50.07s CPU     85.27s WALL (     582 calls)
     addusd:qvan2 :     34.41s CPU     34.75s WALL (     582 calls)

     Called by *egterg:
     cdiaghg      :  45834.16s CPU  46297.93s WALL (    4440 calls)
     cegterg:over :   2150.75s CPU   2210.59s WALL (    4189 calls)
     cegterg:upda :   1305.93s CPU   1329.68s WALL (    4189 calls)
     cegterg:last :    519.82s CPU    523.77s WALL (     298 calls)
     h_psi        :   4850.34s CPU   4908.61s WALL (    4481 calls)
     s_psi        :    996.79s CPU   1004.65s WALL (    4481 calls)
     g_psi        :      4.94s CPU      5.01s WALL (    4189 calls)

     Called by h_psi:
     h_psi:calbec :   1135.51s CPU   1143.52s WALL (    4481 calls)
     vloc_psi     :   2694.39s CPU   2715.36s WALL (    4481 calls)
     add_vuspsi   :    995.63s CPU   1004.81s WALL (    4481 calls)

     General routines
     calbec       :   1656.47s CPU   1668.28s WALL (    4921 calls)
     fft          :    183.69s CPU    185.68s WALL (   23115 calls)
     ffts         :      5.06s CPU      5.15s WALL (     591 calls)
     fftw         :   2962.82s CPU   2984.85s WALL ( 1817417 calls)
     interpolate  :      5.37s CPU      5.45s WALL (     300 calls)
 
     Parallel routines

     PAW routines
     PAW_pot      :     91.92s CPU     93.29s WALL (     324 calls)
 
     PWSCF        :     16h54m CPU     17h14m WALL

 
   This run was terminated on:   4:54: 4   8Mar2024            

=------------------------------------------------------------------------------=
   JOB DONE.
=------------------------------------------------------------------------------=
